 running on   12 total cores
 distrk:  each k-point on   12 cores,    1 groups
 distr:  one band on    6 cores,    2 groups
 using from now: INCAR     
 vasp.6.1.2 22Jul20 (build Mar 20 2021 11:25:07) complex                        
  
 POSCAR found type information on POSCAR LiP 
 POSCAR found :  2 types and      16 ions
 scaLAPACK will be used
 LDA part: xc-table for Pade appr. of Perdew
 generate k-points for:    6    6    3
 POSCAR, INCAR and KPOINTS ok, starting setup
 FFT: planning ...
 WAVECAR not read
 entering main loop
       N       E                     dE             d eps       ncg     rms          rms(c)
DAV:   1     0.392999227243E+03    0.39300E+03   -0.25692E+04  7360   0.135E+03
DAV:   2    -0.395746940517E+01   -0.39696E+03   -0.36646E+03  8430   0.320E+02
DAV:   3    -0.555633372672E+02   -0.51606E+02   -0.50957E+02 10586   0.896E+01
DAV:   4    -0.630169857012E+02   -0.74536E+01   -0.73874E+01 13384   0.339E+01
DAV:   5    -0.639156984173E+02   -0.89871E+00   -0.89839E+00 10800   0.799E+00    0.202E+01
DAV:   6    -0.652229855381E+02   -0.13073E+01   -0.29138E+00  9878   0.638E+00    0.106E+01
DAV:   7    -0.664876010172E+02   -0.12646E+01   -0.70139E-01  9174   0.403E+00    0.536E+00
DAV:   8    -0.667600869144E+02   -0.27249E+00   -0.63516E-01  9366   0.301E+00    0.119E+00
DAV:   9    -0.667875437177E+02   -0.27457E-01   -0.84101E-02 11040   0.113E+00    0.448E-01
DAV:  10    -0.667905086364E+02   -0.29649E-02   -0.70209E-03  9500   0.399E-01    0.194E-01
DAV:  11    -0.667917840194E+02   -0.12754E-02   -0.16907E-03  9192   0.211E-01    0.978E-02
DAV:  12    -0.667920984455E+02   -0.31443E-03   -0.64669E-04  9352   0.103E-01    0.410E-02
DAV:  13    -0.667921503990E+02   -0.51953E-04   -0.10026E-04  8312   0.536E-02    0.201E-02
DAV:  14    -0.667921667395E+02   -0.16341E-04   -0.37091E-05  7498   0.315E-02    0.572E-03
DAV:  15    -0.667921685996E+02   -0.18601E-05   -0.52885E-06  5146   0.146E-02
   1 F= -.66792169E+02 E0= -.66792169E+02  d E =0.000000E+00  mag=    -0.0003
