    8    8    1    2
  0.8153209E+01  0.3140870E-09  0.3140870E-09  0.7634631E-09  0.5000000E-15
  1.000000000000000E-004
  CAR 
 unknown system                          
     36     57     32
 
  0.0000000E+00  0.0000000E+00  0.0000000E+00  0.1736111E-02
    1      -41.521272    -41.520755   1.000000   1.000000
    2      -41.513431    -41.512907   1.000000   1.000000
    3      -41.136962    -41.136823   1.000000   1.000000
    4      -41.130095    -41.129948   1.000000   1.000000
    5      -18.129120    -18.129140   1.000000   1.000000
    6      -17.937647    -17.937672   1.000000   1.000000
    7      -13.026762    -13.026773   1.000000   1.000000
    8      -12.268761    -12.268790   1.000000   1.000000
    9       -3.976934     -3.976926   1.000000   1.000000
   10       -2.138631     -2.138656   1.000000   1.000000
   11       -0.870611     -0.870628   1.000000   1.000000
   12       -0.870597     -0.870614   1.000000   1.000000
   13       -0.705380     -0.705401   1.000000   1.000000
   14       -0.705372     -0.705394   1.000000   1.000000
   15        2.313165      2.313149   1.000000   1.000000
   16        2.313174      2.313158   1.000000   1.000000
   17        2.567893      2.567867   1.000000   1.000000
   18        2.567895      2.567870   1.000000   1.000000
   19        4.696456      4.696472   0.000001   0.000001
   20        6.946804      6.946778   0.000000   0.000000
   21        8.760571      8.760567   0.000000   0.000000
   22        9.238901      9.238956   0.000000   0.000000
   23       11.433751     11.433783   0.000000   0.000000
   24       11.470547     11.470500   0.000000   0.000000
   25       14.366890     14.366814   0.000000   0.000000
   26       14.366896     14.366818   0.000000   0.000000
   27       16.016463     16.017103   0.000000   0.000000
   28       16.209661     16.209651   0.000000   0.000000
   29       16.209664     16.209658   0.000000   0.000000
   30       17.397792     17.397606   0.000000   0.000000
   31       17.397798     17.397622   0.000000   0.000000
   32       21.486576     21.487679   0.000000   0.000000
 
  0.8333333E-01 -0.4620906E-19  0.0000000E+00  0.1041667E-01
    1      -41.519935    -41.519418   1.000000   1.000000
    2      -41.512550    -41.512025   1.000000   1.000000
    3      -41.135547    -41.135408   1.000000   1.000000
    4      -41.129008    -41.128861   1.000000   1.000000
    5      -18.117945    -18.117965   1.000000   1.000000
    6      -17.930517    -17.930544   1.000000   1.000000
    7      -12.996377    -12.996389   1.000000   1.000000
    8      -12.251979    -12.252008   1.000000   1.000000
    9       -3.960315     -3.960307   1.000000   1.000000
   10       -2.148460     -2.148485   1.000000   1.000000
   11       -1.038459     -1.038474   1.000000   1.000000
   12       -0.936546     -0.936563   1.000000   1.000000
   13       -0.815921     -0.815940   1.000000   1.000000
   14       -0.731096     -0.731117   1.000000   1.000000
   15        2.117416      2.117401   1.000000   1.000000
   16        2.246277      2.246261   1.000000   1.000000
   17        2.429690      2.429671   1.000000   1.000000
   18        2.575926      2.575901   1.000000   1.000000
   19        4.758829      4.758841   0.000000   0.000000
   20        6.940222      6.940196   0.000000   0.000000
   21        8.932796      8.932789   0.000000   0.000000
   22        9.387057      9.387111   0.000000   0.000000
   23       11.562655     11.562681   0.000000   0.000000
   24       11.702855     11.702807   0.000000   0.000000
   25       14.065555     14.065499   0.000000   0.000000
   26       14.550362     14.550279   0.000000   0.000000
   27       16.019879     16.020225   0.000000   0.000000
   28       16.411690     16.411678   0.000000   0.000000
   29       16.431334     16.431458   0.000000   0.000000
   30       17.253013     17.252995   0.000000   0.000000
   31       17.415982     17.415799   0.000000   0.000000
   32       21.031760     21.082111   0.000000   0.000000
 
  0.1666667E+00 -0.1370521E-16  0.0000000E+00  0.1041667E-01
    1      -41.516424    -41.515905   1.000000   1.000000
    2      -41.510288    -41.509763   1.000000   1.000000
    3      -41.131713    -41.131574   1.000000   1.000000
    4      -41.126401    -41.126256   1.000000   1.000000
    5      -18.086828    -18.086849   1.000000   1.000000
    6      -17.910964    -17.910990   1.000000   1.000000
    7      -12.910415    -12.910430   1.000000   1.000000
    8      -12.209104    -12.209134   1.000000   1.000000
    9       -3.912557     -3.912551   1.000000   1.000000
   10       -2.185033     -2.185058   1.000000   1.000000
   11       -1.446735     -1.446746   1.000000   1.000000
   12       -1.124816     -1.124831   1.000000   1.000000
   13       -1.098209     -1.098226   1.000000   1.000000
   14       -0.813872     -0.813892   1.000000   1.000000
   15        1.659551      1.659541   1.000000   1.000000
   16        2.042713      2.042704   1.000000   1.000000
   17        2.093968      2.093952   1.000000   1.000000
   18        2.569718      2.569695   1.000000   1.000000
   19        4.912405      4.912407   0.000000   0.000000
   20        6.907844      6.907818   0.000000   0.000000
   21        9.379868      9.379856   0.000000   0.000000
   22        9.784568      9.784615   0.000000   0.000000
   23       11.894411     11.894424   0.000000   0.000000
   24       12.325099     12.325048   0.000000   0.000000
   25       13.583869     13.583825   0.000000   0.000000
   26       15.049919     15.049825   0.000000   0.000000
   27       15.576575     15.576772   0.000000   0.000000
   28       16.905697     16.905609   0.000000   0.000000
   29       16.981929     16.981910   0.000000   0.000000
   30       17.160333     17.160295   0.000000   0.000000
   31       17.458224     17.458041   0.000000   0.000000
   32       19.400202     19.392840   0.000000   0.000000
 
  0.2500000E+00  0.1263692E-18  0.0000000E+00  0.1041667E-01
    1      -41.511667    -41.511146   1.000000   1.000000
    2      -41.507231    -41.506705   1.000000   1.000000
    3      -41.126515    -41.126376   1.000000   1.000000
    4      -41.122863    -41.122719   1.000000   1.000000
    5      -18.041596    -18.041620   1.000000   1.000000
    6      -17.885548    -17.885577   1.000000   1.000000
    7      -12.782342    -12.782360   1.000000   1.000000
    8      -12.157017    -12.157047   1.000000   1.000000
    9       -3.840096     -3.840093   1.000000   1.000000
   10       -2.295003     -2.295023   1.000000   1.000000
   11       -1.896697     -1.896705   1.000000   1.000000
   12       -1.530335     -1.530347   1.000000   1.000000
   13       -1.296164     -1.296179   1.000000   1.000000
   14       -0.936703     -0.936722   1.000000   1.000000
   15        1.135877      1.135875   1.000000   1.000000
   16        1.527047      1.527046   1.000000   1.000000
   17        1.916975      1.916961   1.000000   1.000000
   18        2.535534      2.535514   1.000000   1.000000
   19        5.107454      5.107448   0.000000   0.000000
   20        6.832524      6.832499   0.000000   0.000000
   21        9.905291      9.905277   0.000000   0.000000
   22       10.332794     10.332830   0.000000   0.000000
   23       12.301843     12.301836   0.000000   0.000000
   24       13.161565     13.161514   0.000000   0.000000
   25       13.227028     13.226945   0.000000   0.000000
   26       15.104995     15.105122   0.000000   0.000000
   27       15.706433     15.706319   0.000000   0.000000
   28       16.514418     16.514414   0.000000   0.000000
   29       17.500515     17.500337   0.000000   0.000000
   30       17.709198     17.709186   0.000000   0.000000
   31       17.811455     17.811518   0.000000   0.000000
   32       18.191288     18.191542   0.000000   0.000000
 
  0.3333333E+00  0.8016013E-19  0.0000000E+00  0.1041667E-01
    1      -41.506943    -41.506420   1.000000   1.000000
    2      -41.504213    -41.503688   1.000000   1.000000
    3      -41.121404    -41.121265   1.000000   1.000000
    4      -41.119235    -41.119094   1.000000   1.000000
    5      -17.992026    -17.992052   1.000000   1.000000
    6      -17.862584    -17.862613   1.000000   1.000000
    7      -12.636593    -12.636616   1.000000   1.000000
    8      -12.117485    -12.117515   1.000000   1.000000
    9       -3.755971     -3.755971   1.000000   1.000000
   10       -2.600474     -2.600481   1.000000   1.000000
   11       -2.130643     -2.130656   1.000000   1.000000
   12       -1.902382     -1.902392   1.000000   1.000000
   13       -1.478041     -1.478056   1.000000   1.000000
   14       -1.061869     -1.061886   1.000000   1.000000
   15        0.694522      0.694527   1.000000   1.000000
   16        1.020372      1.020376   1.000000   1.000000
   17        1.758191      1.758179   1.000000   1.000000
   18        2.488920      2.488902   1.000000   1.000000
   19        5.312464      5.312451   0.000000   0.000000
   20        6.716859      6.716835   0.000000   0.000000
   21       10.261686     10.261744   0.000000   0.000000
   22       10.917378     10.917405   0.000000   0.000000
   23       12.655175     12.655149   0.000000   0.000000
   24       13.084923     13.084631   0.000000   0.000000
   25       13.999545     13.999498   0.000000   0.000000
   26       14.789321     14.789384   0.000000   0.000000
   27       16.204551     16.204583   0.000000   0.000000
   28       16.257856     16.257719   0.000000   0.000000
   29       17.339339     17.339509   0.000000   0.000000
   30       17.527860     17.528294   0.000000   0.000000
   31       18.004972     18.004056   0.000000   0.000000
   32       18.706508     18.706722   0.000000   0.000000
 
  0.4166667E+00  0.6260359E-17  0.0000000E+00  0.1041667E-01
    1      -41.503537    -41.503013   1.000000   1.000000
    2      -41.501890    -41.501364   1.000000   1.000000
    3      -41.117634    -41.117495   1.000000   1.000000
    4      -41.116474    -41.116333   1.000000   1.000000
    5      -17.951329    -17.951358   1.000000   1.000000
    6      -17.848530    -17.848559   1.000000   1.000000
    7      -12.510240    -12.510266   1.000000   1.000000
    8      -12.104671    -12.104701   1.000000   1.000000
    9       -3.680183     -3.680187   1.000000   1.000000
   10       -2.913292     -2.913288   1.000000   1.000000
   11       -2.243887     -2.243899   1.000000   1.000000
   12       -2.123591     -2.123604   1.000000   1.000000
   13       -1.603647     -1.603661   1.000000   1.000000
   14       -1.153094     -1.153111   1.000000   1.000000
   15        0.431032      0.431044   1.000000   1.000000
   16        0.632318      0.632323   1.000000   1.000000
   17        1.649543      1.649531   1.000000   1.000000
   18        2.450650      2.450634   1.000000   1.000000
   19        5.488991      5.488973   0.000000   0.000000
   20        6.593342      6.593321   0.000000   0.000000
   21       10.394189     10.394546   0.000000   0.000000
   22       11.342818     11.342846   0.000000   0.000000
   23       12.877806     12.877766   0.000000   0.000000
   24       13.128639     13.127841   0.000000   0.000000
   25       14.600370     14.600338   0.000000   0.000000
   26       14.680677     14.680733   0.000000   0.000000
   27       16.115183     16.115190   0.000000   0.000000
   28       16.517817     16.517666   0.000000   0.000000
   29       16.764311     16.764260   0.000000   0.000000
   30       17.539719     17.539540   0.000000   0.000000
   31       18.200658     18.214634   0.000000   0.000000
   32       19.395011     19.395270   0.000000   0.000000
 
  0.5000000E+00  0.2527384E-18  0.0000000E+00  0.5208333E-02
    1      -41.502268    -41.501742   1.000000   1.000000
    2      -41.501061    -41.500535   1.000000   1.000000
    3      -41.116308    -41.116168   1.000000   1.000000
    4      -41.115395    -41.115254   1.000000   1.000000
    5      -17.934798    -17.934828   1.000000   1.000000
    6      -17.844703    -17.844732   1.000000   1.000000
    7      -12.456707    -12.456734   1.000000   1.000000
    8      -12.106586    -12.106616   1.000000   1.000000
    9       -3.645372     -3.645379   1.000000   1.000000
   10       -3.037644     -3.037636   1.000000   1.000000
   11       -2.305517     -2.305527   1.000000   1.000000
   12       -2.175271     -2.175287   1.000000   1.000000
   13       -1.648274     -1.648288   1.000000   1.000000
   14       -1.186262     -1.186279   1.000000   1.000000
   15        0.366755      0.366776   1.000000   1.000000
   16        0.465430      0.465430   1.000000   1.000000
   17        1.611055      1.611043   1.000000   1.000000
   18        2.436054      2.436038   1.000000   1.000000
   19        5.565318      5.565299   0.000000   0.000000
   20        6.534316      6.534296   0.000000   0.000000
   21       10.416271     10.416684   0.000000   0.000000
   22       11.485472     11.485511   0.000000   0.000000
   23       12.951130     12.951087   0.000000   0.000000
   24       13.187401     13.186357   0.000000   0.000000
   25       14.669751     14.669807   0.000000   0.000000
   26       14.794143     14.794125   0.000000   0.000000
   27       16.316837     16.317037   0.000000   0.000000
   28       16.375072     16.374910   0.000000   0.000000
   29       16.573056     16.572911   0.000000   0.000000
   30       17.542610     17.542422   0.000000   0.000000
   31       18.284872     18.353395   0.000000   0.000000
   32       19.653362     19.661305   0.000000   0.000000
 
  0.8333333E-01  0.8333333E-01  0.0000000E+00  0.1041667E-01
    1      -41.517537    -41.517019   1.000000   1.000000
    2      -41.511015    -41.510490   1.000000   1.000000
    3      -41.132942    -41.132803   1.000000   1.000000
    4      -41.127232    -41.127086   1.000000   1.000000
    5      -18.096910    -18.096931   1.000000   1.000000
    6      -17.917175    -17.917201   1.000000   1.000000
    7      -12.938258    -12.938271   1.000000   1.000000
    8      -12.222373    -12.222403   1.000000   1.000000
    9       -3.927917     -3.927910   1.000000   1.000000
   10       -2.171315     -2.171340   1.000000   1.000000
   11       -1.295543     -1.295556   1.000000   1.000000
   12       -1.158012     -1.158027   1.000000   1.000000
   13       -0.905985     -0.906002   1.000000   1.000000
   14       -0.828567     -0.828588   1.000000   1.000000
   15        1.819494      1.819481   1.000000   1.000000
   16        2.029868      2.029856   1.000000   1.000000
   17        2.288712      2.288699   1.000000   1.000000
   18        2.533587      2.533563   1.000000   1.000000
   19        4.867195      4.867199   0.000000   0.000000
   20        6.920273      6.920246   0.000000   0.000000
   21        9.247396      9.247385   0.000000   0.000000
   22        9.661403      9.661452   0.000000   0.000000
   23       11.795591     11.795609   0.000000   0.000000
   24       12.128550     12.128499   0.000000   0.000000
   25       13.707729     13.707685   0.000000   0.000000
   26       14.876092     14.875999   0.000000   0.000000
   27       15.714010     15.714511   0.000000   0.000000
   28       16.784998     16.785054   0.000000   0.000000
   29       16.979006     16.979013   0.000000   0.000000
   30       17.056059     17.055985   0.000000   0.000000
   31       17.368665     17.368488   0.000000   0.000000
   32       19.865531     19.865775   0.000000   0.000000
 
  0.1666667E+00  0.8333333E-01  0.0000000E+00  0.2083333E-01
    1      -41.513404    -41.512883   1.000000   1.000000
    2      -41.508334    -41.507808   1.000000   1.000000
    3      -41.128420    -41.128281   1.000000   1.000000
    4      -41.124129    -41.123985   1.000000   1.000000
    5      -18.058417    -18.058440   1.000000   1.000000
    6      -17.894717    -17.894745   1.000000   1.000000
    7      -12.830693    -12.830710   1.000000   1.000000
    8      -12.175145    -12.175175   1.000000   1.000000
    9       -3.865839     -3.865834   1.000000   1.000000
   10       -2.236891     -2.236914   1.000000   1.000000
   11       -1.712852     -1.712861   1.000000   1.000000
   12       -1.495434     -1.495445   1.000000   1.000000
   13       -1.110099     -1.110115   1.000000   1.000000
   14       -0.946825     -0.946844   1.000000   1.000000
   15        1.352796      1.352788   1.000000   1.000000
   16        1.667599      1.667596   1.000000   1.000000
   17        2.047035      2.047022   1.000000   1.000000
   18        2.478096      2.478075   1.000000   1.000000
   19        5.044241      5.044238   0.000000   0.000000
   20        6.864643      6.864617   0.000000   0.000000
   21        9.770265      9.770248   0.000000   0.000000
   22       10.140497     10.140539   0.000000   0.000000
   23       12.174163     12.174164   0.000000   0.000000
   24       12.858211     12.858158   0.000000   0.000000
   25       13.323308     13.323270   0.000000   0.000000
   26       15.137935     15.137932   0.000000   0.000000
   27       15.545053     15.545287   0.000000   0.000000
   28       16.745447     16.745419   0.000000   0.000000
   29       17.205173     17.205302   0.000000   0.000000
   30       17.402585     17.402540   0.000000   0.000000
   31       17.609307     17.608981   0.000000   0.000000
   32       18.884858     18.885565   0.000000   0.000000
 
  0.2500000E+00  0.8333333E-01  0.0000000E+00  0.2083333E-01
    1      -41.508662    -41.508139   1.000000   1.000000
    2      -41.505307    -41.504782   1.000000   1.000000
    3      -41.123238    -41.123099   1.000000   1.000000
    4      -41.120566    -41.120424   1.000000   1.000000
    5      -18.010330    -18.010355   1.000000   1.000000
    6      -17.870840    -17.870869   1.000000   1.000000
    7      -12.691781    -12.691801   1.000000   1.000000
    8      -12.130865    -12.130895   1.000000   1.000000
    9       -3.781754     -3.781752   1.000000   1.000000
   10       -2.438683     -2.438698   1.000000   1.000000
   11       -2.060515     -2.060526   1.000000   1.000000
   12       -1.847115     -1.847124   1.000000   1.000000
   13       -1.348046     -1.348061   1.000000   1.000000
   14       -1.064092     -1.064110   1.000000   1.000000
   15        0.888231      0.888230   1.000000   1.000000
   16        1.228594      1.228597   1.000000   1.000000
   17        1.808200      1.808188   1.000000   1.000000
   18        2.417147      2.417128   1.000000   1.000000
   19        5.251005      5.250995   0.000000   0.000000
   20        6.764778      6.764754   0.000000   0.000000
   21       10.273770     10.273781   0.000000   0.000000
   22       10.737986     10.738016   0.000000   0.000000
   23       12.569206     12.569188   0.000000   0.000000
   24       13.084365     13.084288   0.000000   0.000000
   25       13.702233     13.702181   0.000000   0.000000
   26       14.783163     14.783185   0.000000   0.000000
   27       16.068936     16.068983   0.000000   0.000000
   28       16.352398     16.352371   0.000000   0.000000
   29       17.026522     17.026432   0.000000   0.000000
   30       17.777240     17.776795   0.000000   0.000000
   31       18.218304     18.218169   0.000000   0.000000
   32       18.316504     18.316304   0.000000   0.000000
 
  0.3333333E+00  0.8333333E-01  0.0000000E+00  0.2083333E-01
    1      -41.504600    -41.504076   1.000000   1.000000
    2      -41.502621    -41.502095   1.000000   1.000000
    3      -41.118756    -41.118616   1.000000   1.000000
    4      -41.117372    -41.117231   1.000000   1.000000
    5      -17.963721    -17.963749   1.000000   1.000000
    6      -17.853142    -17.853171   1.000000   1.000000
    7      -12.550804    -12.550828   1.000000   1.000000
    8      -12.108859    -12.108889   1.000000   1.000000
    9       -3.690676     -3.690678   1.000000   1.000000
   10       -2.775774     -2.775776   1.000000   1.000000
   11       -2.210097     -2.210111   1.000000   1.000000
   12       -2.128864     -2.128874   1.000000   1.000000
   13       -1.529368     -1.529382   1.000000   1.000000
   14       -1.165573     -1.165590   1.000000   1.000000
   15        0.551759      0.551766   1.000000   1.000000
   16        0.815789      0.815794   1.000000   1.000000
   17        1.636770      1.636761   1.000000   1.000000
   18        2.358461      2.358445   1.000000   1.000000
   19        5.454666      5.454650   0.000000   0.000000
   20        6.635080      6.635057   0.000000   0.000000
   21       10.545159     10.545481   0.000000   0.000000
   22       11.315395     11.315418   0.000000   0.000000
   23       12.874448     12.874414   0.000000   0.000000
   24       13.052502     13.052215   0.000000   0.000000
   25       14.410669     14.410626   0.000000   0.000000
   26       14.571354     14.571378   0.000000   0.000000
   27       16.104620     16.104593   0.000000   0.000000
   28       16.451791     16.451802   0.000000   0.000000
   29       16.836350     16.836312   0.000000   0.000000
   30       17.833477     17.833305   0.000000   0.000000
   31       17.927700     17.927427   0.000000   0.000000
   32       18.960560     18.960047   0.000000   0.000000
 
  0.4166667E+00  0.8333333E-01  0.0000000E+00  0.2083333E-01
    1      -41.502307    -41.501782   1.000000   1.000000
    2      -41.501087    -41.500560   1.000000   1.000000
    3      -41.116299    -41.116159   1.000000   1.000000
    4      -41.115444    -41.115304   1.000000   1.000000
    5      -17.933277    -17.933306   1.000000   1.000000
    6      -17.845921    -17.845950   1.000000   1.000000
    7      -12.453013    -12.453040   1.000000   1.000000
    8      -12.110862    -12.110892   1.000000   1.000000
    9       -3.620252     -3.620258   1.000000   1.000000
   10       -3.006098     -3.006092   1.000000   1.000000
   11       -2.315381     -2.315391   1.000000   1.000000
   12       -2.245086     -2.245100   1.000000   1.000000
   13       -1.623978     -1.623992   1.000000   1.000000
   14       -1.223644     -1.223660   1.000000   1.000000
   15        0.405520      0.405534   1.000000   1.000000
   16        0.543182      0.543184   1.000000   1.000000
   17        1.547216      1.547207   1.000000   1.000000
   18        2.322560      2.322545   1.000000   1.000000
   19        5.598651      5.598632   0.000000   0.000000
   20        6.527754      6.527734   0.000000   0.000000
   21       10.621799     10.622076   0.000000   0.000000
   22       11.645280     11.645303   0.000000   0.000000
   23       13.034475     13.034432   0.000000   0.000000
   24       13.142333     13.141775   0.000000   0.000000
   25       14.515018     14.515040   0.000000   0.000000
   26       14.729255     14.729224   0.000000   0.000000
   27       16.234418     16.234369   0.000000   0.000000
   28       16.565827     16.565754   0.000000   0.000000
   29       16.596118     16.595974   0.000000   0.000000
   30       17.664968     17.664346   0.000000   0.000000
   31       18.072164     18.068147   0.000000   0.000000
   32       19.269855     19.269500   0.000000   0.000000
 
  0.1666667E+00  0.1666667E+00  0.0000000E+00  0.1041667E-01
    1      -41.509264    -41.508741   1.000000   1.000000
    2      -41.505711    -41.505186   1.000000   1.000000
    3      -41.123907    -41.123767   1.000000   1.000000
    4      -41.121015    -41.120872   1.000000   1.000000
    5      -18.016570    -18.016595   1.000000   1.000000
    6      -17.874087    -17.874116   1.000000   1.000000
    7      -12.710709    -12.710729   1.000000   1.000000
    8      -12.136814    -12.136845   1.000000   1.000000
    9       -3.787514     -3.787512   1.000000   1.000000
   10       -2.371683     -2.371704   1.000000   1.000000
   11       -1.985476     -1.985486   1.000000   1.000000
   12       -1.907315     -1.907321   1.000000   1.000000
   13       -1.186782     -1.186800   1.000000   1.000000
   14       -1.166243     -1.166258   1.000000   1.000000
   15        1.000265      1.000259   1.000000   1.000000
   16        1.290986      1.290993   1.000000   1.000000
   17        1.865335      1.865326   1.000000   1.000000
   18        2.309392      2.309373   1.000000   1.000000
   19        5.238596      5.238587   0.000000   0.000000
   20        6.780832      6.780807   0.000000   0.000000
   21       10.357525     10.357500   0.000000   0.000000
   22       10.671265     10.671300   0.000000   0.000000
   23       12.556277     12.556263   0.000000   0.000000
   24       13.074516     13.074547   0.000000   0.000000
   25       13.599122     13.599067   0.000000   0.000000
   26       14.725742     14.725741   0.000000   0.000000
   27       15.982130     15.982268   0.000000   0.000000
   28       16.559886     16.559765   0.000000   0.000000
   29       16.697076     16.697180   0.000000   0.000000
   30       17.633734     17.634321   0.000000   0.000000
   31       18.170981     18.170034   0.000000   0.000000
   32       18.676010     18.677906   0.000000   0.000000
 
  0.2500000E+00  0.1666667E+00  0.0000000E+00  0.2083333E-01
    1      -41.505240    -41.504716   1.000000   1.000000
    2      -41.503046    -41.502520   1.000000   1.000000
    3      -41.119432    -41.119292   1.000000   1.000000
    4      -41.117878    -41.117736   1.000000   1.000000
    5      -17.969810    -17.969837   1.000000   1.000000
    6      -17.856648    -17.856677   1.000000   1.000000
    7      -12.571351    -12.571375   1.000000   1.000000
    8      -12.114390    -12.114421   1.000000   1.000000
    9       -3.682331     -3.682332   1.000000   1.000000
   10       -2.637136     -2.637148   1.000000   1.000000
   11       -2.238691     -2.238696   1.000000   1.000000
   12       -2.179264     -2.179275   1.000000   1.000000
   13       -1.411168     -1.411183   1.000000   1.000000
   14       -1.252368     -1.252383   1.000000   1.000000
   15        0.694098      0.694097   1.000000   1.000000
   16        0.965163      0.965172   1.000000   1.000000
   17        1.610016      1.610010   1.000000   1.000000
   18        2.162878      2.162862   1.000000   1.000000
   19        5.459828      5.459814   0.000000   0.000000
   20        6.655341      6.655318   0.000000   0.000000
   21       10.902384     10.902373   0.000000   0.000000
   22       11.322111     11.322131   0.000000   0.000000
   23       12.934520     12.934490   0.000000   0.000000
   24       12.952725     12.952741   0.000000   0.000000
   25       14.308783     14.308734   0.000000   0.000000
   26       14.383628     14.383616   0.000000   0.000000
   27       16.115608     16.115502   0.000000   0.000000
   28       16.340113     16.340418   0.000000   0.000000
   29       16.690391     16.690414   0.000000   0.000000
   30       17.623083     17.622855   0.000000   0.000000
   31       18.421306     18.420979   0.000000   0.000000
   32       18.591060     18.588403   0.000000   0.000000
 
  0.3333333E+00  0.1666667E+00  0.0000000E+00  0.2083333E-01
    1      -41.502286    -41.501761   1.000000   1.000000
    2      -41.501066    -41.500540   1.000000   1.000000
    3      -41.116172    -41.116032   1.000000   1.000000
    4      -41.115462    -41.115321   1.000000   1.000000
    5      -17.929708    -17.929737   1.000000   1.000000
    6      -17.848295    -17.848325   1.000000   1.000000
    7      -12.445227    -12.445253   1.000000   1.000000
    8      -12.119662    -12.119692   1.000000   1.000000
    9       -3.567835     -3.567839   1.000000   1.000000
   10       -2.915564     -2.915566   1.000000   1.000000
   11       -2.413781     -2.413787   1.000000   1.000000
   12       -2.333430     -2.333442   1.000000   1.000000
   13       -1.559872     -1.559885   1.000000   1.000000
   14       -1.314996     -1.315010   1.000000   1.000000
   15        0.515929      0.515935   1.000000   1.000000
   16        0.707814      0.707819   1.000000   1.000000
   17        1.414373      1.414370   1.000000   1.000000
   18        2.062950      2.062936   1.000000   1.000000
   19        5.663688      5.663670   0.000000   0.000000
   20        6.512851      6.512829   0.000000   0.000000
   21       11.152004     11.151893   0.000000   0.000000
   22       11.953563     11.953579   0.000000   0.000000
   23       13.004681     13.004652   0.000000   0.000000
   24       13.216931     13.216886   0.000000   0.000000
   25       14.202194     14.202177   0.000000   0.000000
   26       14.608506     14.608467   0.000000   0.000000
   27       16.191818     16.191711   0.000000   0.000000
   28       16.557421     16.557794   0.000000   0.000000
   29       16.688204     16.688226   0.000000   0.000000
   30       17.644463     17.644863   0.000000   0.000000
   31       18.136756     18.136540   0.000000   0.000000
   32       18.642886     18.642582   0.000000   0.000000
 
  0.4166667E+00  0.1666667E+00  0.0000000E+00  0.1041667E-01
    1      -41.501224    -41.500699   1.000000   1.000000
    2      -41.500389    -41.499863   1.000000   1.000000
    3      -41.115083    -41.114943   1.000000   1.000000
    4      -41.114540    -41.114400   1.000000   1.000000
    5      -17.912656    -17.912685   1.000000   1.000000
    6      -17.847592    -17.847621   1.000000   1.000000
    7      -12.387576    -12.387604   1.000000   1.000000
    8      -12.132760    -12.132790   1.000000   1.000000
    9       -3.503932     -3.503940   1.000000   1.000000
   10       -3.041998     -3.041995   1.000000   1.000000
   11       -2.457776     -2.457785   1.000000   1.000000
   12       -2.408421     -2.408430   1.000000   1.000000
   13       -1.608357     -1.608370   1.000000   1.000000
   14       -1.338072     -1.338086   1.000000   1.000000
   15        0.475951      0.475965   1.000000   1.000000
   16        0.590817      0.590815   1.000000   1.000000