 running on    8 total cores
 distrk:  each k-point on    8 cores,    1 groups
 distr:  one band on    1 cores,    8 groups
 using from now: INCAR     
 vasp.6.1.2 22Jul20 (build Mar 20 2021 11:25:07) complex                        
  
 POSCAR found type information on POSCAR LiP O 
 POSCAR found :  3 types and      16 ions
 scaLAPACK will be used
 -----------------------------------------------------------------------------
|                                                                             |
|           W    W    AA    RRRRR   N    N  II  N    N   GGGG   !!!           |
|           W    W   A  A   R    R  NN   N  II  NN   N  G    G  !!!           |
|           W    W  A    A  R    R  N N  N  II  N N  N  G       !!!           |
|           W WW W  AAAAAA  RRRRR   N  N N  II  N  N N  G  GGG   !            |
|           WW  WW  A    A  R   R   N   NN  II  N   NN  G    G                |
|           W    W  A    A  R    R  N    N  II  N    N   GGGG   !!!           |
|                                                                             |
|     The value NCORE = 6 specified in the INCAR file was overwritten,        |
|     because it was not compatible with the 8 processes available:           |
|     NCORE = 1                                                               |
|     was used instead, please check that this makes sense for your           |
|     machine.                                                                |
|                                                                             |
 -----------------------------------------------------------------------------

 -----------------------------------------------------------------------------
|                                                                             |
|           W    W    AA    RRRRR   N    N  II  N    N   GGGG   !!!           |
|           W    W   A  A   R    R  NN   N  II  NN   N  G    G  !!!           |
|           W    W  A    A  R    R  N N  N  II  N N  N  G       !!!           |
|           W WW W  AAAAAA  RRRRR   N  N N  II  N  N N  G  GGG   !            |
|           WW  WW  A    A  R   R   N   NN  II  N   NN  G    G                |
|           W    W  A    A  R    R  N    N  II  N    N   GGGG   !!!           |
|                                                                             |
|     For optimal performance we recommend to set                             |
|       NCORE = 4 - approx SQRT(number of cores).                             |
|     NCORE specifies how many cores store one orbital (NPAR=cpu/NCORE).      |
|     This setting can greatly improve the performance of VASP for DFT.       |
|     The default, NCORE=1 might be grossly inefficient on modern             |
|     multi-core architectures or massively parallel machines. Do your        |
|     own testing!!!!                                                         |
|     Unfortunately you need to use the default for GW and RPA                |
|     calculations (for HF NCORE is supported but not extensively tested      |
|     yet).                                                                   |
|                                                                             |
 -----------------------------------------------------------------------------

 LDA part: xc-table for Pade appr. of Perdew
 -----------------------------------------------------------------------------
|                                                                             |
|           W    W    AA    RRRRR   N    N  II  N    N   GGGG   !!!           |
|           W    W   A  A   R    R  NN   N  II  NN   N  G    G  !!!           |
|           W    W  A    A  R    R  N N  N  II  N N  N  G       !!!           |
|           W WW W  AAAAAA  RRRRR   N  N N  II  N  N N  G  GGG   !            |
|           WW  WW  A    A  R   R   N   NN  II  N   NN  G    G                |
|           W    W  A    A  R    R  N    N  II  N    N   GGGG   !!!           |
|                                                                             |
|     The determination of the symmetry of your systems shows a strong        |
|     dependence on the tolerance parameter SYMPREC. This is often the        |
|     result of "noise" in the structural parameters (lattice vectors         |
|     and/or ionic positions). Set NWRITE=3 for more details.                 |
|                                                                             |
 -----------------------------------------------------------------------------

 generate k-points for:    7    6    5
 POSCAR, INCAR and KPOINTS ok, starting setup
 FFT: planning ...
 WAVECAR not read
 entering main loop
       N       E                     dE             d eps       ncg     rms          rms(c)
DAV:   1     0.610683186777E+03    0.61068E+03   -0.36992E+04 10752   0.144E+03
DAV:   2    -0.468342098063E+02   -0.65752E+03   -0.62314E+03 12352   0.384E+02
DAV:   3    -0.103038453245E+03   -0.56204E+02   -0.55898E+02 14944   0.104E+02
DAV:   4    -0.108559004124E+03   -0.55206E+01   -0.54893E+01 17472   0.267E+01
DAV:   5    -0.109015446308E+03   -0.45644E+00   -0.45634E+00 15328   0.564E+00    0.407E+01
RMM:   6    -0.988418910768E+02    0.10174E+02   -0.37376E+01 11690   0.221E+01    0.167E+01
RMM:   7    -0.997959869860E+02   -0.95410E+00   -0.43562E+00 15368   0.795E+00    0.878E+00
RMM:   8    -0.100033949041E+03   -0.23796E+00   -0.87668E-01 17316   0.399E+00    0.428E+00
RMM:   9    -0.100103058054E+03   -0.69109E-01   -0.33842E-01 17374   0.284E+00    0.840E-01
RMM:  10    -0.100134148599E+03   -0.31091E-01   -0.23740E-01 20040   0.169E+00    0.381E-01
RMM:  11    -0.100147742549E+03   -0.13594E-01   -0.10161E-01 20677   0.996E-01    0.315E-01
RMM:  12    -0.100153404921E+03   -0.56624E-02   -0.38954E-02 20876   0.608E-01    0.220E-01
RMM:  13    -0.100155513898E+03   -0.21090E-02   -0.13638E-02 20027   0.415E-01    0.939E-02
RMM:  14    -0.100156348057E+03   -0.83416E-03   -0.72799E-03 20697   0.287E-01    0.252E-02
RMM:  15    -0.100156723857E+03   -0.37580E-03   -0.33129E-03 20397   0.176E-01    0.285E-02
RMM:  16    -0.100156867705E+03   -0.14385E-03   -0.13176E-03 19881   0.112E-01    0.222E-02
RMM:  17    -0.100156917067E+03   -0.49361E-04   -0.49145E-04 19559   0.748E-02    0.128E-02
RMM:  18    -0.100156941458E+03   -0.24392E-04   -0.23957E-04 18890   0.493E-02    0.115E-02
RMM:  19    -0.100156946806E+03   -0.53473E-05   -0.83130E-05 17351   0.346E-02
   1 F= -.10015695E+03 E0= -.10015695E+03  d E =0.000000E+00  mag=    -0.0001
