       N       E                     dE             d eps       ncg     rms          rms(c)
DAV:   1     0.634803637886E+00    0.63480E+00   -0.70108E+02 13404   0.343E+02
DAV:   2    -0.152241452154E+01   -0.21572E+01   -0.21113E+01 18702   0.487E+01
DAV:   3    -0.159467668557E+01   -0.72262E-01   -0.72064E-01 16548   0.647E+00
DAV:   4    -0.159637580071E+01   -0.16991E-02   -0.16976E-02 19818   0.846E-01
DAV:   5    -0.159638567009E+01   -0.98694E-05   -0.98529E-05 17322   0.496E-02    0.545E+00
RMM:   6    -0.181976776134E+01   -0.22338E+00   -0.66265E-02 15451   0.252E+00    0.260E+00
RMM:   7    -0.189630049349E+01   -0.76533E-01   -0.22791E-02 14728   0.160E+00    0.175E-01
RMM:   8    -0.189784441303E+01   -0.15439E-02   -0.91130E-03 16508   0.877E-01    0.906E-02
RMM:   9    -0.189801644180E+01   -0.17203E-03   -0.23015E-03 19450   0.452E-01    0.334E-02
RMM:  10    -0.189842834139E+01   -0.41190E-03   -0.14662E-03 18098   0.362E-01    0.274E-02
RMM:  11    -0.189847987711E+01   -0.51536E-04   -0.28879E-04 20508   0.145E-01    0.212E-02
RMM:  12    -0.189849214695E+01   -0.12270E-04   -0.14258E-04 19478   0.105E-01    0.664E-03
RMM:  13    -0.189850420194E+01   -0.12055E-04   -0.35786E-05 17512   0.601E-02    0.464E-03
RMM:  14    -0.189850655156E+01   -0.23496E-05   -0.15602E-05 13050   0.365E-02
   1 F= -.18985066E+01 E0= -.18985066E+01  d E =0.000000E+00  mag=    -0.0001
