   4   4   1   0
  0.1122064E+02  0.3650690E-09  0.3650690E-09  0.3888635E-09  0.5000000E-15
  1.000000000000000E-004
  CAR 
 unknown system                          
     16.50304969    -46.01169793  301      1.52555807      1.00000000
    -46.012  0.0000E+00  0.0000E+00  0.0000E+00  0.0000E+00
    -45.803  0.0000E+00  0.0000E+00  0.0000E+00  0.0000E+00
    -45.595  0.0000E+00  0.0000E+00  0.0000E+00  0.0000E+00
    -45.387  0.0000E+00  0.0000E+00  0.0000E+00  0.0000E+00
    -45.178  0.0000E+00  0.0000E+00  0.0000E+00  0.0000E+00
    -44.970  0.0000E+00  0.0000E+00  0.0000E+00  0.0000E+00
    -44.761  0.0000E+00  0.0000E+00  0.0000E+00  0.0000E+00
    -44.553  0.0000E+00  0.0000E+00  0.0000E+00  0.0000E+00
    -44.345  0.0000E+00  0.0000E+00  0.0000E+00  0.0000E+00
    -44.136  0.0000E+00  0.0000E+00  0.0000E+00  0.0000E+00
    -43.928  0.0000E+00  0.0000E+00  0.0000E+00  0.0000E+00
    -43.719  0.0000E+00  0.0000E+00  0.0000E+00  0.0000E+00
    -43.511  0.0000E+00  0.0000E+00  0.0000E+00  0.0000E+00
    -43.303  0.0000E+00  0.0000E+00  0.0000E+00  0.0000E+00
    -43.094  0.6524E-01  0.6524E-01  0.3973E-02  0.3973E-02
    -42.886  0.6217E-01  0.6217E-01  0.1687E-01  0.1687E-01
    -42.678  0.0000E+00  0.0000E+00  0.3030E-01  0.3030E-01
    -42.469  0.0000E+00  0.0000E+00  0.3030E-01  0.3030E-01
    -42.261  0.0000E+00  0.0000E+00  0.3030E-01  0.3030E-01
    -42.052  0.0000E+00  0.0000E+00  0.3030E-01  0.3030E-01
    -41.844  0.0000E+00  0.0000E+00  0.3030E-01  0.3030E-01
    -41.636  0.0000E+00  0.0000E+00  0.3030E-01  0.3030E-01
    -41.427  0.0000E+00  0.0000E+00  0.3030E-01  0.3030E-01
    -41.219  0.0000E+00  0.0000E+00  0.3030E-01  0.3030E-01
    -41.011  0.0000E+00  0.0000E+00  0.3030E-01  0.3030E-01
    -40.802  0.0000E+00  0.0000E+00  0.3030E-01  0.3030E-01
    -40.594  0.0000E+00  0.0000E+00  0.3030E-01  0.3030E-01
    -40.385  0.0000E+00  0.0000E+00  0.3030E-01  0.3030E-01
    -40.177  0.0000E+00  0.0000E+00  0.3030E-01  0.3030E-01
    -39.969  0.0000E+00  0.0000E+00  0.3030E-01  0.3030E-01
    -39.760  0.0000E+00  0.0000E+00  0.3030E-01  0.3030E-01
    -39.552  0.0000E+00  0.0000E+00  0.3030E-01  0.3030E-01
    -39.343  0.0000E+00  0.0000E+00  0.3030E-01  0.3030E-01
    -39.135  0.0000E+00  0.0000E+00  0.3030E-01  0.3030E-01
    -38.927  0.0000E+00  0.0000E+00  0.3030E-01  0.3030E-01
    -38.718  0.0000E+00  0.0000E+00  0.3030E-01  0.3030E-01
    -38.510  0.0000E+00  0.0000E+00  0.3030E-01  0.3030E-01
    -38.302  0.0000E+00  0.0000E+00  0.3030E-01  0.3030E-01
    -38.093  0.0000E+00  0.0000E+00  0.3030E-01  0.3030E-01
    -37.885  0.0000E+00  0.0000E+00  0.3030E-01  0.3030E-01
    -37.676  0.0000E+00  0.0000E+00  0.3030E-01  0.3030E-01
    -37.468  0.0000E+00  0.0000E+00  0.3030E-01  0.3030E-01
    -37.260  0.0000E+00  0.0000E+00  0.3030E-01  0.3030E-01
    -37.051  0.0000E+00  0.0000E+00  0.3030E-01  0.3030E-01
    -36.843  0.0000E+00  0.0000E+00  0.3030E-01  0.3030E-01
    -36.634  0.0000E+00  0.0000E+00  0.3030E-01  0.3030E-01
    -36.426  0.0000E+00  0.0000E+00  0.3030E-01  0.3030E-01
    -36.218  0.0000E+00  0.0000E+00  0.3030E-01  0.3030E-01
    -36.009  0.0000E+00  0.0000E+00  0.3030E-01  0.3030E-01
    -35.801  0.0000E+00  0.0000E+00  0.3030E-01  0.3030E-01
    -35.593  0.0000E+00  0.0000E+00  0.3030E-01  0.3030E-01
    -35.384  0.0000E+00  0.0000E+00  0.3030E-01  0.3030E-01
    -35.176  0.0000E+00  0.0000E+00  0.3030E-01  0.3030E-01
    -34.967  0.0000E+00  0.0000E+00  0.3030E-01  0.3030E-01
    -34.759  0.0000E+00  0.0000E+00  0.3030E-01  0.3030E-01
    -34.551  0.0000E+00  0.0000E+00  0.3030E-01  0.3030E-01
    -34.342  0.0000E+00  0.0000E+00  0.3030E-01  0.3030E-01
    -34.134  0.0000E+00  0.0000E+00  0.3030E-01  0.3030E-01
    -33.926  0.0000E+00  0.0000E+00  0.3030E-01  0.3030E-01
    -33.717  0.0000E+00  0.0000E+00  0.3030E-01  0.3030E-01
    -33.509  0.0000E+00  0.0000E+00  0.3030E-01  0.3030E-01
    -33.300  0.0000E+00  0.0000E+00  0.3030E-01  0.3030E-01
    -33.092  0.0000E+00  0.0000E+00  0.3030E-01  0.3030E-01
    -32.884  0.0000E+00  0.0000E+00  0.3030E-01  0.3030E-01
    -32.675  0.0000E+00  0.0000E+00  0.3030E-01  0.3030E-01
    -32.467  0.0000E+00  0.0000E+00  0.3030E-01  0.3030E-01
    -32.258  0.0000E+00  0.0000E+00  0.3030E-01  0.3030E-01
    -32.050  0.0000E+00  0.0000E+00  0.3030E-01  0.3030E-01
    -31.842  0.0000E+00  0.0000E+00  0.3030E-01  0.3030E-01
    -31.633  0.0000E+00  0.0000E+00  0.3030E-01  0.3030E-01
    -31.425  0.0000E+00  0.0000E+00  0.3030E-01  0.3030E-01
    -31.217  0.0000E+00  0.0000E+00  0.3030E-01  0.3030E-01
    -31.008  0.0000E+00  0.0000E+00  0.3030E-01  0.3030E-01
    -30.800  0.0000E+00  0.0000E+00  0.3030E-01  0.3030E-01
    -30.591  0.0000E+00  0.0000E+00  0.3030E-01  0.3030E-01
    -30.383  0.0000E+00  0.0000E+00  0.3030E-01  0.3030E-01
    -30.175  0.0000E+00  0.0000E+00  0.3030E-01  0.3030E-01
    -29.966  0.0000E+00  0.0000E+00  0.3030E-01  0.3030E-01
    -29.758  0.0000E+00  0.0000E+00  0.3030E-01  0.3030E-01
    -29.549  0.0000E+00  0.0000E+00  0.3030E-01  0.3030E-01
    -29.341  0.0000E+00  0.0000E+00  0.3030E-01  0.3030E-01
    -29.133  0.0000E+00  0.0000E+00  0.3030E-01  0.3030E-01
    -28.924  0.0000E+00  0.0000E+00  0.3030E-01  0.3030E-01
    -28.716  0.0000E+00  0.0000E+00  0.3030E-01  0.3030E-01
    -28.508  0.0000E+00  0.0000E+00  0.3030E-01  0.3030E-01
    -28.299  0.0000E+00  0.0000E+00  0.3030E-01  0.3030E-01
    -28.091  0.0000E+00  0.0000E+00  0.3030E-01  0.3030E-01
    -27.882  0.0000E+00  0.0000E+00  0.3030E-01  0.3030E-01
    -27.674  0.0000E+00  0.0000E+00  0.3030E-01  0.3030E-01
    -27.466  0.0000E+00  0.0000E+00  0.3030E-01  0.3030E-01
    -27.257  0.0000E+00  0.0000E+00  0.3030E-01  0.3030E-01
    -27.049  0.0000E+00  0.0000E+00  0.3030E-01  0.3030E-01
    -26.841  0.0000E+00  0.0000E+00  0.3030E-01  0.3030E-01
    -26.632  0.0000E+00  0.0000E+00  0.3030E-01  0.3030E-01
    -26.424  0.0000E+00  0.0000E+00  0.3030E-01  0.3030E-01
    -26.215  0.0000E+00  0.0000E+00  0.3030E-01  0.3030E-01
    -26.007  0.0000E+00  0.0000E+00  0.3030E-01  0.3030E-01
    -25.799  0.0000E+00  0.0000E+00  0.3030E-01  0.3030E-01
    -25.590  0.0000E+00  0.0000E+00  0.3030E-01  0.3030E-01
    -25.382  0.0000E+00  0.0000E+00  0.3030E-01  0.3030E-01
    -25.173  0.0000E+00  0.0000E+00  0.3030E-01  0.3030E-01
    -24.965  0.0000E+00  0.0000E+00  0.3030E-01  0.3030E-01
    -24.757  0.0000E+00  0.0000E+00  0.3030E-01  0.3030E-01
    -24.548  0.0000E+00  0.0000E+00  0.3030E-01  0.3030E-01
    -24.340  0.0000E+00  0.0000E+00  0.3030E-01  0.3030E-01
    -24.132  0.0000E+00  0.0000E+00  0.3030E-01  0.3030E-01
    -23.923  0.0000E+00  0.0000E+00  0.3030E-01  0.3030E-01
    -23.715  0.0000E+00  0.0000E+00  0.3030E-01  0.3030E-01
    -23.506  0.0000E+00  0.0000E+00  0.3030E-01  0.3030E-01
    -23.298  0.0000E+00  0.0000E+00  0.3030E-01  0.3030E-01
    -23.090  0.0000E+00  0.0000E+00  0.3030E-01  0.3030E-01
    -22.881  0.0000E+00  0.0000E+00  0.3030E-01  0.3030E-01
    -22.673  0.0000E+00  0.0000E+00  0.3030E-01  0.3030E-01
    -22.464  0.0000E+00  0.0000E+00  0.3030E-01  0.3030E-01
    -22.256  0.0000E+00  0.0000E+00  0.3030E-01  0.3030E-01
    -22.048  0.0000E+00  0.0000E+00  0.3030E-01  0.3030E-01
    -21.839  0.0000E+00  0.0000E+00  0.3030E-01  0.3030E-01
    -21.631  0.0000E+00  0.0000E+00  0.3030E-01  0.3030E-01
    -21.423  0.0000E+00  0.0000E+00  0.3030E-01  0.3030E-01
    -21.214  0.0000E+00  0.0000E+00  0.3030E-01  0.3030E-01
    -21.006  0.0000E+00  0.0000E+00  0.3030E-01  0.3030E-01
    -20.797  0.0000E+00  0.0000E+00  0.3030E-01  0.3030E-01
    -20.589  0.0000E+00  0.0000E+00  0.3030E-01  0.3030E-01
    -20.381  0.0000E+00  0.0000E+00  0.3030E-01  0.3030E-01
    -20.172  0.0000E+00  0.0000E+00  0.3030E-01  0.3030E-01
    -19.964  0.0000E+00  0.0000E+00  0.3030E-01  0.3030E-01
    -19.756  0.0000E+00  0.0000E+00  0.3030E-01  0.3030E-01
    -19.547  0.0000E+00  0.0000E+00  0.3030E-01  0.3030E-01
    -19.339  0.0000E+00  0.0000E+00  0.3030E-01  0.3030E-01
    -19.130  0.0000E+00  0.0000E+00  0.3030E-01  0.3030E-01
    -18.922  0.0000E+00  0.0000E+00  0.3030E-01  0.3030E-01
    -18.714  0.0000E+00  0.0000E+00  0.3030E-01  0.3030E-01
    -18.505  0.0000E+00  0.0000E+00  0.3030E-01  0.3030E-01
    -18.297  0.0000E+00  0.0000E+00  0.3030E-01  0.3030E-01
    -18.088  0.0000E+00  0.0000E+00  0.3030E-01  0.3030E-01
    -17.880  0.0000E+00  0.0000E+00  0.3030E-01  0.3030E-01
    -17.672  0.0000E+00  0.0000E+00  0.3030E-01  0.3030E-01
    -17.463  0.0000E+00  0.0000E+00  0.3030E-01  0.3030E-01
    -17.255  0.0000E+00  0.0000E+00  0.3030E-01  0.3030E-01
    -17.047  0.0000E+00  0.0000E+00  0.3030E-01  0.3030E-01
    -16.838  0.0000E+00  0.0000E+00  0.3030E-01  0.3030E-01
    -16.630  0.0000E+00  0.0000E+00  0.3030E-01  0.3030E-01
    -16.421  0.0000E+00  0.0000E+00  0.3030E-01  0.3030E-01
    -16.213  0.0000E+00  0.0000E+00  0.3030E-01  0.3030E-01
    -16.005  0.0000E+00  0.0000E+00  0.3030E-01  0.3030E-01
    -15.796  0.0000E+00  0.0000E+00  0.3030E-01  0.3030E-01
    -15.588  0.0000E+00  0.0000E+00  0.3030E-01  0.3030E-01
    -15.379  0.0000E+00  0.0000E+00  0.3030E-01  0.3030E-01
    -15.171  0.0000E+00  0.0000E+00  0.3030E-01  0.3030E-01
    -14.963  0.0000E+00  0.0000E+00  0.3030E-01  0.3030E-01
    -14.754  0.0000E+00  0.0000E+00  0.3030E-01  0.3030E-01
    -14.546  0.0000E+00  0.0000E+00  0.3030E-01  0.3030E-01
    -14.338  0.0000E+00  0.0000E+00  0.3030E-01  0.3030E-01
    -14.129  0.0000E+00  0.0000E+00  0.3030E-01  0.3030E-01
    -13.921  0.0000E+00  0.0000E+00  0.3030E-01  0.3030E-01
    -13.712  0.0000E+00  0.0000E+00  0.3030E-01  0.3030E-01
    -13.504  0.0000E+00  0.0000E+00  0.3030E-01  0.3030E-01
    -13.296  0.0000E+00  0.0000E+00  0.3030E-01  0.3030E-01
    -13.087  0.0000E+00  0.0000E+00  0.3030E-01  0.3030E-01
    -12.879  0.0000E+00  0.0000E+00  0.3030E-01  0.3030E-01
    -12.670  0.0000E+00  0.0000E+00  0.3030E-01  0.3030E-01
    -12.462  0.0000E+00  0.0000E+00  0.3030E-01  0.3030E-01
    -12.254  0.0000E+00  0.0000E+00  0.3030E-01  0.3030E-01
    -12.045  0.0000E+00  0.0000E+00  0.3030E-01  0.3030E-01
    -11.837  0.0000E+00  0.0000E+00  0.3030E-01  0.3030E-01
    -11.629  0.0000E+00  0.0000E+00  0.3030E-01  0.3030E-01
    -11.420  0.0000E+00  0.0000E+00  0.3030E-01  0.3030E-01
    -11.212  0.0000E+00  0.0000E+00  0.3030E-01  0.3030E-01
    -11.003  0.0000E+00  0.0000E+00  0.3030E-01  0.3030E-01
    -10.795  0.0000E+00  0.0000E+00  0.3030E-01  0.3030E-01
    -10.587  0.0000E+00  0.0000E+00  0.3030E-01  0.3030E-01
    -10.378  0.0000E+00  0.0000E+00  0.3030E-01  0.3030E-01
    -10.170  0.0000E+00  0.0000E+00  0.3030E-01  0.3030E-01
     -9.962  0.0000E+00  0.0000E+00  0.4040E-01  0.4040E-01
     -9.753  0.0000E+00  0.0000E+00  0.4040E-01  0.4040E-01
     -9.545  0.0000E+00  0.0000E+00  0.4040E-01  0.4040E-01
     -9.336  0.0000E+00  0.0000E+00  0.4040E-01  0.4040E-01
     -9.128  0.0000E+00  0.0000E+00  0.4040E-01  0.4040E-01
     -8.920  0.0000E+00  0.0000E+00  0.4040E-01  0.4040E-01
     -8.711  0.0000E+00  0.0000E+00  0.4040E-01  0.4040E-01
     -8.503  0.0000E+00  0.0000E+00  0.4040E-01  0.4040E-01
     -8.294  0.0000E+00  0.0000E+00  0.4040E-01  0.4040E-01
     -8.086  0.0000E+00  0.0000E+00  0.4040E-01  0.4040E-01
     -7.878  0.0000E+00  0.0000E+00  0.4040E-01  0.4040E-01
     -7.669  0.0000E+00  0.0000E+00  0.4040E-01  0.4040E-01
     -7.461  0.0000E+00  0.0000E+00  0.4040E-01  0.4040E-01
     -7.253  0.0000E+00  0.0000E+00  0.4040E-01  0.4040E-01
     -7.044  0.0000E+00  0.0000E+00  0.4040E-01  0.4040E-01
     -6.836  0.0000E+00  0.0000E+00  0.4040E-01  0.4040E-01
     -6.627  0.0000E+00  0.0000E+00  0.4040E-01  0.4040E-01
     -6.419  0.0000E+00  0.0000E+00  0.4040E-01  0.4040E-01
     -6.211  0.0000E+00  0.0000E+00  0.4040E-01  0.4040E-01
     -6.002  0.0000E+00  0.0000E+00  0.4040E-01  0.4040E-01
     -5.794  0.0000E+00  0.0000E+00  0.4040E-01  0.4040E-01
     -5.585  0.0000E+00  0.0000E+00  0.4040E-01  0.4040E-01
     -5.377  0.0000E+00  0.0000E+00  0.4040E-01  0.4040E-01
     -5.169  0.0000E+00  0.0000E+00  0.4040E-01  0.4040E-01
     -4.960  0.0000E+00  0.0000E+00  0.4040E-01  0.4040E-01
     -4.752  0.0000E+00  0.0000E+00  0.4040E-01  0.4040E-01
     -4.544  0.0000E+00  0.0000E+00  0.4040E-01  0.4040E-01
     -4.335  0.0000E+00  0.0000E+00  0.4040E-01  0.4040E-01
     -4.127  0.0000E+00  0.0000E+00  0.4040E-01  0.4040E-01
     -3.918  0.0000E+00  0.0000E+00  0.4040E-01  0.4040E-01
     -3.710  0.0000E+00  0.0000E+00  0.4040E-01  0.4040E-01
     -3.502  0.0000E+00  0.0000E+00  0.4040E-01  0.4040E-01
     -3.293  0.0000E+00  0.0000E+00  0.4040E-01  0.4040E-01
     -3.085  0.0000E+00  0.0000E+00  0.4040E-01  0.4040E-01
     -2.877  0.0000E+00  0.0000E+00  0.4040E-01  0.4040E-01
     -2.668  0.0000E+00  0.0000E+00  0.4040E-01  0.4040E-01
     -2.460  0.0000E+00  0.0000E+00  0.4040E-01  0.4040E-01
     -2.251  0.0000E+00  0.0000E+00  0.4040E-01  0.4040E-01
     -2.043  0.0000E+00  0.0000E+00  0.4040E-01  0.4040E-01
     -1.835  0.0000E+00  0.0000E+00  0.4040E-01  0.4040E-01
     -1.626  0.0000E+00  0.0000E+00  0.4040E-01  0.4040E-01
     -1.418  0.0000E+00  0.0000E+00  0.4040E-01  0.4040E-01
     -1.209  0.7666E-03  0.7666E-03  0.4044E-01  0.4044E-01
     -1.001  0.1460E-02  0.1460E-02  0.4067E-01  0.4067E-01
     -0.793  0.7283E-02  0.7283E-02  0.4139E-01  0.4139E-01
     -0.584  0.1168E-01  0.1168E-01  0.4359E-01  0.4359E-01
     -0.376  0.1532E-01  0.1532E-01  0.4663E-01  0.4663E-01
     -0.168  0.1204E-01  0.1204E-01  0.4926E-01  0.4926E-01
      0.041  0.7540E-02  0.7539E-02  0.5176E-01  0.5176E-01
      0.249  0.2342E-01  0.2342E-01  0.5420E-01  0.5420E-01
      0.458  0.1777E-01  0.1778E-01  0.5878E-01  0.5878E-01
      0.666  0.2735E-01  0.2735E-01  0.6532E-01  0.6532E-01
      0.874  0.9905E-02  0.9905E-02  0.6850E-01  0.6850E-01
      1.083  0.5630E-02  0.5630E-02  0.6990E-01  0.6990E-01
      1.291  0.1441E-02  0.1441E-02  0.7066E-01  0.7066E-01
      1.500  0.0000E+00  0.0000E+00  0.7071E-01  0.7071E-01
      1.708  0.0000E+00  0.0000E+00  0.7071E-01  0.7071E-01
      1.916  0.0000E+00  0.0000E+00  0.7071E-01  0.7071E-01
      2.125  0.0000E+00  0.0000E+00  0.7071E-01  0.7071E-01
      2.333  0.0000E+00  0.0000E+00  0.7071E-01  0.7071E-01
      2.541  0.1552E-04  0.1552E-04  0.7071E-01  0.7071E-01
      2.750  0.4267E-03  0.4267E-03  0.7074E-01  0.7074E-01
      2.958  0.1392E-02  0.1392E-02  0.7093E-01  0.7093E-01
      3.167  0.2137E-02  0.2137E-02  0.7130E-01  0.7130E-01
      3.375  0.3359E-02  0.3359E-02  0.7186E-01  0.7186E-01
      3.583  0.4012E-02  0.4012E-02  0.7264E-01  0.7264E-01
      3.792  0.4460E-02  0.4460E-02  0.7352E-01  0.7352E-01
      4.000  0.5770E-02  0.5770E-02  0.7457E-01  0.7457E-01
      4.208  0.9172E-02  0.9172E-02  0.7627E-01  0.7627E-01
      4.417  0.5042E-02  0.5042E-02  0.7756E-01  0.7756E-01
      4.625  0.3926E-02  0.3926E-02  0.7847E-01  0.7847E-01
      4.834  0.3249E-02  0.3249E-02  0.7922E-01  0.7922E-01
      5.042  0.2670E-02  0.2670E-02  0.7983E-01  0.7983E-01
      5.250  0.2337E-02  0.2337E-02  0.8035E-01  0.8035E-01
      5.459  0.2161E-02  0.2161E-02  0.8082E-01  0.8082E-01
      5.667  0.1855E-02  0.1855E-02  0.8123E-01  0.8123E-01
      5.876  0.1715E-02  0.1715E-02  0.8160E-01  0.8160E-01
      6.084  0.2076E-02  0.2076E-02  0.8198E-01  0.8198E-01
      6.292  0.3377E-02  0.3377E-02  0.8253E-01  0.8253E-01
      6.501  0.4773E-02  0.4773E-02  0.8350E-01  0.8350E-01
      6.709  0.4163E-02  0.4163E-02  0.8441E-01  0.8441E-01
      6.917  0.3721E-02  0.3721E-02  0.8524E-01  0.8524E-01
      7.126  0.3290E-02  0.3290E-02  0.8597E-01  0.8597E-01
      7.334  0.2797E-02  0.2797E-02  0.8660E-01  0.8660E-01
      7.543  0.2485E-02  0.2485E-02  0.8715E-01  0.8715E-01
      7.751  0.2327E-02  0.2327E-02  0.8765E-01  0.8765E-01
      7.959  0.2399E-02  0.2399E-02  0.8813E-01  0.8813E-01
      8.168  0.2910E-02  0.2910E-02  0.8869E-01  0.8869E-01
      8.376  0.3861E-02  0.3861E-02  0.8936E-01  0.8936E-01
      8.585  0.3217E-02  0.3217E-02  0.9021E-01  0.9021E-01
      8.793  0.2392E-01  0.2392E-01  0.9158E-01  0.9158E-01
      9.001  0.1282E-01  0.1282E-01  0.9374E-01  0.9374E-01
      9.210  0.1267E-01  0.1267E-01  0.9643E-01  0.9643E-01
      9.418  0.1159E-01  0.1159E-01  0.9904E-01  0.9904E-01
      9.626  0.7806E-02  0.7806E-02  0.1011E+00  0.1011E+00
      9.835  0.6007E-02  0.6007E-02  0.1025E+00  0.1025E+00
     10.043  0.6465E-02  0.6462E-02  0.1038E+00  0.1038E+00
     10.252  0.9018E-02  0.9006E-02  0.1053E+00  0.1053E+00
     10.460  0.7376E-02  0.7367E-02  0.1071E+00  0.1071E+00
     10.668  0.6953E-02  0.6974E-02  0.1085E+00  0.1085E+00
     10.877  0.6063E-02  0.6114E-02  0.1099E+00  0.1099E+00
     11.085  0.5841E-02  0.5870E-02  0.1111E+00  0.1111E+00
     11.293  0.7461E-02  0.7469E-02  0.1124E+00  0.1124E+00
     11.502  0.1235E-01  0.1234E-01  0.1144E+00  0.1144E+00
     11.710  0.9470E-02  0.9373E-02  0.1168E+00  0.1168E+00
     11.919  0.6145E-02  0.5964E-02  0.1185E+00  0.1184E+00
     12.127  0.2464E-02  0.2883E-02  0.1193E+00  0.1193E+00
     12.335  0.1971E-02  0.1964E-02  0.1198E+00  0.1198E+00
     12.544  0.1606E-02  0.1600E-02  0.1202E+00  0.1202E+00
     12.752  0.1414E-02  0.1408E-02  0.1205E+00  0.1205E+00
     12.961  0.1325E-02  0.1321E-02  0.1208E+00  0.1208E+00
     13.169  0.1337E-02  0.1346E-02  0.1210E+00  0.1210E+00
     13.377  0.3202E-03  0.3336E-03  0.1212E+00  0.1212E+00
     13.586  0.2225E-04  0.2307E-04  0.1212E+00  0.1212E+00
     13.794  0.0000E+00  0.0000E+00  0.1212E+00  0.1212E+00
     14.002  0.0000E+00  0.0000E+00  0.1212E+00  0.1212E+00
     14.211  0.0000E+00  0.0000E+00  0.1212E+00  0.1212E+00
     14.419  0.0000E+00  0.0000E+00  0.1212E+00  0.1212E+00
     14.628  0.0000E+00  0.0000E+00  0.1212E+00  0.1212E+00
     14.836  0.0000E+00  0.0000E+00  0.1212E+00  0.1212E+00
     15.044  0.0000E+00  0.0000E+00  0.1212E+00  0.1212E+00
     15.253  0.0000E+00  0.0000E+00  0.1212E+00  0.1212E+00
     15.461  0.0000E+00  0.0000E+00  0.1212E+00  0.1212E+00
     15.670  0.0000E+00  0.0000E+00  0.1212E+00  0.1212E+00
     15.878  0.0000E+00  0.0000E+00  0.1212E+00  0.1212E+00
     16.086  0.0000E+00  0.0000E+00  0.1212E+00  0.1212E+00
     16.295  0.0000E+00  0.0000E+00  0.1212E+00  0.1212E+00
     16.503  0.0000E+00  0.0000E+00  0.1212E+00  0.1212E+00
     16.50304969    -46.01169793  301      1.52555807      1.00000000
    -46.012  0.0000E+00  0.0000E+00  0.0000E+00  0.0000E+00  0.0000E+00  0.0000E+00  0.0000E+00  0.0000E+00  0.0000E+00  0.0000E+00  0.0000E+00  0.0000E+00  0.0000E+00  0.0000E+00  0.0000E+00  0.0000E+00  0.0000E+00  0.0000E+00
    -45.803  0.0000E+00  0.0000E+00  0.0000E+00  0.0000E+00  0.0000E+00  0.0000E+00  0.0000E+00  0.0000E+00  0.0000E+00  0.0000E+00  0.0000E+00  0.0000E+00  0.0000E+00  0.0000E+00  0.0000E+00  0.0000E+00  0.0000E+00  0.0000E+00
    -45.595  0.0000E+00  0.0000E+00  0.0000E+00  0.0000E+00  0.0000E+00  0.0000E+00  0.0000E+00  0.0000E+00  0.0000E+00  0.0000E+00  0.0000E+00  0.0000E+00  0.0000E+00  0.0000E+00  0.0000E+00  0.0000E+00  0.0000E+00  0.0000E+00
    -45.387  0.0000E+00  0.0000E+00  0.0000E+00  0.0000E+00  0.0000E+00  0.0000E+00  0.0000E+00  0.0000E+00  0.0000E+00  0.0000E+00  0.0000E+00  0.0000E+00  0.0000E+00  0.0000E+00  0.0000E+00  0.0000E+00  0.0000E+00  0.0000E+00
    -45.178  0.0000E+00  0.0000E+00  0.0000E+00  0.0000E+00  0.0000E+00  0.0000E+00  0.0000E+00  0.0000E+00  0.0000E+00  0.0000E+00  0.0000E+00  0.0000E+00  0.0000E+00  0.0000E+00  0.0000E+00  0.0000E+00  0.0000E+00  0.0000E+00
    -44.970  0.0000E+00  0.0000E+00  0.0000E+00  0.0000E+00  0.0000E+00  0.0000E+00  0.0000E+00  0.0000E+00  0.0000E+00  0.0000E+00  0.0000E+00  0.0000E+00  0.0000E+00  0.0000E+00  0.0000E+00  0.0000E+00  0.0000E+00  0.0000E+00
    -44.761  0.0000E+00  0.0000E+00  0.0000E+00  0.0000E+00  0.0000E+00  0.0000E+00  0.0000E+00  0.0000E+00  0.0000E+00  0.0000E+00  0.0000E+00  0.0000E+00  0.0000E+00  0.0000E+00  0.0000E+00  0.0000E+00  0.0000E+00  0.0000E+00
    -44.553  0.0000E+00  0.0000E+00  0.0000E+00  0.0000E+00  0.0000E+00  0.0000E+00  0.0000E+00  0.0000E+00  0.0000E+00  0.0000E+00  0.0000E+00  0.0000E+00  0.0000E+00  0.0000E+00  0.0000E+00  0.0000E+00  0.0000E+00  0.0000E+00
    -44.345  0.0000E+00  0.0000E+00  0.0000E+00  0.0000E+00  0.0000E+00  0.0000E+00  0.0000E+00  0.0000E+00  0.0000E+00  0.0000E+00  0.0000E+00  0.0000E+00  0.0000E+00  0.0000E+00  0.0000E+00  0.0000E+00  0.0000E+00  0.0000E+00
    -44.136  0.0000E+00  0.0000E+00  0.0000E+00  0.0000E+00  0.0000E+00  0.0000E+00  0.0000E+00  0.0000E+00  0.0000E+00  0.0000E+00  0.0000E+00  0.0000E+00  0.0000E+00  0.0000E+00  0.0000E+00  0.0000E+00  0.0000E+00  0.0000E+00
    -43.928  0.0000E+00  0.0000E+00  0.0000E+00  0.0000E+00  0.0000E+00  0.0000E+00  0.0000E+00  0.0000E+00  0.0000E+00  0.0000E+00  0.0000E+00  0.0000E+00  0.0000E+00  0.0000E+00  0.0000E+00  0.0000E+00  0.0000E+00  0.0000E+00
    -43.719  0.0000E+00  0.0000E+00  0.0000E+00  0.0000E+00  0.0000E+00  0.0000E+00  0.0000E+00  0.0000E+00  0.0000E+00  0.0000E+00  0.0000E+00  0.0000E+00  0.0000E+00  0.0000E+00  0.0000E+00  0.0000E+00  0.0000E+00  0.0000E+00
    -43.511  0.0000E+00  0.0000E+00  0.0000E+00  0.0000E+00  0.0000E+00  0.0000E+00  0.0000E+00  0.0000E+00  0.0000E+00  0.0000E+00  0.0000E+00  0.0000E+00  0.0000E+00  0.0000E+00  0.0000E+00  0.0000E+00  0.0000E+00  0.0000E+00
    -43.303  0.0000E+00  0.0000E+00  0.0000E+00  0.0000E+00  0.0000E+00  0.0000E+00  0.0000E+00  0.0000E+00  0.0000E+00  0.0000E+00  0.0000E+00  0.0000E+00  0.0000E+00  0.0000E+00  0.0000E+00  0.0000E+00  0.0000E+00  0.0000E+00
    -43.094  0.7221E-02  0.7221E-02  0.6598E-07  0.6598E-07  0.9285E-06  0.9283E-06  0.5413E-06  0.5413E-06  0.0000E+00  0.0000E+00  0.0000E+00  0.0000E+00  0.0000E+00  0.0000E+00  0.0000E+00  0.0000E+00  0.0000E+00  0.0000E+00
    -42.886  0.7294E-03  0.7295E-03  0.2179E-06  0.2179E-06  0.6677E-07  0.6677E-07  0.1802E-07  0.1802E-07  0.0000E+00  0.0000E+00  0.0000E+00  0.0000E+00  0.0000E+00  0.0000E+00  0.0000E+00  0.0000E+00  0.0000E+00  0.0000E+00
    -42.678  0.0000E+00  0.0000E+00  0.0000E+00  0.0000E+00  0.0000E+00  0.0000E+00  0.0000E+00  0.0000E+00  0.0000E+00  0.0000E+00  0.0000E+00  0.0000E+00  0.0000E+00  0.0000E+00  0.0000E+00  0.0000E+00  0.0000E+00  0.0000E+00
    -42.469  0.0000E+00  0.0000E+00  0.0000E+00  0.0000E+00  0.0000E+00  0.0000E+00  0.0000E+00  0.0000E+00  0.0000E+00  0.0000E+00  0.0000E+00  0.0000E+00  0.0000E+00  0.0000E+00  0.0000E+00  0.0000E+00  0.0000E+00  0.0000E+00
    -42.261  0.0000E+00  0.0000E+00  0.0000E+00  0.0000E+00  0.0000E+00  0.0000E+00  0.0000E+00  0.0000E+00  0.0000E+00  0.0000E+00  0.0000E+00  0.0000E+00  0.0000E+00  0.0000E+00  0.0000E+00  0.0000E+00  0.0000E+00  0.0000E+00
    -42.052  0.0000E+00  0.0000E+00  0.0000E+00  0.0000E+00  0.0000E+00  0.0000E+00  0.0000E+00  0.0000E+00  0.0000E+00  0.0000E+00  0.0000E+00  0.0000E+00  0.0000E+00  0.0000E+00  0.0000E+00  0.0000E+00  0.0000E+00  0.0000E+00
    -41.844  0.0000E+00  0.0000E+00  0.0000E+00  0.0000E+00  0.0000E+00  0.0000E+00  0.0000E+00  0.0000E+00  0.0000E+00  0.0000E+00  0.0000E+00  0.0000E+00  0.0000E+00  0.0000E+00  0.0000E+00  0.0000E+00  0.0000E+00  0.0000E+00
    -41.636  0.0000E+00  0.0000E+00  0.0000E+00  0.0000E+00  0.0000E+00  0.0000E+00  0.0000E+00  0.0000E+00  0.0000E+00  0.0000E+00  0.0000E+00  0.0000E+00  0.0000E+00  0.0000E+00  0.0000E+00  0.0000E+00  0.0000E+00  0.0000E+00
    -41.427  0.0000E+00  0.0000E+00  0.0000E+00  0.0000E+00  0.0000E+00  0.0000E+00  0.0000E+00  0.0000E+00  0.0000E+00  0.0000E+00  0.0000E+00  0.0000E+00  0.0000E+00  0.0000E+00  0.0000E+00  0.0000E+00  0.0000E+00  0.0000E+00
    -41.219  0.0000E+00  0.0000E+00  0.0000E+00  0.0000E+00  0.0000E+00  0.0000E+00  0.0000E+00  0.0000E+00  0.0000E+00  0.0000E+00  0.0000E+00  0.0000E+00  0.0000E+00  0.0000E+00  0.0000E+00  0.0000E+00  0.0000E+00  0.0000E+00
    -41.011  0.0000E+00  0.0000E+00  0.0000E+00  0.0000E+00  0.0000E+00  0.0000E+00  0.0000E+00  0.0000E+00  0.0000E+00  0.0000E+00  0.0000E+00  0.0000E+00  0.0000E+00  0.0000E+00  0.0000E+00  0.0000E+00  0.0000E+00  0.0000E+00
    -40.802  0.0000E+00  0.0000E+00  0.0000E+00  0.0000E+00  0.0000E+00  0.0000E+00  0.0000E+00  0.0000E+00  0.0000E+00  0.0000E+00  0.0000E+00  0.0000E+00  0.0000E+00  0.0000E+00  0.0000E+00  0.0000E+00  0.0000E+00  0.0000E+00
    -40.594  0.0000E+00  0.0000E+00  0.0000E+00  0.0000E+00  0.0000E+00  0.0000E+00  0.0000E+00  0.0000E+00  0.0000E+00  0.0000E+00  0.0000E+00  0.0000E+00  0.0000E+00  0.0000E+00  0.0000E+00  0.0000E+00  0.0000E+00  0.0000E+00
    -40.385  0.0000E+00  0.0000E+00  0.0000E+00  0.0000E+00  0.0000E+00  0.0000E+00  0.0000E+00  0.0000E+00  0.0000E+00  0.0000E+00  0.0000E+00  0.0000E+00  0.0000E+00  0.0000E+00  0.0000E+00  0.0000E+00  0.0000E+00  0.0000E+00
    -40.177  0.0000E+00  0.0000E+00  0.0000E+00  0.0000E+00  0.0000E+00  0.0000E+00  0.0000E+00  0.0000E+00  0.0000E+00  0.0000E+00  0.0000E+00  0.0000E+00  0.0000E+00  0.0000E+00  0.0000E+00  0.0000E+00  0.0000E+00  0.0000E+00
    -39.969  0.0000E+00  0.0000E+00  0.0000E+00  0.0000E+00  0.0000E+00  0.0000E+00  0.0000E+00  0.0000E+00  0.0000E+00  0.0000E+00  0.0000E+00  0.0000E+00  0.0000E+00  0.0000E+00  0.0000E+00  0.0000E+00  0.0000E+00  0.0000E+00
    -39.760  0.0000E+00  0.0000E+00  0.0000E+00  0.0000E+00  0.0000E+00  0.0000E+00  0.0000E+00  0.0000E+00  0.0000E+00  0.0000E+00  0.0000E+00  0.0000E+00  0.0000E+00  0.0000E+00  0.0000E+00  0.0000E+00  0.0000E+00  0.0000E+00
    -39.552  0.0000E+00  0.0000E+00  0.0000E+00  0.0000E+00  0.0000E+00  0.0000E+00  0.0000E+00  0.0000E+00  0.0000E+00  0.0000E+00  0.0000E+00  0.0000E+00  0.0000E+00  0.0000E+00  0.0000E+00  0.0000E+00  0.0000E+00  0.0000E+00
    -39.343  0.0000E+00  0.0000E+00  0.0000E+00  0.0000E+00  0.0000E+00  0.0000E+00  0.0000E+00  0.0000E+00  0.0000E+00  0.0000E+00  0.0000E+00  0.0000E+00  0.0000E+00  0.0000E+00  0.0000E+00  0.0000E+00  0.0000E+00  0.0000E+00
    -39.135  0.0000E+00  0.0000E+00  0.0000E+00  0.0000E+00  0.0000E+00  0.0000E+00  0.0000E+00  0.0000E+00  0.0000E+00  0.0000E+00  0.0000E+00  0.0000E+00  0.0000E+00  0.0000E+00  0.0000E+00  0.0000E+00  0.0000E+00  0.0000E+00
    -38.927  0.0000E+00  0.0000E+00  0.0000E+00  0.0000E+00  0.0000E+00  0.0000E+00  0.0000E+00  0.0000E+00  0.0000E+00  0.0000E+00  0.0000E+00  0.0000E+00  0.0000E+00  0.0000E+00  0.0000E+00  0.0000E+00  0.0000E+00  0.0000E+00
    -38.718  0.0000E+00  0.0000E+00  0.0000E+00  0.0000E+00  0.0000E+00  0.0000E+00  0.0000E+00  0.0000E+00  0.0000E+00  0.0000E+00  0.0000E+00  0.0000E+00  0.0000E+00  0.0000E+00  0.0000E+00  0.0000E+00  0.0000E+00  0.0000E+00
    -38.510  0.0000E+00  0.0000E+00  0.0000E+00  0.0000E+00  0.0000E+00  0.0000E+00  0.0000E+00  0.0000E+00  0.0000E+00  0.0000E+00  0.0000E+00  0.0000E+00  0.0000E+00  0.0000E+00  0.0000E+00  0.0000E+00  0.0000E+00  0.0000E+00
    -38.302  0.0000E+00  0.0000E+00  0.0000E+00  0.0000E+00  0.0000E+00  0.0000E+00  0.0000E+00  0.0000E+00  0.0000E+00  0.0000E+00  0.0000E+00  0.0000E+00  0.0000E+00  0.0000E+00  0.0000E+00  0.0000E+00  0.0000E+00  0.0000E+00
    -38.093  0.0000E+00  0.0000E+00  0.0000E+00  0.0000E+00  0.0000E+00  0.0000E+00  0.0000E+00  0.0000E+00  0.0000E+00  0.0000E+00  0.0000E+00  0.0000E+00  0.0000E+00  0.0000E+00  0.0000E+00  0.0000E+00  0.0000E+00  0.0000E+00
    -37.885  0.0000E+00  0.0000E+00  0.0000E+00  0.0000E+00  0.0000E+00  0.0000E+00  0.0000E+00  0.0000E+00  0.0000E+00  0.0000E+00  0.0000E+00  0.0000E+00  0.0000E+00  0.0000E+00  0.0000E+00  0.0000E+00  0.0000E+00  0.0000E+00
    -37.676  0.0000E+00  0.0000E+00  0.0000E+00  0.0000E+00  0.0000E+00  0.0000E+00  0.0000E+00  0.0000E+00  0.0000E+00  0.0000E+00  0.0000E+00  0.0000E+00  0.0000E+00  0.0000E+00  0.0000E+00  0.0000E+00  0.0000E+00  0.0000E+00
    -37.468  0.0000E+00  0.0000E+00  0.0000E+00  0.0000E+00  0.0000E+00  0.0000E+00  0.0000E+00  0.0000E+00  0.0000E+00  0.0000E+00  0.0000E+00  0.0000E+00  0.0000E+00  0.0000E+00  0.0000E+00  0.0000E+00  0.0000E+00  0.0000E+00
    -37.260  0.0000E+00  0.0000E+00  0.0000E+00  0.0000E+00  0.0000E+00  0.0000E+00  0.0000E+00  0.0000E+00  0.0000E+00  0.0000E+00  0.0000E+00  0.0000E+00  0.0000E+00  0.0000E+00  0.0000E+00  0.0000E+00  0.0000E+00  0.0000E+00
    -37.051  0.0000E+00  0.0000E+00  0.0000E+00  0.0000E+00  0.0000E+00  0.0000E+00  0.0000E+00  0.0000E+00  0.0000E+00  0.0000E+00  0.0000E+00  0.0000E+00  0.0000E+00  0.0000E+00  0.0000E+00  0.0000E+00  0.0000E+00  0.0000E+00
    -36.843  0.0000E+00  0.0000E+00  0.0000E+00  0.0000E+00  0.0000E+00  0.0000E+00  0.0000E+00  0.0000E+00  0.0000E+00  0.0000E+00  0.0000E+00  0.0000E+00  0.0000E+00  0.0000E+00  0.0000E+00  0.0000E+00  0.0000E+00  0.0000E+00
    -36.634  0.0000E+00  0.0000E+00  0.0000E+00  0.0000E+00  0.0000E+00  0.0000E+00  0.0000E+00  0.0000E+00  0.0000E+00  0.0000E+00  0.0000E+00  0.0000E+00  0.0000E+00  0.0000E+00  0.0000E+00  0.0000E+00  0.0000E+00  0.0000E+00
    -36.426  0.0000E+00  0.0000E+00  0.0000E+00  0.0000E+00  0.0000E+00  0.0000E+00  0.0000E+00  0.0000E+00  0.0000E+00  0.0000E+00  0.0000E+00  0.0000E+00  0.0000E+00  0.0000E+00  0.0000E+00  0.0000E+00  0.0000E+00  0.0000E+00
    -36.218  0.0000E+00  0.0000E+00  0.0000E+00  0.0000E+00  0.0000E+00  0.0000E+00  0.0000E+00  0.0000E+00  0.0000E+00  0.0000E+00  0.0000E+00  0.0000E+00  0.0000E+00  0.0000E+00  0.0000E+00  0.0000E+00  0.0000E+00  0.0000E+00
    -36.009  0.0000E+00  0.0000E+00  0.0000E+00  0.0000E+00  0.0000E+00  0.0000E+00  0.0000E+00  0.0000E+00  0.0000E+00  0.0000E+00  0.0000E+00  0.0000E+00  0.0000E+00  0.0000E+00  0.0000E+00  0.0000E+00  0.0000E+00  0.0000E+00
    -35.801  0.0000E+00  0.0000E+00  0.0000E+00  0.0000E+00  0.0000E+00  0.0000E+00  0.0000E+00  0.0000E+00  0.0000E+00  0.0000E+00  0.0000E+00  0.0000E+00  0.0000E+00  0.0000E+00  0.0000E+00  0.0000E+00  0.0000E+00  0.0000E+00
    -35.593  0.0000E+00  0.0000E+00  0.0000E+00  0.0000E+00  0.0000E+00  0.0000E+00  0.0000E+00  0.0000E+00  0.0000E+00  0.0000E+00  0.0000E+00  0.0000E+00  0.0000E+00  0.0000E+00  0.0000E+00  0.0000E+00  0.0000E+00  0.0000E+00