    4    4   99    2
  0.1122064E+02  0.3650690E-09  0.3650690E-09  0.3888635E-09  0.5000000E-15
  1.000000000000000E-004
  CAR 
 unknown system                          
     14     70     12
 
  0.0000000E+00  0.0000000E+00  0.0000000E+00  0.1250000E-02
    1      -43.170118    -43.170116   1.000000   1.000000
    2      -42.823923    -42.823921   1.000000   1.000000
    3      -42.694693    -42.694695   1.000000   1.000000
    4      -10.105974    -10.105976   1.000000   1.000000
    5       -0.178128     -0.178128   1.000000   1.000000
    6        1.168312      1.168309   1.000000   1.000000
    7        1.168334      1.168330   1.000000   1.000000
    8        2.435842      2.435843   0.000000   0.000000
    9        8.686456      8.686459   0.000000   0.000000
   10        8.686515      8.686518   0.000000   0.000000
   11        9.652641      9.652642   0.000000   0.000000
   12       13.661358     13.661470   0.000000   0.000000
 
  0.1000000E+00  0.2081668E-16  0.0000000E+00  0.7500000E-02
    1      -43.162351    -43.162349   1.000000   1.000000
    2      -42.831228    -42.831226   1.000000   1.000000
    3      -42.694673    -42.694676   1.000000   1.000000
    4      -10.095719    -10.095722   1.000000   1.000000
    5       -0.111898     -0.111898   1.000000   1.000000
    6        0.777475      0.777472   1.000000   1.000000
    7        1.048427      1.048423   1.000000   1.000000
    8        2.807865      2.807865   0.000000   0.000000
    9        8.715842      8.715844   0.000000   0.000000
   10        8.971897      8.971899   0.000000   0.000000
   11        9.533929      9.533931   0.000000   0.000000
   12       13.426868     13.427167   0.000000   0.000000
 
  0.2000000E+00  0.4163336E-16  0.0000000E+00  0.7500000E-02
    1      -43.140226    -43.140224   1.000000   1.000000
    2      -42.852403    -42.852401   1.000000   1.000000
    3      -42.694741    -42.694743   1.000000   1.000000
    4      -10.069107    -10.069110   1.000000   1.000000
    5        0.070018      0.070018   1.000000   1.000000
    6        0.127184      0.127182   1.000000   1.000000
    7        0.763582      0.763579   1.000000   1.000000
    8        3.464455      3.464455   0.000000   0.000000
    9        8.553150      8.553151   0.000000   0.000000
   10        9.225764      9.225765   0.000000   0.000000
   11        9.673459      9.673461   0.000000   0.000000
   12       13.158179     13.158164   0.000000   0.000000
 
  0.3000000E+00  0.2775558E-16  0.0000000E+00  0.7500000E-02
    1      -43.107303    -43.107301   1.000000   1.000000
    2      -42.884135    -42.884133   1.000000   1.000000
    3      -42.694850    -42.694852   1.000000   1.000000
    4      -10.036094    -10.036097   1.000000   1.000000
    5       -0.438762     -0.438764   1.000000   1.000000
    6        0.314817      0.314817   1.000000   1.000000
    7        0.455770      0.455768   1.000000   1.000000
    8        4.197723      4.197723   0.000000   0.000000
    9        7.900046      7.900045   0.000000   0.000000
   10        8.838561      8.838563   0.000000   0.000000
   11       10.373523     10.373523   0.000000   0.000000
   12       13.304264     13.311226   0.000000   0.000000
 
  0.4000000E+00  0.8326673E-16  0.0000000E+00  0.7500000E-02
    1      -43.071279    -43.071277   1.000000   1.000000
    2      -42.919223    -42.919221   1.000000   1.000000
    3      -42.695004    -42.695006   1.000000   1.000000
    4      -10.009403    -10.009407   1.000000   1.000000
    5       -0.810202     -0.810203   1.000000   1.000000
    6        0.233491      0.233489   1.000000   1.000000
    7        0.532807      0.532806   1.000000   1.000000
    8        5.017298      5.017297   0.000000   0.000000
    9        6.945133      6.945119   0.000000   0.000000
   10        8.507643      8.507644   0.000000   0.000000
   11       10.707464     10.707465   0.000000   0.000000
   12       12.771711     12.771799   0.000000   0.000000
 
  0.5000000E+00  0.5551115E-16  0.0000000E+00  0.3750000E-02
    1      -43.051899    -43.051897   1.000000   1.000000
    2      -42.938208    -42.938206   1.000000   1.000000
    3      -42.695040    -42.695042   1.000000   1.000000
    4       -9.999163     -9.999167   1.000000   1.000000
    5       -0.938747     -0.938748   1.000000   1.000000
    6        0.153717      0.153715   1.000000   1.000000
    7        0.621764      0.621764   1.000000   1.000000
    8        5.858114      5.858115   0.000000   0.000000
    9        6.030314      6.030312   0.000000   0.000000
   10        8.374400      8.374402   0.000000   0.000000
   11       10.775942     10.775942   0.000000   0.000000
   12       12.477501     12.477453   0.000000   0.000000
 
  0.1000000E+00  0.1000000E+00  0.0000000E+00  0.7500000E-02
    1      -43.147392    -43.147390   1.000000   1.000000
    2      -42.845501    -42.845499   1.000000   1.000000
    3      -42.694709    -42.694712   1.000000   1.000000
    4      -10.077315    -10.077318   1.000000   1.000000
    5        0.012324      0.012324   1.000000   1.000000
    6        0.311870      0.311868   1.000000   1.000000
    7        0.830735      0.830732   1.000000   1.000000
    8        3.285705      3.285705   0.000000   0.000000
    9        8.700406      8.700420   0.000000   0.000000
   10        9.326174      9.326175   0.000000   0.000000
   11        9.389989      9.389992   0.000000   0.000000
   12       13.221435     13.217866   0.000000   0.000000
 
  0.2000000E+00  0.1000000E+00  0.0000000E+00  0.1500000E-01
    1      -43.119669    -43.119667   1.000000   1.000000
    2      -42.872207    -42.872205   1.000000   1.000000
    3      -42.694841    -42.694843   1.000000   1.000000
    4      -10.047652    -10.047655   1.000000   1.000000
    5       -0.226053     -0.226054   1.000000   1.000000
    6        0.226820      0.226820   1.000000   1.000000
    7        0.507544      0.507541   1.000000   1.000000
    8        3.950549      3.950549   0.000000   0.000000
    9        8.342243      8.342251   0.000000   0.000000
   10        9.009105      9.009107   0.000000   0.000000
   11        9.881959      9.881959   0.000000   0.000000
   12       13.256767     13.254614   0.000000   0.000000
 
  0.3000000E+00  0.1000000E+00  0.0000000E+00  0.1500000E-01
    1      -43.083960    -43.083958   1.000000   1.000000
    2      -42.906739    -42.906737   1.000000   1.000000
    3      -42.694968    -42.694971   1.000000   1.000000
    4      -10.018000    -10.018003   1.000000   1.000000
    5       -0.648963     -0.648964   1.000000   1.000000
    6        0.222649      0.222647   1.000000   1.000000
    7        0.461289      0.461289   1.000000   1.000000
    8        4.718616      4.718616   0.000000   0.000000
    9        7.529277      7.529276   0.000000   0.000000
   10        8.703065      8.703066   0.000000   0.000000
   11       10.185193     10.185197   0.000000   0.000000
   12       12.630451     12.630441   0.000000   0.000000
 
  0.4000000E+00  0.1000000E+00  0.0000000E+00  0.1500000E-01
    1      -43.052049    -43.052047   1.000000   1.000000
    2      -42.938024    -42.938022   1.000000   1.000000
    3      -42.695112    -42.695115   1.000000   1.000000
    4       -9.999747     -9.999750   1.000000   1.000000
    5       -0.876712     -0.876713   1.000000   1.000000
    6        0.061859      0.061857   1.000000   1.000000
    7        0.618369      0.618369   1.000000   1.000000
    8        5.587549      5.587549   0.000000   0.000000
    9        6.547390      6.547391   0.000000   0.000000
   10        8.512713      8.512715   0.000000   0.000000
   11       10.282533     10.282545   0.000000   0.000000
   12       11.995670     11.995671   0.000000   0.000000
 
  0.2000000E+00  0.2000000E+00  0.0000000E+00  0.7500000E-02
    1      -43.088367    -43.088365   1.000000   1.000000
    2      -42.902381    -42.902379   1.000000   1.000000
    3      -42.694981    -42.694983   1.000000   1.000000
    4      -10.021480    -10.021483   1.000000   1.000000
    5       -0.542842     -0.542843   1.000000   1.000000
    6        0.160805      0.160803   1.000000   1.000000
    7        0.433537      0.433537   1.000000   1.000000
    8        4.636248      4.636247   0.000000   0.000000
    9        7.954989      7.954988   0.000000   0.000000
   10        8.833932      8.833934   0.000000   0.000000
   11        9.655042      9.655045   0.000000   0.000000
   12       12.391507     12.391512   0.000000   0.000000
 
  0.3000000E+00  0.2000000E+00  0.0000000E+00  0.1500000E-01
    1      -43.052261    -43.052259   1.000000   1.000000
    2      -42.937627    -42.937625   1.000000   1.000000
    3      -42.695168    -42.695171   1.000000   1.000000
    4      -10.000574    -10.000577   1.000000   1.000000
    5       -0.742759     -0.742761   1.000000   1.000000
    6       -0.118779     -0.118781   1.000000   1.000000
    7        0.612902      0.612902   1.000000   1.000000
    8        5.443899      5.443899   0.000000   0.000000
    9        7.238880      7.238880   0.000000   0.000000
   10        8.794745      8.794747   0.000000   0.000000
   11        9.428736      9.428758   0.000000   0.000000
   12       11.292612     11.292613   0.000000   0.000000
 
  0.4000000E+00  0.2000000E+00  0.0000000E+00  0.7500000E-02
    1      -43.029975    -43.029973   1.000000   1.000000
    2      -42.959607    -42.959605   1.000000   1.000000
    3      -42.695260    -42.695262   1.000000   1.000000
    4       -9.992676     -9.992680   1.000000   1.000000
    5       -0.808312     -0.808313   1.000000   1.000000
    6       -0.225224     -0.225226   1.000000   1.000000
    7        0.684667      0.684667   1.000000   1.000000
    8        6.226056      6.226054   0.000000   0.000000
    9        6.454374      6.454374   0.000000   0.000000
   10        8.823398      8.823399   0.000000   0.000000
   11        9.360167      9.360167   0.000000   0.000000
   12       10.858689     10.858691   0.000000   0.000000
 
  0.3000000E+00  0.3000000E+00  0.0000000E+00  0.7500000E-02
    1      -43.016525    -43.016523   1.000000   1.000000
    2      -42.972842    -42.972840   1.000000   1.000000
    3      -42.695324    -42.695326   1.000000   1.000000
    4       -9.990157     -9.990160   1.000000   1.000000
    5       -0.690170     -0.690172   1.000000   1.000000
    6       -0.430433     -0.430435   1.000000   1.000000
    7        0.709172      0.709172   1.000000   1.000000
    8        6.223193      6.223193   0.000000   0.000000
    9        6.883320      6.883319   0.000000   0.000000
   10        8.786967      8.786968   0.000000   0.000000
   11        9.197469      9.197471   0.000000   0.000000
   12       10.167314     10.167316   0.000000   0.000000
 
  0.0000000E+00  0.0000000E+00  0.1250000E+00  0.2500000E-02
    1      -43.169730    -43.169728   1.000000   1.000000
    2      -42.823875    -42.823873   1.000000   1.000000
    3      -42.694956    -42.694958   1.000000   1.000000
    4      -10.113975    -10.113978   1.000000   1.000000
    5       -0.437804     -0.437804   1.000000   1.000000
    6        1.196900      1.196896   1.000000   1.000000
    7        1.196921      1.196918   1.000000   1.000000
    8        2.882407      2.882407   0.000000   0.000000
    9        8.781442      8.781445   0.000000   0.000000
   10        8.781502      8.781505   0.000000   0.000000
   11        9.462001      9.462004   0.000000   0.000000
   12       13.284867     13.284961   0.000000   0.000000
 
  0.1000000E+00  0.2081668E-16  0.1250000E+00  0.1500000E-01
    1      -43.162019    -43.162017   1.000000   1.000000
    2      -42.831239    -42.831237   1.000000   1.000000
    3      -42.694957    -42.694959   1.000000   1.000000
    4      -10.104511    -10.104514   1.000000   1.000000
    5       -0.375242     -0.375241   1.000000   1.000000
    6        0.893630      0.893627   1.000000   1.000000
    7        1.078768      1.078764   1.000000   1.000000
    8        3.153023      3.153023   0.000000   0.000000
    9        8.797100      8.797102   0.000000   0.000000
   10        9.063054      9.063056   0.000000   0.000000
   11        9.368186      9.368183   0.000000   0.000000
   12       13.094112     13.115625   0.000000   0.000000
 
  0.2000000E+00  0.4163336E-16  0.1250000E+00  0.1500000E-01
    1      -43.139940    -43.139937   1.000000   1.000000
    2      -42.852356    -42.852354   1.000000   1.000000
    3      -42.694921    -42.694923   1.000000   1.000000
    4      -10.079662    -10.079665   1.000000   1.000000
    5       -0.252716     -0.252716   1.000000   1.000000
    6        0.388852      0.388850   1.000000   1.000000
    7        0.797627      0.797624   1.000000   1.000000
    8        3.667083      3.667083   0.000000   0.000000
    9        8.421303      8.421301   0.000000   0.000000
   10        9.325607      9.325610   0.000000   0.000000
   11        9.742591      9.742593   0.000000   0.000000
   12       12.674537     12.675511   0.000000   0.000000
 
  0.3000000E+00  0.2775558E-16  0.1250000E+00  0.1500000E-01
    1      -43.107082    -43.107080   1.000000   1.000000
    2      -42.884111    -42.884109   1.000000   1.000000
    3      -42.694943    -42.694946   1.000000   1.000000
    4      -10.049074    -10.049077   1.000000   1.000000
    5       -0.427320     -0.427322   1.000000   1.000000
    6        0.314589      0.314589   1.000000   1.000000
    7        0.493229      0.493226   1.000000   1.000000
    8        4.219918      4.219917   0.000000   0.000000
    9        7.549287      7.549287   0.000000   0.000000
   10        9.315528      9.315529   0.000000   0.000000
   11       10.349377     10.349378   0.000000   0.000000
   12       12.384062     12.384051   0.000000   0.000000
 
  0.4000000E+00  0.8326673E-16  0.1250000E+00  0.1500000E-01
    1      -43.071105    -43.071102   1.000000   1.000000
    2      -42.919164    -42.919162   1.000000   1.000000
    3      -42.694971    -42.694973   1.000000   1.000000
    4      -10.024376    -10.024379   1.000000   1.000000
    5       -0.730648     -0.730649   1.000000   1.000000
    6        0.273110      0.273108   1.000000   1.000000
    7        0.527566      0.527566   1.000000   1.000000
    8        4.789986      4.789986   0.000000   0.000000
    9        6.591453      6.591454   0.000000   0.000000
   10        9.293270      9.293270   0.000000   0.000000
   11       10.543651     10.543651   0.000000   0.000000
   12       11.944209     11.944249   0.000000   0.000000
 
  0.5000000E+00  0.5551115E-16  0.1250000E+00  0.7500000E-02
    1      -43.051830    -43.051828   1.000000   1.000000
    2      -42.938114    -42.938112   1.000000   1.000000
    3      -42.695022    -42.695024   1.000000   1.000000
    4      -10.014968    -10.014971   1.000000   1.000000
    5       -0.846115     -0.846116   1.000000   1.000000
    6        0.194059      0.194057   1.000000   1.000000
    7        0.631022      0.631022   1.000000   1.000000
    8        5.203502      5.203502   0.000000   0.000000
    9        6.014406      6.014408   0.000000   0.000000
   10        9.293909      9.293912   0.000000   0.000000
   11       10.557711     10.557712   0.000000   0.000000
   12       11.708629     11.708751   0.000000   0.000000
 
  0.1000000E+00  0.1000000E+00  0.1250000E+00  0.1500000E-01
    1      -43.147072    -43.147070   1.000000   1.000000
    2      -42.845456    -42.845453   1.000000   1.000000
    3      -42.694890    -42.694893   1.000000   1.000000
    4      -10.087300    -10.087303   1.000000   1.000000
    5       -0.277379     -0.277379   1.000000   1.000000
    6        0.519943      0.519941   1.000000   1.000000
    7        0.865057      0.865054   1.000000   1.000000
    8        3.526512      3.526512   0.000000   0.000000
    9        8.777132      8.777132   0.000000   0.000000
   10        9.012147      9.012149   0.000000   0.000000
   11        9.652157      9.652158   0.000000   0.000000
   12       12.665820     12.665805   0.000000   0.000000
 
  0.2000000E+00  0.1000000E+00  0.1250000E+00  0.3000000E-01
    1      -43.119419    -43.119417   1.000000   1.000000
    2      -42.872176    -42.872174   1.000000   1.000000
    3      -42.694962    -42.694965   1.000000   1.000000
    4      -10.059769    -10.059772   1.000000   1.000000
    5       -0.298292     -0.298293   1.000000   1.000000
    6        0.284667      0.284666   1.000000   1.000000
    7        0.548240      0.548237   1.000000   1.000000
    8        4.035452      4.035451   0.000000   0.000000
    9        8.156846      8.156847   0.000000   0.000000
   10        8.979879      8.979882   0.000000   0.000000
   11       10.170751     10.170752   0.000000   0.000000
   12       12.326693     12.326723   0.000000   0.000000
 
  0.3000000E+00  0.1000000E+00  0.1250000E+00  0.3000000E-01
    1      -43.083820    -43.083817   1.000000   1.000000
    2      -42.906699    -42.906697   1.000000   1.000000
    3      -42.694997    -42.695000   1.000000   1.000000
    4      -10.032341    -10.032344   1.000000   1.000000
    5       -0.589551     -0.589552   1.000000   1.000000
    6        0.263529      0.263527   1.000000   1.000000
    7        0.457574      0.457574   1.000000   1.000000
    8        4.584627      4.584626   0.000000   0.000000
    9        7.180636      7.180632   0.000000   0.000000
   10        9.091020      9.091022   0.000000   0.000000
   11       10.287012     10.287009   0.000000   0.000000
   12       12.076246     12.076261   0.000000   0.000000
 
  0.4000000E+00  0.1000000E+00  0.1250000E+00  0.3000000E-01
    1      -43.051927    -43.051925   1.000000   1.000000
    2      -42.937896    -42.937894   1.000000   1.000000
    3      -42.695022    -42.695024   1.000000   1.000000
    4      -10.015450    -10.015453   1.000000   1.000000
    5       -0.788269     -0.788271   1.000000   1.000000
    6        0.106494      0.106492   1.000000   1.000000
    7        0.631238      0.631238   1.000000   1.000000
    8        5.133707      5.133706   0.000000   0.000000
    9        6.315013      6.315013   0.000000   0.000000
   10        9.312465      9.312466   0.000000   0.000000
   11       10.023055     10.023055   0.000000   0.000000
   12       11.830403     11.830406   0.000000   0.000000
 
  0.2000000E+00  0.2000000E+00  0.1250000E+00  0.1500000E-01
    1      -43.088221    -43.088218   1.000000   1.000000
    2      -42.902286    -42.902284   1.000000   1.000000
    3      -42.694997    -42.694999   1.000000   1.000000
    4      -10.035503    -10.035506   1.000000   1.000000
    5       -0.500037     -0.500038   1.000000   1.000000
    6        0.211040      0.211038   1.000000   1.000000
    7        0.433429      0.433429   1.000000   1.000000
    8        4.524309      4.524308   0.000000   0.000000
    9        7.753238      7.753238   0.000000   0.000000
   10        8.556564      8.556565   0.000000   0.000000
   11       10.287401     10.287398   0.000000   0.000000
   12       11.900522     11.900539   0.000000   0.000000
 
  0.3000000E+00  0.2000000E+00  0.1250000E+00  0.3000000E-01
    1      -43.052154    -43.052151   1.000000   1.000000
    2      -42.937540    -42.937538   1.000000   1.000000
    3      -42.695086    -42.695088   1.000000   1.000000
    4      -10.016271    -10.016275   1.000000   1.000000
    5       -0.664893     -0.664894   1.000000   1.000000
    6       -0.061630     -0.061632   1.000000   1.000000
    7        0.629178      0.629178   1.000000   1.000000
    8        5.071361      5.071361   0.000000   0.000000
    9        6.885229      6.885229   0.000000   0.000000
   10        8.773710      8.773711   0.000000   0.000000
   11       10.027058     10.027058   0.000000   0.000000
   12       11.418412     11.418414   0.000000   0.000000
 
  0.4000000E+00  0.2000000E+00  0.1250000E+00  0.1500000E-01
    1      -43.029925    -43.029922   1.000000   1.000000
    2      -42.959506    -42.959504   1.000000   1.000000
    3      -42.695151    -42.695153   1.000000   1.000000
    4      -10.009040    -10.009043   1.000000   1.000000
    5       -0.721289     -0.721291   1.000000   1.000000
    6       -0.166079     -0.166081   1.000000   1.000000
    7        0.713904      0.713904   1.000000   1.000000
    8        5.484135      5.484134   0.000000   0.000000
    9        6.307570      6.307570   0.000000   0.000000
   10        9.140950      9.140951   0.000000   0.000000
   11        9.631128      9.631129   0.000000   0.000000
   12       11.235427     11.235428   0.000000   0.000000
 
  0.3000000E+00  0.3000000E+00  0.1250000E+00  0.1500000E-01
    1      -43.016448    -43.016446   1.000000   1.000000
    2      -42.972763    -42.972761   1.000000   1.000000
    3      -42.695192    -42.695195   1.000000   1.000000
    4      -10.006756    -10.006760   1.000000   1.000000
    5       -0.609290     -0.609291   1.000000   1.000000
    6       -0.359537     -0.359539   1.000000   1.000000
    7        0.744146      0.744145   1.000000   1.000000
    8        5.637616      5.637616   0.000000   0.000000
    9        6.361954      6.361954   0.000000   0.000000
   10        8.793807      8.793808   0.000000   0.000000
   11        9.999503      9.999504   0.000000   0.000000
   12       10.623468     10.623469   0.000000   0.000000
 
  0.0000000E+00  0.0000000E+00  0.2500000E+00  0.2500000E-02
    1      -43.168754    -43.168751   1.000000   1.000000
    2      -42.823861    -42.823859   1.000000   1.000000
    3      -42.695600    -42.695603   1.000000   1.000000
    4      -10.133515    -10.133518   1.000000   1.000000
    5       -0.887391     -0.887391   1.000000   1.000000
    6        1.267667      1.267663   1.000000   1.000000
    7        1.267688      1.267685   1.000000   1.000000
    8        3.845825      3.845825   0.000000   0.000000
    9        8.987607      8.987627   0.000000   0.000000
   10        9.036697      9.036700   0.000000   0.000000
   11        9.036761      9.036763   0.000000   0.000000
   12       12.545007     12.545001   0.000000   0.000000
 
  0.1000000E+00  0.2081668E-16  0.2500000E+00  0.1500000E-01
    1      -43.161079    -43.161077   1.000000   1.000000
    2      -42.831185    -42.831183   1.000000   1.000000
    3      -42.695505    -42.695508   1.000000   1.000000
    4      -10.125588    -10.125591   1.000000   1.000000
    5       -0.803821     -0.803820   1.000000   1.000000
    6        1.047042      1.047038   1.000000   1.000000
    7        1.153998      1.153995   1.000000   1.000000
    8        3.953716      3.953716   0.000000   0.000000
    9        8.828621      8.828618   0.000000   0.000000
   10        9.193178      9.193176   0.000000   0.000000
   11        9.312212      9.312214   0.000000   0.000000
   12       12.261671     12.258268   0.000000   0.000000
 
  0.2000000E+00  0.4163336E-16  0.2500000E+00  0.1500000E-01
    1      -43.139173    -43.139171   1.000000   1.000000
    2      -42.852284    -42.852282   1.000000   1.000000
    3      -42.695308    -42.695310   1.000000   1.000000
    4      -10.105101    -10.105104   1.000000   1.000000
    5       -0.583084     -0.583084   1.000000   1.000000
    6        0.599026      0.599024   1.000000   1.000000
    7        0.882362      0.882359   1.000000   1.000000
    8        4.124422      4.124422   0.000000   0.000000
    9        8.262026      8.262035   0.000000   0.000000
   10        9.522761      9.522761   0.000000   0.000000
   11        9.931147      9.931149   0.000000   0.000000
   12       11.587853     11.588010   0.000000   0.000000
 
  0.3000000E+00  0.2775558E-16  0.2500000E+00  0.1500000E-01
    1      -43.106554    -43.106552   1.000000   1.000000
    2      -42.884007    -42.884005   1.000000   1.000000
    3      -42.695125    -42.695128   1.000000   1.000000
    4      -10.080153    -10.080156   1.000000   1.000000
    5       -0.400159     -0.400159   1.000000   1.000000
    6        0.324247      0.324245   1.000000   1.000000
    7        0.586806      0.586803   1.000000   1.000000
    8        4.173953      4.173953   0.000000   0.000000
    9        7.391397      7.391398   0.000000   0.000000
   10        9.806876      9.806877   0.000000   0.000000
   11       10.213235     10.213236   0.000000   0.000000
   12       11.384185     11.384159   0.000000   0.000000
 
  0.4000000E+00  0.8326673E-16  0.2500000E+00  0.1500000E-01
    1      -43.070838    -43.070836   1.000000   1.000000
    2      -42.918934    -42.918932   1.000000   1.000000
    3      -42.694947    -42.694949   1.000000   1.000000
    4      -10.060205    -10.060208   1.000000   1.000000
    5       -0.504086     -0.504087   1.000000   1.000000
    6        0.372327      0.372324   1.000000   1.000000
    7        0.500402      0.500402   1.000000   1.000000
    8        4.059530      4.059530   0.000000   0.000000
    9        6.686333      6.686334   0.000000   0.000000
   10       10.084256     10.084257   0.000000   0.000000
   11       10.173980     10.173981   0.000000   0.000000
   12       11.153822     11.153822   0.000000   0.000000
 
  0.5000000E+00  0.5551115E-16  0.2500000E+00  0.7500000E-02
    1      -43.051631    -43.051629   1.000000   1.000000
    2      -42.937766    -42.937764   1.000000   1.000000
    3      -42.694842    -42.694844   1.000000   1.000000
    4      -10.052615    -10.052618   1.000000   1.000000
    5       -0.584867     -0.584869   1.000000   1.000000
    6        0.295169      0.295166   1.000000   1.000000
    7        0.653259      0.653259   1.000000   1.000000
    8        3.957036      3.957036   0.000000   0.000000
    9        6.440292      6.440291   0.000000   0.000000
   10       10.005782     10.005783   0.000000   0.000000
   11       10.629164     10.629175   0.000000   0.000000
   12       10.723379     10.723376   0.000000   0.000000
 
  0.1000000E+00  0.1000000E+00  0.2500000E+00  0.1500000E-01
    1      -43.146290    -43.146288   1.000000   1.000000
    2      -42.845470    -42.845468   1.000000   1.000000
    3      -42.695386    -42.695388   1.000000   1.000000
    4      -10.111471    -10.111474   1.000000   1.000000
    5       -0.650341     -0.650341   1.000000   1.000000
    6        0.730378      0.730375   1.000000   1.000000
    7        0.950571      0.950568   1.000000   1.000000
    8        4.087071      4.087071   0.000000   0.000000
    9        8.690953      8.690955   0.000000   0.000000
   10        8.995313      8.995315   0.000000   0.000000
   11        9.942599      9.942601   0.000000   0.000000
   12       11.503633     11.503635   0.000000   0.000000
 
  0.2000000E+00  0.1000000E+00  0.2500000E+00  0.3000000E-01
    1      -43.118767    -43.118765   1.000000   1.000000
    2      -42.872077    -42.872075   1.000000   1.000000
    3      -42.695191    -42.695194   1.000000   1.000000
    4      -10.088856    -10.088859   1.000000   1.000000
    5       -0.430549     -0.430549   1.000000   1.000000
    6        0.392889      0.392887   1.000000   1.000000
    7        0.649171      0.649169   1.000000   1.000000
    8        4.188905      4.188904   0.000000   0.000000
    9        7.977442      7.977443   0.000000   0.000000
   10        8.918009      8.918011   0.000000   0.000000
   11       10.627319     10.627319   0.000000   0.000000
   12       11.353452     11.353454   0.000000   0.000000
 
  0.3000000E+00  0.1000000E+00  0.2500000E+00  0.3000000E-01
    1      -43.083391    -43.083389   1.000000   1.000000
    2      -42.906532    -42.906530   1.000000   1.000000
    3      -42.694996    -42.694999   1.000000   1.000000
    4      -10.066630    -10.066633   1.000000   1.000000
    5       -0.419425     -0.419426   1.000000   1.000000
    6        0.357348      0.357346   1.000000   1.000000
    7        0.439642      0.439641   1.000000   1.000000
    8        4.166576      4.166576   0.000000   0.000000
    9        6.990762      6.990763   0.000000   0.000000
   10        9.130279      9.130280   0.000000   0.000000
   11       10.804005     10.804006   0.000000   0.000000
   12       11.514672     11.514681   0.000000   0.000000
 
  0.4000000E+00  0.1000000E+00  0.2500000E+00  0.3000000E-01
    1      -43.051756    -43.051754   1.000000   1.000000
    2      -42.937638    -42.937636   1.000000   1.000000
    3      -42.694895    -42.694897   1.000000   1.000000
    4      -10.053117    -10.053120   1.000000   1.000000
    5       -0.539092     -0.539093   1.000000   1.000000
    6        0.221638      0.221635   1.000000   1.000000
    7        0.653339      0.653339   1.000000   1.000000
    8        4.065608      4.065608   0.000000   0.000000
    9        6.400928      6.400929   0.000000   0.000000
   10        9.367629      9.367631   0.000000   0.000000
   11       10.775221     10.775221   0.000000   0.000000
   12       11.395771     11.395777   0.000000   0.000000
 
  0.2000000E+00  0.2000000E+00  0.2500000E+00  0.1500000E-01
    1      -43.087787    -43.087785   1.000000   1.000000
    2      -42.902231    -42.902229   1.000000   1.000000
    3      -42.695043    -42.695046   1.000000   1.000000
    4      -10.069281    -10.069284   1.000000   1.000000
    5       -0.374280     -0.374281   1.000000   1.000000
    6        0.339371      0.339368   1.000000   1.000000
    7        0.411365      0.411364   1.000000   1.000000
    8        4.225702      4.225702   0.000000   0.000000
    9        7.257067      7.257068   0.000000   0.000000
   10        8.590619      8.590619   0.000000   0.000000
   11       11.144706     11.144697   0.000000   0.000000
   12       11.449194     11.449194   0.000000   0.000000
 
  0.3000000E+00  0.2000000E+00  0.2500000E+00  0.3000000E-01
    1      -43.051889    -43.051887   1.000000   1.000000
    2      -42.937405    -42.937403   1.000000   1.000000