 running on   24 total cores
 distrk:  each k-point on   24 cores,    1 groups
 distr:  one band on    6 cores,    4 groups
 using from now: INCAR     
 vasp.5.4.4.18Apr17-6-g9f103f2a35 (build Aug 12 2020 11:57:02) complex          
  
 POSCAR found type information on POSCAR  Li N 
 POSCAR found :  2 types and       4 ions
 scaLAPACK will be used

 ----------------------------------------------------------------------------- 
|                                                                             |
|  ADVICE TO THIS USER RUNNING 'VASP/VAMP'   (HEAR YOUR MASTER'S VOICE ...):  |
|                                                                             |
|      You have a (more or less) 'small supercell' and for smaller cells      |
|      it is recommended  to use the reciprocal-space projection scheme!      |
|      The real space optimization is not  efficient for small cells and it   |
|      is also less accurate ...                                              |
|      Therefore set LREAL=.FALSE. in the  INCAR file                         |
|                                                                             |
 ----------------------------------------------------------------------------- 

 LDA part: xc-table for Pade appr. of Perdew
 generate k-points for:   10   10    8
 POSCAR, INCAR and KPOINTS ok, starting setup
 FFT: planning ...
 WAVECAR not read
 entering main loop
       N       E                     dE             d eps       ncg     rms          rms(c)
DAV:   1     0.592333806745E+02    0.59233E+02   -0.65201E+03  3360   0.123E+03
DAV:   2    -0.103059468488E+02   -0.69539E+02   -0.65255E+02  4596   0.252E+02
DAV:   3    -0.191278910823E+02   -0.88219E+01   -0.87661E+01  5460   0.728E+01
DAV:   4    -0.197696957762E+02   -0.64180E+00   -0.64124E+00  5088   0.175E+01
DAV:   5    -0.197784334274E+02   -0.87377E-02   -0.87373E-02  4764   0.237E+00    0.981E+00
RMM:   6    -0.161271757821E+02    0.36513E+01   -0.10925E+01  3395   0.143E+01    0.488E+00
RMM:   7    -0.157160174395E+02    0.41116E+00   -0.41737E-01  3907   0.366E+00    0.210E+00
RMM:   8    -0.156345320552E+02    0.81485E-01   -0.36230E-01  3626   0.440E+00    0.109E+00
RMM:   9    -0.156227185689E+02    0.11813E-01   -0.55762E-02  3771   0.135E+00    0.285E-01
RMM:  10    -0.156246968284E+02   -0.19783E-02   -0.17334E-02  4026   0.449E-01    0.231E-01
RMM:  11    -0.156245956453E+02    0.10118E-03   -0.41583E-03  4005   0.365E-01    0.655E-02
RMM:  12    -0.156247568434E+02   -0.16120E-03   -0.14458E-03  3858   0.173E-01    0.242E-02
RMM:  13    -0.156248027261E+02   -0.45883E-04   -0.43931E-04  3534   0.882E-02    0.776E-03
RMM:  14    -0.156248115456E+02   -0.88195E-05   -0.11883E-04  3012   0.508E-02    0.592E-03
RMM:  15    -0.156248147586E+02   -0.32130E-05   -0.34271E-05  2613   0.345E-02
   1 F= -.15624815E+02 E0= -.15624815E+02  d E =-.156248E+02  mag=    -0.0000
 curvature:   0.00 expect dE= 0.000E+00 dE for cont linesearch  0.000E+00
 trial: gam= 0.00000 g(F)=  0.886E-40 g(S)=  0.148E-02 ort = 0.000E+00 (trialstep = 0.100E+01)
 search vector abs. value=  0.148E-02
 bond charge predicted
       N       E                     dE             d eps       ncg     rms          rms(c)
DAV:   1    -0.156283683961E+02   -0.35569E-02   -0.43046E-02  4500   0.173E+00    0.372E-01
RMM:   2    -0.156265260327E+02    0.18424E-02   -0.12082E-02  3490   0.729E-01    0.160E-01
RMM:   3    -0.156260458116E+02    0.48022E-03   -0.57106E-04  3974   0.184E-01    0.101E-01
RMM:   4    -0.156259444655E+02    0.10135E-03   -0.17403E-04  3827   0.111E-01    0.278E-02
RMM:   5    -0.156259299477E+02    0.14518E-04   -0.56116E-05  3316   0.507E-02    0.482E-03
RMM:   6    -0.156259306995E+02   -0.75177E-06    0.49452E-07  2163   0.238E-02
   2 F= -.15625931E+02 E0= -.15625931E+02  d E =-.111594E-02  mag=     0.0000
 trial-energy change:   -0.001116  1 .order   -0.001095   -0.001482   -0.000708
 step:   1.9154(harm=  1.9154)  dis= 0.00000  next Energy=   -15.626234 (dE=-0.142E-02)
 bond charge predicted
       N       E                     dE             d eps       ncg     rms          rms(c)
DAV:   1    -0.156281682657E+02   -0.22383E-02   -0.34980E-02  3736   0.158E+00    0.335E-01
RMM:   2    -0.156266893933E+02    0.14789E-02   -0.10636E-02  3589   0.732E-01    0.142E-01
RMM:   3    -0.156263324116E+02    0.35698E-03   -0.72573E-04  4163   0.207E-01    0.956E-02
RMM:   4    -0.156262400871E+02    0.92325E-04   -0.17287E-04  3772   0.115E-01    0.348E-02
RMM:   5    -0.156262252111E+02    0.14876E-04   -0.59282E-05  3297   0.470E-02    0.460E-03
RMM:   6    -0.156262259829E+02   -0.77173E-06    0.67857E-07  2143   0.222E-02
   3 F= -.15626226E+02 E0= -.15626226E+02  d E =-.141122E-02  mag=    -0.0000
 curvature:  -0.96 expect dE=-0.691E-05 dE for cont linesearch -0.395E-05
 trial: gam= 0.00000 g(F)=  0.415E-40 g(S)=  0.721E-05 ort =-0.781E-04 (trialstep = 0.118E+01)
 search vector abs. value=  0.721E-05
 reached required accuracy - stopping structural energy minimisation
