PROCAR lm decomposed
# of k-points:   70         # of bands:   12         # of ions:    4

 k-point     1 :    0.00000000 0.00000000 0.00000000     weight = 0.00125000

band     1 # energy  -43.17011850 # occ.  1.00000000
 
ion      s     py     pz     px    dxy    dyz    dz2    dxz  x2-y2    tot
    1  0.005  0.000  0.000  0.000  0.000  0.000  0.000  0.000  0.000  0.005
    2  0.489  0.000  0.000  0.000  0.000  0.000  0.000  0.000  0.000  0.489
    3  0.489  0.000  0.000  0.000  0.000  0.000  0.000  0.000  0.000  0.489
    4  0.000  0.000  0.000  0.000  0.000  0.000  0.000  0.000  0.000  0.000
tot    0.983  0.000  0.000  0.000  0.000  0.000  0.000  0.000  0.000  0.983
 
band     2 # energy  -42.82392280 # occ.  1.00000000
 
ion      s     py     pz     px    dxy    dyz    dz2    dxz  x2-y2    tot
    1  0.000  0.000  0.000  0.000  0.000  0.000  0.000  0.000  0.000  0.000
    2  0.497  0.000  0.000  0.000  0.000  0.000  0.000  0.000  0.000  0.497
    3  0.497  0.000  0.000  0.000  0.000  0.000  0.000  0.000  0.000  0.497
    4  0.000  0.000  0.000  0.000  0.000  0.000  0.000  0.000  0.000  0.000
tot    0.993  0.000  0.000  0.000  0.000  0.000  0.000  0.000  0.000  0.993
 
band     3 # energy  -42.69469254 # occ.  1.00000000
 
ion      s     py     pz     px    dxy    dyz    dz2    dxz  x2-y2    tot
    1  0.984  0.000  0.000  0.000  0.000  0.000  0.000  0.000  0.000  0.984
    2  0.003  0.000  0.000  0.000  0.000  0.000  0.000  0.000  0.000  0.003
    3  0.003  0.000  0.000  0.000  0.000  0.000  0.000  0.000  0.000  0.003
    4  0.000  0.000  0.000  0.000  0.000  0.000  0.000  0.000  0.000  0.000
tot    0.989  0.000  0.000  0.000  0.000  0.000  0.000  0.000  0.000  0.989
 
band     4 # energy  -10.10597358 # occ.  1.00000000
 
ion      s     py     pz     px    dxy    dyz    dz2    dxz  x2-y2    tot
    1  0.010  0.000  0.000  0.000  0.000  0.000  0.000  0.000  0.000  0.010
    2  0.011  0.000  0.000  0.000  0.000  0.000  0.000  0.000  0.000  0.011
    3  0.011  0.000  0.000  0.000  0.000  0.000  0.000  0.000  0.000  0.011
    4  0.592  0.000  0.000  0.000  0.000  0.000  0.000  0.000  0.000  0.592
tot    0.625  0.000  0.000  0.000  0.000  0.000  0.000  0.000  0.000  0.625
 
band     5 # energy   -0.17812772 # occ.  1.00000000
 
ion      s     py     pz     px    dxy    dyz    dz2    dxz  x2-y2    tot
    1  0.000  0.000  0.048  0.000  0.000  0.000  0.000  0.000  0.000  0.048
    2  0.000  0.000  0.011  0.000  0.000  0.000  0.000  0.000  0.000  0.011
    3  0.000  0.000  0.011  0.000  0.000  0.000  0.000  0.000  0.000  0.011
    4  0.000  0.000  0.395  0.000  0.000  0.000  0.000  0.000  0.000  0.395
tot    0.000  0.000  0.466  0.000  0.000  0.000  0.000  0.000  0.000  0.466
 
band     6 # energy    1.16831226 # occ.  1.00000000
 
ion      s     py     pz     px    dxy    dyz    dz2    dxz  x2-y2    tot
    1  0.000  0.008  0.000  0.000  0.000  0.000  0.000  0.000  0.000  0.008
    2  0.000  0.013  0.000  0.000  0.000  0.000  0.000  0.000  0.000  0.013
    3  0.000  0.013  0.000  0.000  0.000  0.000  0.000  0.000  0.000  0.013
    4  0.000  0.516  0.000  0.000  0.000  0.000  0.000  0.000  0.000  0.516
tot    0.000  0.549  0.000  0.000  0.000  0.000  0.000  0.000  0.000  0.549
 
band     7 # energy    1.16833390 # occ.  1.00000000
 
ion      s     py     pz     px    dxy    dyz    dz2    dxz  x2-y2    tot
    1  0.000  0.000  0.000  0.008  0.000  0.000  0.000  0.000  0.000  0.008
    2  0.000  0.000  0.000  0.013  0.000  0.000  0.000  0.000  0.000  0.013
    3  0.000  0.000  0.000  0.013  0.000  0.000  0.000  0.000  0.000  0.013
    4  0.000  0.000  0.000  0.516  0.000  0.000  0.000  0.000  0.000  0.516
tot    0.000  0.000  0.000  0.549  0.000  0.000  0.000  0.000  0.000  0.549
 
band     8 # energy    2.43584239 # occ.  0.00000000
 
ion      s     py     pz     px    dxy    dyz    dz2    dxz  x2-y2    tot
    1  0.036  0.000  0.000  0.000  0.000  0.000  0.000  0.000  0.000  0.036
    2  0.019  0.000  0.000  0.000  0.000  0.000  0.000  0.000  0.000  0.019
    3  0.019  0.000  0.000  0.000  0.000  0.000  0.000  0.000  0.000  0.019
    4  0.098  0.000  0.000  0.000  0.000  0.000  0.000  0.000  0.000  0.098
tot    0.173  0.000  0.000  0.000  0.000  0.000  0.000  0.000  0.000  0.173
 
band     9 # energy    8.68645636 # occ.  0.00000000
 
ion      s     py     pz     px    dxy    dyz    dz2    dxz  x2-y2    tot
    1  0.000  0.000  0.000  0.000  0.000  0.000  0.000  0.000  0.000  0.000
    2  0.000  0.000  0.000  0.165  0.000  0.000  0.000  0.000  0.000  0.165
    3  0.000  0.000  0.000  0.165  0.000  0.000  0.000  0.000  0.000  0.165
    4  0.000  0.000  0.000  0.000  0.000  0.000  0.000  0.000  0.000  0.000
tot    0.000  0.000  0.000  0.330  0.000  0.000  0.000  0.000  0.000  0.330
 
band    10 # energy    8.68651510 # occ.  0.00000000
 
ion      s     py     pz     px    dxy    dyz    dz2    dxz  x2-y2    tot
    1  0.000  0.000  0.000  0.000  0.000  0.000  0.000  0.000  0.000  0.000
    2  0.000  0.165  0.000  0.000  0.000  0.000  0.000  0.000  0.000  0.165
    3  0.000  0.165  0.000  0.000  0.000  0.000  0.000  0.000  0.000  0.165
    4  0.000  0.000  0.000  0.000  0.000  0.000  0.000  0.000  0.000  0.000
tot    0.000  0.330  0.000  0.000  0.000  0.000  0.000  0.000  0.000  0.330
 
band    11 # energy    9.65264088 # occ.  0.00000000
 
ion      s     py     pz     px    dxy    dyz    dz2    dxz  x2-y2    tot
    1  0.000  0.000  0.001  0.000  0.000  0.000  0.000  0.000  0.000  0.001
    2  0.000  0.000  0.109  0.000  0.000  0.000  0.000  0.000  0.000  0.109
    3  0.000  0.000  0.109  0.000  0.000  0.000  0.000  0.000  0.000  0.109
    4  0.000  0.000  0.240  0.000  0.000  0.000  0.000  0.000  0.000  0.240
tot    0.000  0.000  0.460  0.000  0.000  0.000  0.000  0.000  0.000  0.460
 
band    12 # energy   13.66135764 # occ.  0.00000000
 
ion      s     py     pz     px    dxy    dyz    dz2    dxz  x2-y2    tot
    1  0.000  0.375  0.000  0.024  0.000  0.000  0.000  0.000  0.000  0.399
    2  0.000  0.002  0.000  0.000  0.000  0.000  0.000  0.000  0.000  0.002
    3  0.000  0.002  0.000  0.000  0.000  0.000  0.000  0.000  0.000  0.002
    4  0.000  0.104  0.000  0.007  0.000  0.000  0.000  0.000  0.000  0.110
tot    0.000  0.482  0.000  0.031  0.000  0.000  0.000  0.000  0.000  0.513
 

 k-point     2 :    0.10000000 0.00000000 0.00000000     weight = 0.00750000

band     1 # energy  -43.16235082 # occ.  1.00000000
 
ion      s     py     pz     px    dxy    dyz    dz2    dxz  x2-y2    tot
    1  0.005  0.000  0.000  0.000  0.000  0.000  0.000  0.000  0.000  0.005
    2  0.489  0.000  0.000  0.000  0.000  0.000  0.000  0.000  0.000  0.489
    3  0.489  0.000  0.000  0.000  0.000  0.000  0.000  0.000  0.000  0.489
    4  0.000  0.000  0.000  0.000  0.000  0.000  0.000  0.000  0.000  0.000
tot    0.984  0.000  0.000  0.000  0.000  0.000  0.000  0.000  0.000  0.984
 
band     2 # energy  -42.83122797 # occ.  1.00000000
 
ion      s     py     pz     px    dxy    dyz    dz2    dxz  x2-y2    tot
    1  0.000  0.000  0.000  0.000  0.000  0.000  0.000  0.000  0.000  0.000
    2  0.497  0.000  0.000  0.000  0.000  0.000  0.000  0.000  0.000  0.497
    3  0.497  0.000  0.000  0.000  0.000  0.000  0.000  0.000  0.000  0.497
    4  0.000  0.000  0.000  0.000  0.000  0.000  0.000  0.000  0.000  0.000
tot    0.993  0.000  0.000  0.000  0.000  0.000  0.000  0.000  0.000  0.993
 
band     3 # energy  -42.69467342 # occ.  1.00000000
 
ion      s     py     pz     px    dxy    dyz    dz2    dxz  x2-y2    tot
    1  0.984  0.000  0.000  0.000  0.000  0.000  0.000  0.000  0.000  0.984
    2  0.002  0.000  0.000  0.000  0.000  0.000  0.000  0.000  0.000  0.002
    3  0.002  0.000  0.000  0.000  0.000  0.000  0.000  0.000  0.000  0.002
    4  0.000  0.000  0.000  0.000  0.000  0.000  0.000  0.000  0.000  0.000
tot    0.989  0.000  0.000  0.000  0.000  0.000  0.000  0.000  0.000  0.989
 
band     4 # energy  -10.09571888 # occ.  1.00000000
 
ion      s     py     pz     px    dxy    dyz    dz2    dxz  x2-y2    tot
    1  0.010  0.000  0.000  0.000  0.000  0.000  0.000  0.000  0.000  0.010
    2  0.010  0.000  0.000  0.000  0.000  0.000  0.000  0.000  0.000  0.011
    3  0.010  0.000  0.000  0.000  0.000  0.000  0.000  0.000  0.000  0.011
    4  0.594  0.000  0.000  0.000  0.000  0.000  0.000  0.000  0.000  0.594
tot    0.625  0.000  0.000  0.000  0.000  0.000  0.000  0.000  0.000  0.626
 
band     5 # energy   -0.11189834 # occ.  1.00000000
 
ion      s     py     pz     px    dxy    dyz    dz2    dxz  x2-y2    tot
    1  0.000  0.000  0.049  0.000  0.000  0.000  0.000  0.000  0.000  0.049
    2  0.000  0.000  0.011  0.000  0.000  0.000  0.000  0.000  0.000  0.011
    3  0.000  0.000  0.011  0.000  0.000  0.000  0.000  0.000  0.000  0.011
    4  0.000  0.000  0.401  0.000  0.000  0.000  0.000  0.000  0.000  0.401
tot    0.000  0.000  0.471  0.000  0.000  0.000  0.000  0.000  0.000  0.471
 
band     6 # energy    0.77747480 # occ.  1.00000000
 
ion      s     py     pz     px    dxy    dyz    dz2    dxz  x2-y2    tot
    1  0.003  0.002  0.000  0.007  0.000  0.000  0.000  0.000  0.000  0.012
    2  0.008  0.003  0.000  0.008  0.000  0.000  0.000  0.000  0.000  0.019
    3  0.008  0.003  0.000  0.008  0.000  0.000  0.000  0.000  0.000  0.019
    4  0.012  0.104  0.000  0.312  0.000  0.000  0.000  0.000  0.000  0.428
tot    0.031  0.112  0.000  0.335  0.000  0.000  0.000  0.000  0.000  0.478
 
band     7 # energy    1.04842681 # occ.  1.00000000
 
ion      s     py     pz     px    dxy    dyz    dz2    dxz  x2-y2    tot
    1  0.000  0.006  0.000  0.002  0.000  0.000  0.000  0.000  0.000  0.008
    2  0.000  0.012  0.000  0.004  0.000  0.000  0.000  0.000  0.000  0.016
    3  0.000  0.012  0.000  0.004  0.000  0.000  0.000  0.000  0.000  0.016
    4  0.000  0.375  0.000  0.125  0.000  0.000  0.000  0.000  0.000  0.501
tot    0.000  0.405  0.000  0.135  0.000  0.000  0.000  0.000  0.000  0.540
 
band     8 # energy    2.80786504 # occ.  0.00000000
 
ion      s     py     pz     px    dxy    dyz    dz2    dxz  x2-y2    tot
    1  0.033  0.000  0.000  0.000  0.000  0.000  0.000  0.000  0.000  0.033
    2  0.013  0.001  0.000  0.003  0.000  0.000  0.000  0.000  0.000  0.017
    3  0.013  0.001  0.000  0.003  0.000  0.000  0.000  0.000  0.000  0.017
    4  0.082  0.022  0.000  0.065  0.000  0.000  0.000  0.000  0.000  0.169
tot    0.140  0.024  0.000  0.071  0.000  0.000  0.000  0.000  0.000  0.234
 
band     9 # energy    8.71584225 # occ.  0.00000000
 
ion      s     py     pz     px    dxy    dyz    dz2    dxz  x2-y2    tot
    1  0.000  0.001  0.000  0.002  0.000  0.000  0.000  0.000  0.000  0.002
    2  0.007  0.034  0.000  0.103  0.000  0.000  0.000  0.000  0.000  0.144
    3  0.007  0.034  0.000  0.103  0.000  0.000  0.000  0.000  0.000  0.144
    4  0.000  0.007  0.000  0.021  0.000  0.000  0.000  0.000  0.000  0.028
tot    0.014  0.076  0.000  0.228  0.000  0.000  0.000  0.000  0.000  0.318
 
band    10 # energy    8.97189660 # occ.  0.00000000
 
ion      s     py     pz     px    dxy    dyz    dz2    dxz  x2-y2    tot
    1  0.000  0.001  0.000  0.000  0.000  0.000  0.000  0.000  0.000  0.002
    2  0.000  0.118  0.000  0.039  0.000  0.000  0.000  0.000  0.000  0.158
    3  0.000  0.118  0.000  0.039  0.000  0.000  0.000  0.000  0.000  0.158
    4  0.000  0.021  0.000  0.007  0.000  0.000  0.000  0.000  0.000  0.028
tot    0.000  0.259  0.000  0.086  0.000  0.000  0.000  0.000  0.000  0.345
 
band    11 # energy    9.53392940 # occ.  0.00000000
 
ion      s     py     pz     px    dxy    dyz    dz2    dxz  x2-y2    tot
    1  0.000  0.000  0.001  0.000  0.000  0.000  0.000  0.000  0.000  0.001
    2  0.000  0.000  0.109  0.000  0.000  0.000  0.000  0.000  0.000  0.109
    3  0.000  0.000  0.109  0.000  0.000  0.000  0.000  0.000  0.000  0.109
    4  0.000  0.000  0.221  0.000  0.000  0.000  0.000  0.000  0.000  0.221
tot    0.000  0.000  0.440  0.000  0.000  0.000  0.000  0.000  0.000  0.440
 
band    12 # energy   13.42686840 # occ.  0.00000000
 
ion      s     py     pz     px    dxy    dyz    dz2    dxz  x2-y2    tot
    1  0.003  0.106  0.000  0.239  0.000  0.000  0.000  0.000  0.000  0.348
    2  0.006  0.003  0.000  0.016  0.000  0.000  0.000  0.000  0.000  0.025
    3  0.006  0.006  0.000  0.013  0.000  0.000  0.000  0.000  0.000  0.025
    4  0.014  0.023  0.000  0.052  0.000  0.000  0.000  0.000  0.000  0.088
tot    0.030  0.138  0.000  0.319  0.000  0.000  0.000  0.000  0.000  0.486
 

 k-point     3 :    0.20000000 0.00000000 0.00000000     weight = 0.00750000

band     1 # energy  -43.14022648 # occ.  1.00000000
 
ion      s     py     pz     px    dxy    dyz    dz2    dxz  x2-y2    tot
    1  0.004  0.000  0.000  0.000  0.000  0.000  0.000  0.000  0.000  0.004
    2  0.490  0.000  0.000  0.000  0.000  0.000  0.000  0.000  0.000  0.490
    3  0.490  0.000  0.000  0.000  0.000  0.000  0.000  0.000  0.000  0.490
    4  0.000  0.000  0.000  0.000  0.000  0.000  0.000  0.000  0.000  0.000
tot    0.984  0.000  0.000  0.000  0.000  0.000  0.000  0.000  0.000  0.984
 
band     2 # energy  -42.85240288 # occ.  1.00000000
 
ion      s     py     pz     px    dxy    dyz    dz2    dxz  x2-y2    tot
    1  0.000  0.000  0.000  0.000  0.000  0.000  0.000  0.000  0.000  0.000
    2  0.496  0.000  0.000  0.000  0.000  0.000  0.000  0.000  0.000  0.496
    3  0.496  0.000  0.000  0.000  0.000  0.000  0.000  0.000  0.000  0.496
    4  0.000  0.000  0.000  0.000  0.000  0.000  0.000  0.000  0.000  0.000
tot    0.993  0.000  0.000  0.000  0.000  0.000  0.000  0.000  0.000  0.993
 
band     3 # energy  -42.69474052 # occ.  1.00000000
 
ion      s     py     pz     px    dxy    dyz    dz2    dxz  x2-y2    tot
    1  0.985  0.000  0.000  0.000  0.000  0.000  0.000  0.000  0.000  0.985
    2  0.002  0.000  0.000  0.000  0.000  0.000  0.000  0.000  0.000  0.002
    3  0.002  0.000  0.000  0.000  0.000  0.000  0.000  0.000  0.000  0.002
    4  0.000  0.000  0.000  0.000  0.000  0.000  0.000  0.000  0.000  0.000
tot    0.989  0.000  0.000  0.000  0.000  0.000  0.000  0.000  0.000  0.989
 
band     4 # energy  -10.06910682 # occ.  1.00000000
 
ion      s     py     pz     px    dxy    dyz    dz2    dxz  x2-y2    tot
    1  0.010  0.000  0.000  0.000  0.000  0.000  0.000  0.000  0.000  0.010
    2  0.008  0.000  0.000  0.001  0.000  0.000  0.000  0.000  0.000  0.009
    3  0.008  0.000  0.000  0.001  0.000  0.000  0.000  0.000  0.000  0.009
    4  0.599  0.000  0.000  0.000  0.000  0.000  0.000  0.000  0.000  0.599
tot    0.625  0.001  0.000  0.002  0.000  0.000  0.000  0.000  0.000  0.628
 
band     5 # energy    0.07001826 # occ.  1.00000000
 
ion      s     py     pz     px    dxy    dyz    dz2    dxz  x2-y2    tot
    1  0.000  0.000  0.050  0.000  0.000  0.000  0.000  0.000  0.000  0.050
    2  0.000  0.000  0.009  0.000  0.000  0.000  0.000  0.000  0.000  0.009
    3  0.000  0.000  0.009  0.000  0.000  0.000  0.000  0.000  0.000  0.009
    4  0.000  0.000  0.418  0.000  0.000  0.000  0.000  0.000  0.000  0.418
tot    0.000  0.000  0.486  0.000  0.000  0.000  0.000  0.000  0.000  0.486
 
band     6 # energy    0.12718357 # occ.  1.00000000
 
ion      s     py     pz     px    dxy    dyz    dz2    dxz  x2-y2    tot
    1  0.002  0.003  0.000  0.008  0.000  0.000  0.000  0.000  0.000  0.014
    2  0.017  0.002  0.000  0.007  0.000  0.000  0.000  0.000  0.000  0.027
    3  0.017  0.002  0.000  0.007  0.000  0.000  0.000  0.000  0.000  0.027
    4  0.014  0.086  0.000  0.259  0.000  0.000  0.000  0.000  0.000  0.358
tot    0.051  0.094  0.000  0.282  0.000  0.000  0.000  0.000  0.000  0.427
 
band     7 # energy    0.76358166 # occ.  1.00000000
 
ion      s     py     pz     px    dxy    dyz    dz2    dxz  x2-y2    tot
    1  0.000  0.006  0.000  0.002  0.000  0.000  0.000  0.000  0.000  0.008
    2  0.000  0.016  0.000  0.005  0.000  0.000  0.000  0.000  0.000  0.022
    3  0.000  0.016  0.000  0.005  0.000  0.000  0.000  0.000  0.000  0.022
    4  0.000  0.352  0.000  0.117  0.000  0.000  0.000  0.000  0.000  0.469
tot    0.000  0.391  0.000  0.130  0.000  0.000  0.000  0.000  0.000  0.521
 
band     8 # energy    3.46445520 # occ.  0.00000000
 
ion      s     py     pz     px    dxy    dyz    dz2    dxz  x2-y2    tot
    1  0.031  0.000  0.000  0.001  0.000  0.000  0.000  0.000  0.000  0.032
    2  0.008  0.002  0.000  0.006  0.000  0.000  0.000  0.000  0.000  0.016
    3  0.008  0.002  0.000  0.006  0.000  0.000  0.000  0.000  0.000  0.016
    4  0.069  0.032  0.000  0.097  0.000  0.000  0.000  0.000  0.000  0.199
tot    0.116  0.037  0.000  0.111  0.000  0.000  0.000  0.000  0.000  0.263
 
band     9 # energy    8.55315019 # occ.  0.00000000
 
ion      s     py     pz     px    dxy    dyz    dz2    dxz  x2-y2    tot
    1  0.000  0.003  0.000  0.010  0.000  0.000  0.000  0.000  0.000  0.013
    2  0.019  0.018  0.000  0.054  0.000  0.000  0.000  0.000  0.000  0.091
    3  0.019  0.018  0.000  0.054  0.000  0.000  0.000  0.000  0.000  0.091
    4  0.003  0.022  0.000  0.065  0.000  0.000  0.000  0.000  0.000  0.090
tot    0.042  0.061  0.000  0.183  0.000  0.000  0.000  0.000  0.000  0.286
 
band    10 # energy    9.22576354 # occ.  0.00000000
 
ion      s     py     pz     px    dxy    dyz    dz2    dxz  x2-y2    tot
    1  0.000  0.000  0.001  0.000  0.000  0.000  0.000  0.000  0.000  0.001
    2  0.000  0.000  0.109  0.000  0.000  0.000  0.000  0.000  0.000  0.109
    3  0.000  0.000  0.109  0.000  0.000  0.000  0.000  0.000  0.000  0.109
    4  0.000  0.000  0.169  0.000  0.000  0.000  0.000  0.000  0.000  0.169
tot    0.000  0.000  0.387  0.000  0.000  0.000  0.000  0.000  0.000  0.387
 
band    11 # energy    9.67345929 # occ.  0.00000000
 
ion      s     py     pz     px    dxy    dyz    dz2    dxz  x2-y2    tot
    1  0.000  0.010  0.000  0.003  0.000  0.000  0.000  0.000  0.000  0.014
    2  0.000  0.100  0.000  0.033  0.000  0.000  0.000  0.000  0.000  0.133
    3  0.000  0.100  0.000  0.033  0.000  0.000  0.000  0.000  0.000  0.133
    4  0.000  0.075  0.000  0.025  0.000  0.000  0.000  0.000  0.000  0.100
tot    0.000  0.285  0.000  0.095  0.000  0.000  0.000  0.000  0.000  0.380
 
band    12 # energy   13.15817944 # occ.  0.00000000
 
ion      s     py     pz     px    dxy    dyz    dz2    dxz  x2-y2    tot
    1  0.029  0.060  0.000  0.192  0.000  0.000  0.000  0.000  0.000  0.281
    2  0.006  0.015  0.000  0.043  0.000  0.000  0.000  0.000  0.000  0.064
    3  0.006  0.015  0.000  0.043  0.000  0.000  0.000  0.000  0.000  0.064
    4  0.022  0.005  0.000  0.017  0.000  0.000  0.000  0.000  0.000  0.044
tot    0.063  0.095  0.000  0.294  0.000  0.000  0.000  0.000  0.000  0.452
 

 k-point     4 :    0.30000000 0.00000000 0.00000000     weight = 0.00750000

band     1 # energy  -43.10730309 # occ.  1.00000000
 
ion      s     py     pz     px    dxy    dyz    dz2    dxz  x2-y2    tot
    1  0.003  0.000  0.000  0.000  0.000  0.000  0.000  0.000  0.000  0.003
    2  0.491  0.000  0.000  0.000  0.000  0.000  0.000  0.000  0.000  0.491
    3  0.491  0.000  0.000  0.000  0.000  0.000  0.000  0.000  0.000  0.491
    4  0.000  0.000  0.000  0.000  0.000  0.000  0.000  0.000  0.000  0.000
tot    0.985  0.000  0.000  0.000  0.000  0.000  0.000  0.000  0.000  0.985
 
band     2 # energy  -42.88413497 # occ.  1.00000000
 
ion      s     py     pz     px    dxy    dyz    dz2    dxz  x2-y2    tot
    1  0.000  0.000  0.000  0.000  0.000  0.000  0.000  0.000  0.000  0.000
    2  0.496  0.000  0.000  0.000  0.000  0.000  0.000  0.000  0.000  0.496
    3  0.496  0.000  0.000  0.000  0.000  0.000  0.000  0.000  0.000  0.496
    4  0.000  0.000  0.000  0.000  0.000  0.000  0.000  0.000  0.000  0.000
tot    0.992  0.000  0.000  0.000  0.000  0.000  0.000  0.000  0.000  0.992
 
band     3 # energy  -42.69484996 # occ.  1.00000000
 
ion      s     py     pz     px    dxy    dyz    dz2    dxz  x2-y2    tot
    1  0.985  0.000  0.000  0.000  0.000  0.000  0.000  0.000  0.000  0.985
    2  0.002  0.000  0.000  0.000  0.000  0.000  0.000  0.000  0.000  0.002
    3  0.002  0.000  0.000  0.000  0.000  0.000  0.000  0.000  0.000  0.002
    4  0.000  0.000  0.000  0.000  0.000  0.000  0.000  0.000  0.000  0.000
tot    0.989  0.000  0.000  0.000  0.000  0.000  0.000  0.000  0.000  0.989
 
band     4 # energy  -10.03609365 # occ.  1.00000000
 
ion      s     py     pz     px    dxy    dyz    dz2    dxz  x2-y2    tot
    1  0.009  0.000  0.000  0.000  0.000  0.000  0.000  0.000  0.000  0.009
    2  0.005  0.001  0.000  0.002  0.000  0.000  0.000  0.000  0.000  0.007
    3  0.005  0.001  0.000  0.002  0.000  0.000  0.000  0.000  0.000  0.007
    4  0.606  0.000  0.000  0.000  0.000  0.000  0.000  0.000  0.000  0.606
tot    0.626  0.001  0.000  0.003  0.000  0.000  0.000  0.000  0.000  0.630
 
band     5 # energy   -0.43876232 # occ.  1.00000000
 
ion      s     py     pz     px    dxy    dyz    dz2    dxz  x2-y2    tot
    1  0.001  0.003  0.000  0.010  0.000  0.000  0.000  0.000  0.000  0.014
    2  0.025  0.002  0.000  0.006  0.000  0.000  0.000  0.000  0.000  0.034
    3  0.025  0.002  0.000  0.006  0.000  0.000  0.000  0.000  0.000  0.034
    4  0.008  0.077  0.000  0.232  0.000  0.000  0.000  0.000  0.000  0.317
tot    0.060  0.085  0.000  0.254  0.000  0.000  0.000  0.000  0.000  0.399
 
band     6 # energy    0.31481734 # occ.  1.00000000
 
ion      s     py     pz     px    dxy    dyz    dz2    dxz  x2-y2    tot
    1  0.000  0.000  0.053  0.000  0.000  0.000  0.000  0.000  0.000  0.053
    2  0.000  0.000  0.006  0.000  0.000  0.000  0.000  0.000  0.000  0.006
    3  0.000  0.000  0.006  0.000  0.000  0.000  0.000  0.000  0.000  0.006
    4  0.000  0.000  0.445  0.000  0.000  0.000  0.000  0.000  0.000  0.445
tot    0.000  0.000  0.509  0.000  0.000  0.000  0.000  0.000  0.000  0.509
 
band     7 # energy    0.45577040 # occ.  1.00000000
 
ion      s     py     pz     px    dxy    dyz    dz2    dxz  x2-y2    tot
    1  0.000  0.006  0.000  0.002  0.000  0.000  0.000  0.000  0.000  0.008
    2  0.000  0.020  0.000  0.007  0.000  0.000  0.000  0.000  0.000  0.027
    3  0.000  0.020  0.000  0.007  0.000  0.000  0.000  0.000  0.000  0.027
    4  0.000  0.330  0.000  0.110  0.000  0.000  0.000  0.000  0.000  0.440
tot    0.000  0.377  0.000  0.126  0.000  0.000  0.000  0.000  0.000  0.503
 
band     8 # energy    4.19772343 # occ.  0.00000000
 
ion      s     py     pz     px    dxy    dyz    dz2    dxz  x2-y2    tot
    1  0.027  0.002  0.000  0.005  0.000  0.000  0.000  0.000  0.000  0.033
    2  0.008  0.003  0.000  0.008  0.000  0.000  0.000  0.000  0.000  0.019
    3  0.008  0.003  0.000  0.008  0.000  0.000  0.000  0.000  0.000  0.019
    4  0.059  0.034  0.000  0.102  0.000  0.000  0.000  0.000  0.000  0.194
tot    0.102  0.041  0.000  0.123  0.000  0.000  0.000  0.000  0.000  0.265
 
band     9 # energy    7.90004604 # occ.  0.00000000
 
ion      s     py     pz     px    dxy    dyz    dz2    dxz  x2-y2    tot
    1  0.002  0.007  0.000  0.021  0.000  0.000  0.000  0.000  0.000  0.030
    2  0.023  0.006  0.000  0.018  0.000  0.000  0.000  0.000  0.000  0.047
    3  0.023  0.006  0.000  0.018  0.000  0.000  0.000  0.000  0.000  0.047
    4  0.012  0.032  0.000  0.095  0.000  0.000  0.000  0.000  0.000  0.138
tot    0.059  0.051  0.000  0.152  0.000  0.000  0.000  0.000  0.000  0.262
 
band    10 # energy    8.83856146 # occ.  0.00000000
 
ion      s     py     pz     px    dxy    dyz    dz2    dxz  x2-y2    tot
    1  0.000  0.000  0.001  0.000  0.000  0.000  0.000  0.000  0.000  0.001
    2  0.000  0.000  0.108  0.000  0.000  0.000  0.000  0.000  0.000  0.108
    3  0.000  0.000  0.108  0.000  0.000  0.000  0.000  0.000  0.000  0.108
    4  0.000  0.000  0.097  0.000  0.000  0.000  0.000  0.000  0.000  0.097
tot    0.000  0.000  0.314  0.000  0.000  0.000  0.000  0.000  0.000  0.314
 
band    11 # energy   10.37352279 # occ.  0.00000000
 
ion      s     py     pz     px    dxy    dyz    dz2    dxz  x2-y2    tot
    1  0.000  0.043  0.000  0.014  0.000  0.000  0.000  0.000  0.000  0.057
    2  0.000  0.063  0.000  0.021  0.000  0.000  0.000  0.000  0.000  0.084
    3  0.000  0.063  0.000  0.021  0.000  0.000  0.000  0.000  0.000  0.084
    4  0.000  0.138  0.000  0.046  0.000  0.000  0.000  0.000  0.000  0.184
tot    0.000  0.306  0.000  0.102  0.000  0.000  0.000  0.000  0.000  0.408
 
band    12 # energy   13.30426397 # occ.  0.00000000
 
ion      s     py     pz     px    dxy    dyz    dz2    dxz  x2-y2    tot
    1  0.091  0.030  0.000  0.105  0.000  0.000  0.000  0.000  0.000  0.226
    2  0.020  0.017  0.000  0.043  0.000  0.000  0.000  0.000  0.000  0.080
    3  0.015  0.019  0.000  0.050  0.000  0.000  0.000  0.000  0.000  0.084
    4  0.012  0.000  0.000  0.001  0.000  0.000  0.000  0.000  0.000  0.014
tot    0.138  0.066  0.000  0.200  0.000  0.000  0.000  0.000  0.000  0.405
 

 k-point     5 :    0.40000000 0.00000000 0.00000000     weight = 0.00750000

band     1 # energy  -43.07127892 # occ.  1.00000000
 
ion      s     py     pz     px    dxy    dyz    dz2    dxz  x2-y2    tot
    1  0.001  0.000  0.000  0.000  0.000  0.000  0.000  0.000  0.000  0.001
    2  0.493  0.000  0.000  0.000  0.000  0.000  0.000  0.000  0.000  0.493
    3  0.493  0.000  0.000  0.000  0.000  0.000  0.000  0.000  0.000  0.493
    4  0.000  0.000  0.000  0.000  0.000  0.000  0.000  0.000  0.000  0.000
tot    0.986  0.000  0.000  0.000  0.000  0.000  0.000  0.000  0.000  0.986
 
band     2 # energy  -42.91922286 # occ.  1.00000000
 
ion      s     py     pz     px    dxy    dyz    dz2    dxz  x2-y2    tot
    1  0.001  0.000  0.000  0.000  0.000  0.000  0.000  0.000  0.000  0.001
    2  0.495  0.000  0.000  0.000  0.000  0.000  0.000  0.000  0.000  0.495
    3  0.495  0.000  0.000  0.000  0.000  0.000  0.000  0.000  0.000  0.495
    4  0.000  0.000  0.000  0.000  0.000  0.000  0.000  0.000  0.000  0.000
tot    0.991  0.000  0.000  0.000  0.000  0.000  0.000  0.000  0.000  0.991
 
band     3 # energy  -42.69500410 # occ.  1.00000000
 
ion      s     py     pz     px    dxy    dyz    dz2    dxz  x2-y2    tot
    1  0.986  0.000  0.000  0.000  0.000  0.000  0.000  0.000  0.000  0.986
    2  0.001  0.000  0.000  0.000  0.000  0.000  0.000  0.000  0.000  0.001
    3  0.001  0.000  0.000  0.000  0.000  0.000  0.000  0.000  0.000  0.001
    4  0.000  0.000  0.000  0.000  0.000  0.000  0.000  0.000  0.000  0.000
tot    0.989  0.000  0.000  0.000  0.000  0.000  0.000  0.000  0.000  0.989
 
band     4 # energy  -10.00940345 # occ.  1.00000000
 
ion      s     py     pz     px    dxy    dyz    dz2    dxz  x2-y2    tot
    1  0.009  0.000  0.000  0.000  0.000  0.000  0.000  0.000  0.000  0.009
    2  0.002  0.001  0.000  0.002  0.000  0.000  0.000  0.000  0.000  0.006
    3  0.002  0.001  0.000  0.002  0.000  0.000  0.000  0.000  0.000  0.006
    4  0.612  0.000  0.000  0.000  0.000  0.000  0.000  0.000  0.000  0.612
tot    0.626  0.002  0.000  0.005  0.000  0.000  0.000  0.000  0.000  0.632
 
band     5 # energy   -0.81020158 # occ.  1.00000000
 
ion      s     py     pz     px    dxy    dyz    dz2    dxz  x2-y2    tot
    1  0.000  0.003  0.000  0.010  0.000  0.000  0.000  0.000  0.000  0.014
    2  0.031  0.002  0.000  0.005  0.000  0.000  0.000  0.000  0.000  0.038
    3  0.031  0.002  0.000  0.005  0.000  0.000  0.000  0.000  0.000  0.038
    4  0.002  0.073  0.000  0.218  0.000  0.000  0.000  0.000  0.000  0.293
tot    0.065  0.080  0.000  0.239  0.000  0.000  0.000  0.000  0.000  0.384
 
band     6 # energy    0.23349135 # occ.  1.00000000
 
ion      s     py     pz     px    dxy    dyz    dz2    dxz  x2-y2    tot
    1  0.000  0.006  0.000  0.002  0.000  0.000  0.000  0.000  0.000  0.008
    2  0.000  0.023  0.000  0.008  0.000  0.000  0.000  0.000  0.000  0.030
    3  0.000  0.023  0.000  0.008  0.000  0.000  0.000  0.000  0.000  0.030
    4  0.000  0.317  0.000  0.106  0.000  0.000  0.000  0.000  0.000  0.422
tot    0.000  0.368  0.000  0.123  0.000  0.000  0.000  0.000  0.000  0.491
 
band     7 # energy    0.53280653 # occ.  1.00000000
 
ion      s     py     pz     px    dxy    dyz    dz2    dxz  x2-y2    tot
    1  0.000  0.000  0.055  0.000  0.000  0.000  0.000  0.000  0.000  0.055
    2  0.000  0.000  0.003  0.000  0.000  0.000  0.000  0.000  0.000  0.003
    3  0.000  0.000  0.003  0.000  0.000  0.000  0.000  0.000  0.000  0.003
    4  0.000  0.000  0.471  0.000  0.000  0.000  0.000  0.000  0.000  0.471
tot    0.000  0.000  0.531  0.000  0.000  0.000  0.000  0.000  0.000  0.531
 
band     8 # energy    5.01729769 # occ.  0.00000000
 
ion      s     py     pz     px    dxy    dyz    dz2    dxz  x2-y2    tot
    1  0.022  0.003  0.000  0.010  0.000  0.000  0.000  0.000  0.000  0.036
    2  0.011  0.003  0.000  0.008  0.000  0.000  0.000  0.000  0.000  0.022
    3  0.011  0.003  0.000  0.008  0.000  0.000  0.000  0.000  0.000  0.022
    4  0.050  0.032  0.000  0.096  0.000  0.000  0.000  0.000  0.000  0.178
tot    0.094  0.041  0.000  0.123  0.000  0.000  0.000  0.000  0.000  0.258
 
band     9 # energy    6.94513281 # occ.  0.00000000
 
ion      s     py     pz     px    dxy    dyz    dz2    dxz  x2-y2    tot
    1  0.007  0.008  0.000  0.024  0.000  0.000  0.000  0.000  0.000  0.038
    2  0.018  0.002  0.000  0.007  0.000  0.000  0.000  0.000  0.000  0.028
    3  0.018  0.002  0.000  0.007  0.000  0.000  0.000  0.000  0.000  0.028
    4  0.021  0.036  0.000  0.108  0.000  0.000  0.000  0.000  0.000  0.166
tot    0.065  0.049  0.000  0.146  0.000  0.000  0.000  0.000  0.000  0.260
 
band    10 # energy    8.50764252 # occ.  0.00000000
 
ion      s     py     pz     px    dxy    dyz    dz2    dxz  x2-y2    tot
    1  0.000  0.000  0.000  0.000  0.000  0.000  0.000  0.000  0.000  0.000
    2  0.000  0.000  0.108  0.000  0.000  0.000  0.000  0.000  0.000  0.108
    3  0.000  0.000  0.108  0.000  0.000  0.000  0.000  0.000  0.000  0.108