<?xml version="1.0" encoding="ISO-8859-1"?>
<modeling>
 <generator>
  <i name="program" type="string">vasp </i>
  <i name="version" type="string">5.4.4.18Apr17-6-g9f103f2a35  </i>
  <i name="subversion" type="string">(build Aug 12 2020 11:57:02) complex            parallel </i>
  <i name="platform" type="string">LinuxIFC </i>
  <i name="date" type="string">2021 01 31 </i>
  <i name="time" type="string">03:17:10 </i>
 </generator>
 <incar>
  <i type="string" name="PREC">accurate</i>
  <i type="string" name="ALGO"> Fast</i>
  <i type="int" name="NSIM">     4</i>
  <i type="int" name="ISPIN">     2</i>
  <i type="int" name="NELM">   100</i>
  <i type="int" name="IBRION">     2</i>
  <i name="EDIFF">      0.00001000</i>
  <i type="int" name="NSW">    99</i>
  <i type="int" name="ISIF">     3</i>
  <i name="ENCUT">    520.00000000</i>
  <v name="MAGMOM">      0.00000000      0.00000000      0.00000000      0.00000000</v>
  <i type="string" name="LREAL"> Auto</i>
  <i type="logical" name="LPLANE"> T  </i>
  <i type="int" name="ISMEAR">    -5</i>
  <i name="SIGMA">      0.05000000</i>
  <i type="logical" name="LWAVE"> F  </i>
  <i type="logical" name="LCHARG"> F  </i>
  <i type="int" name="LORBIT">    11</i>
  <i type="logical" name="LASPH"> T  </i>
  <v type="int" name="KPOINT_BSE">    -1     0     0     0</v>
  <i type="int" name="NELM">   100</i>
  <i type="logical" name="LASPH"> T  </i>
 </incar>
 <structure name="primitive_cell" >
  <crystal>
   <varray name="basis" >
    <v>       1.82534500      -3.16159000       0.00000000 </v>
    <v>       1.82534500       3.16159000       0.00000000 </v>
    <v>       0.00000000       0.00000000       3.88863500 </v>
   </varray>
   <i name="volume">     44.88256683 </i>
   <varray name="rec_basis" >
    <v>       0.27392082      -0.15814827       0.00000000 </v>
    <v>       0.27392082       0.15814827       0.00000000 </v>
    <v>       0.00000000       0.00000000       0.25715965 </v>
   </varray>
  </crystal>
  <varray name="positions" >
   <v>       0.00000000       0.00000000      -0.50000000 </v>
   <v>       0.00000000       0.00000000       0.00000000 </v>
   <v>       0.33333300      -0.33333300       0.00000000 </v>
   <v>      -0.33333300       0.33333300       0.00000000 </v>
  </varray>
 </structure>
 <varray name="primitive_index" >
  <v type="int" >        1 </v>
  <v type="int" >        4 </v>
  <v type="int" >        2 </v>
  <v type="int" >        3 </v>
 </varray>
 <kpoints>
  <generation param="Auto">
   <i name="subdivisionlength">     32.00000000 </i>
   <v type="int" name="divisions">      10       10        8 </v>
   <v name="usershift">      0.00000000       0.00000000       0.00000000 </v>
   <v name="genvec1">      0.10000000       0.00000000       0.00000000 </v>
   <v name="genvec2">      0.00000000       0.10000000       0.00000000 </v>
   <v name="genvec3">      0.00000000       0.00000000       0.12500000 </v>
   <v name="shift">      0.00000000       0.00000000       0.00000000 </v>
  </generation>
  <varray name="kpointlist" >
   <v>       0.00000000       0.00000000       0.00000000 </v>
   <v>       0.10000000       0.00000000       0.00000000 </v>
   <v>       0.20000000       0.00000000       0.00000000 </v>
   <v>       0.30000000       0.00000000       0.00000000 </v>
   <v>       0.40000000       0.00000000       0.00000000 </v>
   <v>       0.50000000       0.00000000       0.00000000 </v>
   <v>       0.10000000       0.10000000       0.00000000 </v>
   <v>       0.20000000       0.10000000       0.00000000 </v>
   <v>       0.30000000       0.10000000       0.00000000 </v>
   <v>       0.40000000       0.10000000       0.00000000 </v>
   <v>       0.20000000       0.20000000       0.00000000 </v>
   <v>       0.30000000       0.20000000       0.00000000 </v>
   <v>       0.40000000       0.20000000       0.00000000 </v>
   <v>       0.30000000       0.30000000       0.00000000 </v>
   <v>       0.00000000       0.00000000       0.12500000 </v>
   <v>       0.10000000       0.00000000       0.12500000 </v>
   <v>       0.20000000       0.00000000       0.12500000 </v>
   <v>       0.30000000       0.00000000       0.12500000 </v>
   <v>       0.40000000       0.00000000       0.12500000 </v>
   <v>       0.50000000       0.00000000       0.12500000 </v>
   <v>       0.10000000       0.10000000       0.12500000 </v>
   <v>       0.20000000       0.10000000       0.12500000 </v>
   <v>       0.30000000       0.10000000       0.12500000 </v>
   <v>       0.40000000       0.10000000       0.12500000 </v>
   <v>       0.20000000       0.20000000       0.12500000 </v>
   <v>       0.30000000       0.20000000       0.12500000 </v>
   <v>       0.40000000       0.20000000       0.12500000 </v>
   <v>       0.30000000       0.30000000       0.12500000 </v>
   <v>       0.00000000       0.00000000       0.25000000 </v>
   <v>       0.10000000       0.00000000       0.25000000 </v>
   <v>       0.20000000       0.00000000       0.25000000 </v>
   <v>       0.30000000       0.00000000       0.25000000 </v>
   <v>       0.40000000       0.00000000       0.25000000 </v>
   <v>       0.50000000       0.00000000       0.25000000 </v>
   <v>       0.10000000       0.10000000       0.25000000 </v>
   <v>       0.20000000       0.10000000       0.25000000 </v>
   <v>       0.30000000       0.10000000       0.25000000 </v>
   <v>       0.40000000       0.10000000       0.25000000 </v>
   <v>       0.20000000       0.20000000       0.25000000 </v>
   <v>       0.30000000       0.20000000       0.25000000 </v>
   <v>       0.40000000       0.20000000       0.25000000 </v>
   <v>       0.30000000       0.30000000       0.25000000 </v>
   <v>       0.00000000       0.00000000       0.37500000 </v>
   <v>       0.10000000       0.00000000       0.37500000 </v>
   <v>       0.20000000       0.00000000       0.37500000 </v>
   <v>       0.30000000       0.00000000       0.37500000 </v>
   <v>       0.40000000       0.00000000       0.37500000 </v>
   <v>       0.50000000       0.00000000       0.37500000 </v>
   <v>       0.10000000       0.10000000       0.37500000 </v>
   <v>       0.20000000       0.10000000       0.37500000 </v>
   <v>       0.30000000       0.10000000       0.37500000 </v>
   <v>       0.40000000       0.10000000       0.37500000 </v>
   <v>       0.20000000       0.20000000       0.37500000 </v>
   <v>       0.30000000       0.20000000       0.37500000 </v>
   <v>       0.40000000       0.20000000       0.37500000 </v>
   <v>       0.30000000       0.30000000       0.37500000 </v>
   <v>       0.00000000       0.00000000       0.50000000 </v>
   <v>       0.10000000       0.00000000       0.50000000 </v>
   <v>       0.20000000       0.00000000       0.50000000 </v>
   <v>       0.30000000       0.00000000       0.50000000 </v>
   <v>       0.40000000       0.00000000       0.50000000 </v>
   <v>       0.50000000       0.00000000       0.50000000 </v>
   <v>       0.10000000       0.10000000       0.50000000 </v>
   <v>       0.20000000       0.10000000       0.50000000 </v>
   <v>       0.30000000       0.10000000       0.50000000 </v>
   <v>       0.40000000       0.10000000       0.50000000 </v>
   <v>       0.20000000       0.20000000       0.50000000 </v>
   <v>       0.30000000       0.20000000       0.50000000 </v>
   <v>       0.40000000       0.20000000       0.50000000 </v>
   <v>       0.30000000       0.30000000       0.50000000 </v>
  </varray>
  <varray name="weights" >
   <v>       0.00125000 </v>
   <v>       0.00750000 </v>
   <v>       0.00750000 </v>
   <v>       0.00750000 </v>
   <v>       0.00750000 </v>
   <v>       0.00375000 </v>
   <v>       0.00750000 </v>
   <v>       0.01500000 </v>
   <v>       0.01500000 </v>
   <v>       0.01500000 </v>
   <v>       0.00750000 </v>
   <v>       0.01500000 </v>
   <v>       0.00750000 </v>
   <v>       0.00750000 </v>
   <v>       0.00250000 </v>
   <v>       0.01500000 </v>
   <v>       0.01500000 </v>
   <v>       0.01500000 </v>
   <v>       0.01500000 </v>
   <v>       0.00750000 </v>
   <v>       0.01500000 </v>
   <v>       0.03000000 </v>
   <v>       0.03000000 </v>
   <v>       0.03000000 </v>
   <v>       0.01500000 </v>
   <v>       0.03000000 </v>
   <v>       0.01500000 </v>
   <v>       0.01500000 </v>
   <v>       0.00250000 </v>
   <v>       0.01500000 </v>
   <v>       0.01500000 </v>
   <v>       0.01500000 </v>
   <v>       0.01500000 </v>
   <v>       0.00750000 </v>
   <v>       0.01500000 </v>
   <v>       0.03000000 </v>
   <v>       0.03000000 </v>
   <v>       0.03000000 </v>
   <v>       0.01500000 </v>
   <v>       0.03000000 </v>
   <v>       0.01500000 </v>
   <v>       0.01500000 </v>
   <v>       0.00250000 </v>
   <v>       0.01500000 </v>
   <v>       0.01500000 </v>
   <v>       0.01500000 </v>
   <v>       0.01500000 </v>
   <v>       0.00750000 </v>
   <v>       0.01500000 </v>
   <v>       0.03000000 </v>
   <v>       0.03000000 </v>
   <v>       0.03000000 </v>
   <v>       0.01500000 </v>
   <v>       0.03000000 </v>
   <v>       0.01500000 </v>
   <v>       0.01500000 </v>
   <v>       0.00125000 </v>
   <v>       0.00750000 </v>
   <v>       0.00750000 </v>
   <v>       0.00750000 </v>
   <v>       0.00750000 </v>
   <v>       0.00375000 </v>
   <v>       0.00750000 </v>
   <v>       0.01500000 </v>
   <v>       0.01500000 </v>
   <v>       0.01500000 </v>
   <v>       0.00750000 </v>
   <v>       0.01500000 </v>
   <v>       0.00750000 </v>
   <v>       0.00750000 </v>
  </varray>
  <varray name="tetrahedronlist"  type="int" >
   <v type="int" >        8        1        2        2       16 </v>
   <v type="int" >        8        2        2        7       16 </v>
   <v type="int" >        4        2        7       16       21 </v>
   <v type="int" >        4        1        2       15       16 </v>
   <v type="int" >        8        2       15       16       16 </v>
   <v type="int" >        8        2       16       16       21 </v>
   <v type="int" >        8        2        3        7       17 </v>
   <v type="int" >        8        3        7        8       17 </v>
   <v type="int" >        4        7        8       17       22 </v>
   <v type="int" >        4        2        7       16       17 </v>
   <v type="int" >        8        7       16       17       21 </v>
   <v type="int" >        8        7       17       21       22 </v>
   <v type="int" >        8        3        4        8       18 </v>
   <v type="int" >        8        4        8        9       18 </v>
   <v type="int" >        4        8        9       18       23 </v>
   <v type="int" >        4        3        8       17       18 </v>
   <v type="int" >        8        8       17       18       22 </v>
   <v type="int" >        8        8       18       22       23 </v>
   <v type="int" >        8        4        5        9       19 </v>
   <v type="int" >        8        5        9       10       19 </v>
   <v type="int" >        4        9       10       19       24 </v>
   <v type="int" >        4        4        9       18       19 </v>
   <v type="int" >        8        9       18       19       23 </v>
   <v type="int" >        8        9       19       23       24 </v>
   <v type="int" >        8        5        6       10       20 </v>
   <v type="int" >        4        6       10       10       20 </v>
   <v type="int" >        4       10       10       20       24 </v>
   <v type="int" >        4        5       10       19       20 </v>
   <v type="int" >        8       10       19       20       24 </v>
   <v type="int" >        8       10       20       24       24 </v>
   <v type="int" >        8        5        6       10       19 </v>
   <v type="int" >        4        9       10       19       23 </v>
   <v type="int" >        4        6       10       19       20 </v>
   <v type="int" >        8       10       19       23       24 </v>
   <v type="int" >        8        4        5        9       18 </v>
   <v type="int" >        4        8        9       18       22 </v>
   <v type="int" >        4        5        9       18       19 </v>
   <v type="int" >        8        9       18       22       23 </v>
   <v type="int" >        8        3        4        8       17 </v>
   <v type="int" >        4        7        8       17       21 </v>
   <v type="int" >        4        4        8       17       18 </v>
   <v type="int" >        8        8       17       21       22 </v>
   <v type="int" >        8        2        3        7       16 </v>
   <v type="int" >        4        2        7       16       16 </v>
   <v type="int" >        4        3        7       16       17 </v>
   <v type="int" >        4        7       16       16       21 </v>
   <v type="int" >        4        1        2        2       15 </v>
   <v type="int" >        4        2        2       15       16 </v>
   <v type="int" >        8        2        3        7       21 </v>
   <v type="int" >        8        3        7        8       21 </v>
   <v type="int" >        4        3        8       21       22 </v>
   <v type="int" >        4        2        3       16       21 </v>
   <v type="int" >        8        3       16       17       21 </v>
   <v type="int" >        8        3       17       21       22 </v>
   <v type="int" >        8        7        8        8       22 </v>
   <v type="int" >        8        8        8       11       22 </v>
   <v type="int" >        4        8       11       22       25 </v>
   <v type="int" >        4        7        8       21       22 </v>
   <v type="int" >        8        8       21       22       22 </v>
   <v type="int" >        8        8       22       22       25 </v>
   <v type="int" >        8        8        9       11       23 </v>
   <v type="int" >        8        9       11       12       23 </v>
   <v type="int" >        4       11       12       23       26 </v>
   <v type="int" >        4        8       11       22       23 </v>
   <v type="int" >        8       11       22       23       25 </v>
   <v type="int" >        8       11       23       25       26 </v>
   <v type="int" >        8        9       10       12       24 </v>
   <v type="int" >        8       10       12       13       24 </v>
   <v type="int" >        4       12       13       24       27 </v>
   <v type="int" >        4        9       12       23       24 </v>
   <v type="int" >        8       12       23       24       26 </v>
   <v type="int" >        8       12       24       26       27 </v>
   <v type="int" >        8       10       10       13       24 </v>
   <v type="int" >        4       12       13       24       26 </v>
   <v type="int" >        4       10       13       24       24 </v>
   <v type="int" >        4       13       24       24       27 </v>
   <v type="int" >        8       13       24       26       27 </v>
   <v type="int" >        8        9       10       12       23 </v>
   <v type="int" >        4       11       12       23       25 </v>
   <v type="int" >        4       10       12       23       24 </v>
   <v type="int" >        8       12       23       25       26 </v>
   <v type="int" >        8        8        9       11       22 </v>
   <v type="int" >        4        8       11       22       22 </v>
   <v type="int" >        4        9       11       22       23 </v>
   <v type="int" >        4       11       22       22       25 </v>
   <v type="int" >        4        7        8        8       21 </v>
   <v type="int" >        4        3        8       17       21 </v>
   <v type="int" >        4        8        8       21       22 </v>
   <v type="int" >        4        3        7       16       21 </v>
   <v type="int" >        8        3        4        8       22 </v>
   <v type="int" >        8        4        8        9       22 </v>
   <v type="int" >        4        4        9       22       23 </v>
   <v type="int" >        4        3        4       17       22 </v>
   <v type="int" >        8        4       17       18       22 </v>
   <v type="int" >        8        4       18       22       23 </v>
   <v type="int" >        8        8        9       11       25 </v>
   <v type="int" >        8        9       11       12       25 </v>
   <v type="int" >        4        9       12       25       26 </v>
   <v type="int" >        4        8        9       22       25 </v>
   <v type="int" >        8        9       22       23       25 </v>
   <v type="int" >        8        9       23       25       26 </v>
   <v type="int" >        8       11       12       12       26 </v>
   <v type="int" >        8       12       12       14       26 </v>
   <v type="int" >        4       12       14       26       28 </v>
   <v type="int" >        4       11       12       25       26 </v>
   <v type="int" >        8       12       25       26       26 </v>
   <v type="int" >        8       12       26       26       28 </v>
   <v type="int" >        8       12       13       14       27 </v>
   <v type="int" >        4       13       14       14       27 </v>
   <v type="int" >        4       14       14       27       28 </v>
   <v type="int" >        4       12       14       26       27 </v>
   <v type="int" >        8       14       26       27       28 </v>
   <v type="int" >        8       14       27       28       28 </v>
   <v type="int" >        8       12       13       14       26 </v>
   <v type="int" >        4       12       14       26       26 </v>
   <v type="int" >        4       13       14       26       27 </v>
   <v type="int" >        4       14       26       26       28 </v>
   <v type="int" >        4       11       12       12       25 </v>
   <v type="int" >        4        9       12       23       25 </v>
   <v type="int" >        4       12       12       25       26 </v>
   <v type="int" >        4        4        9       18       22 </v>
   <v type="int" >        4        9       11       22       25 </v>
   <v type="int" >        4        4        8       17       22 </v>
   <v type="int" >        8        4        5        9       23 </v>
   <v type="int" >        8        5        9       10       23 </v>
   <v type="int" >        4        5       10       23       24 </v>
   <v type="int" >        4        4        5       18       23 </v>
   <v type="int" >        8        5       18       19       23 </v>
   <v type="int" >        8        5       19       23       24 </v>
   <v type="int" >        8        9       10       12       26 </v>
   <v type="int" >        8       10       12       13       26 </v>
   <v type="int" >        4       10       13       26       27 </v>
   <v type="int" >        4        9       10       23       26 </v>
   <v type="int" >        8       10       23       24       26 </v>
   <v type="int" >        8       10       24       26       27 </v>
   <v type="int" >        8       12       13       14       28 </v>
   <v type="int" >        8       13       14       14       28 </v>
   <v type="int" >        4       13       14       28       28 </v>
   <v type="int" >        4       12       13       26       28 </v>
   <v type="int" >        8       13       26       27       28 </v>
   <v type="int" >        4       13       27       28       28 </v>
   <v type="int" >        4       14       14       14       28 </v>
   <v type="int" >        4       13       14       27       28 </v>
   <v type="int" >        4       14       14       28       28 </v>
   <v type="int" >        4       14       28       28       28 </v>
   <v type="int" >        4       10       13       24       26 </v>
   <v type="int" >        4       13       14       26       28 </v>
   <v type="int" >        4        5       10       19       23 </v>
   <v type="int" >        4       10       12       23       26 </v>
   <v type="int" >        4        5        9       18       23 </v>
   <v type="int" >        8        5        6       10       24 </v>
   <v type="int" >        8        6       10       10       24 </v>
   <v type="int" >        4        6       10       24       24 </v>
   <v type="int" >        4        5        6       19       24 </v>
   <v type="int" >        8        6       19       20       24 </v>
   <v type="int" >        4        6       20       24       24 </v>
   <v type="int" >        4       10       10       13       27 </v>
   <v type="int" >        8       10       12       13       27 </v>
   <v type="int" >        4       10       12       26       27 </v>
   <v type="int" >        4       10       10       24       27 </v>
   <v type="int" >        8       10       24       24       27 </v>
   <v type="int" >        4       12       12       14       28 </v>
   <v type="int" >        4       12       12       26       28 </v>
   <v type="int" >        4       12       13       27       28 </v>
   <v type="int" >        8       12       26       27       28 </v>
   <v type="int" >        4       10       12       24       27 </v>
   <v type="int" >        4       12       14       27       28 </v>
   <v type="int" >        4        6       10       20       24 </v>
   <v type="int" >        4       10       13       24       27 </v>
   <v type="int" >        4        6       10       19       24 </v>
   <v type="int" >        8        5        9       10       24 </v>
   <v type="int" >        4        5        9       23       24 </v>
   <v type="int" >        4        5        6       20       24 </v>
   <v type="int" >        8        5       19       20       24 </v>
   <v type="int" >        8        9       11       12       26 </v>
   <v type="int" >        4        9       11       25       26 </v>
   <v type="int" >        4        9       10       24       26 </v>
   <v type="int" >        8        9       23       24       26 </v>
   <v type="int" >        4        9       11       23       26 </v>
   <v type="int" >        4       11       12       26       26 </v>
   <v type="int" >        4       11       25       26       26 </v>
   <v type="int" >        4        5        9       19       24 </v>
   <v type="int" >        4        9       12       24       26 </v>
   <v type="int" >        4        5       10       20       24 </v>
   <v type="int" >        8        4        8        9       23 </v>
   <v type="int" >        4        4        8       22       23 </v>
   <v type="int" >        4        4        5       19       23 </v>
   <v type="int" >        8        4       18       19       23 </v>
   <v type="int" >        4        8        8       11       25 </v>
   <v type="int" >        4        8        8       22       25 </v>
   <v type="int" >        4        8        9       23       25 </v>
   <v type="int" >        8        8       22       23       25 </v>
   <v type="int" >        4        4        8       18       23 </v>
   <v type="int" >        4        8       11       23       25 </v>
   <v type="int" >        4        4        9       19       23 </v>
   <v type="int" >        8        3        7        8       22 </v>
   <v type="int" >        4        3        7       21       22 </v>
   <v type="int" >        4        3        4       18       22 </v>
   <v type="int" >        8        3       17       18       22 </v>
   <v type="int" >        4        3        7       17       22 </v>
   <v type="int" >        4        7        8       22       22 </v>
   <v type="int" >        4        7       21       22       22 </v>
   <v type="int" >        4        3        8       18       22 </v>
   <v type="int" >        4        2        2        7       21 </v>
   <v type="int" >        4        2        2       16       21 </v>
   <v type="int" >        4        2        3       17       21 </v>
   <v type="int" >        8        2       16       17       21 </v>
   <v type="int" >        4        2        7       17       21 </v>
   <v type="int" >        4        1        2       16       16 </v>
   <v type="int" >        4        1       15       16       16 </v>
   <v type="int" >        8       15       16       16       30 </v>
   <v type="int" >        8       16       16       21       30 </v>
   <v type="int" >        4       16       21       30       35 </v>
   <v type="int" >        4       15       16       29       30 </v>
   <v type="int" >        8       16       29       30       30 </v>
   <v type="int" >        8       16       30       30       35 </v>
   <v type="int" >        8       16       17       21       31 </v>
   <v type="int" >        8       17       21       22       31 </v>
   <v type="int" >        4       21       22       31       36 </v>
   <v type="int" >        4       16       21       30       31 </v>
   <v type="int" >        8       21       30       31       35 </v>
   <v type="int" >        8       21       31       35       36 </v>
   <v type="int" >        8       17       18       22       32 </v>
   <v type="int" >        8       18       22       23       32 </v>
   <v type="int" >        4       22       23       32       37 </v>
   <v type="int" >        4       17       22       31       32 </v>
   <v type="int" >        8       22       31       32       36 </v>
   <v type="int" >        8       22       32       36       37 </v>
   <v type="int" >        8       18       19       23       33 </v>
   <v type="int" >        8       19       23       24       33 </v>
   <v type="int" >        4       23       24       33       38 </v>
   <v type="int" >        4       18       23       32       33 </v>
   <v type="int" >        8       23       32       33       37 </v>
   <v type="int" >        8       23       33       37       38 </v>
   <v type="int" >        8       19       20       24       34 </v>
   <v type="int" >        4       20       24       24       34 </v>
   <v type="int" >        4       24       24       34       38 </v>
   <v type="int" >        4       19       24       33       34 </v>
   <v type="int" >        8       24       33       34       38 </v>
   <v type="int" >        8       24       34       38       38 </v>
   <v type="int" >        8       19       20       24       33 </v>
   <v type="int" >        4       23       24       33       37 </v>
   <v type="int" >        4       20       24       33       34 </v>
   <v type="int" >        8       24       33       37       38 </v>
   <v type="int" >        8       18       19       23       32 </v>
   <v type="int" >        4       22       23       32       36 </v>
   <v type="int" >        4       19       23       32       33 </v>
   <v type="int" >        8       23       32       36       37 </v>
   <v type="int" >        8       17       18       22       31 </v>
   <v type="int" >        4       21       22       31       35 </v>
   <v type="int" >        4       18       22       31       32 </v>
   <v type="int" >        8       22       31       35       36 </v>
   <v type="int" >        8       16       17       21       30 </v>
   <v type="int" >        4       16       21       30       30 </v>
   <v type="int" >        4       17       21       30       31 </v>
   <v type="int" >        4       21       30       30       35 </v>
   <v type="int" >        4       15       16       16       29 </v>
   <v type="int" >        4       16       16       29       30 </v>
   <v type="int" >        8       16       17       21       35 </v>
   <v type="int" >        8       17       21       22       35 </v>
   <v type="int" >        4       17       22       35       36 </v>
   <v type="int" >        4       16       17       30       35 </v>
   <v type="int" >        8       17       30       31       35 </v>
   <v type="int" >        8       17       31       35       36 </v>
   <v type="int" >        8       21       22       22       36 </v>
   <v type="int" >        8       22       22       25       36 </v>
   <v type="int" >        4       22       25       36       39 </v>
   <v type="int" >        4       21       22       35       36 </v>
   <v type="int" >        8       22       35       36       36 </v>
   <v type="int" >        8       22       36       36       39 </v>
   <v type="int" >        8       22       23       25       37 </v>
   <v type="int" >        8       23       25       26       37 </v>
   <v type="int" >        4       25       26       37       40 </v>
   <v type="int" >        4       22       25       36       37 </v>
   <v type="int" >        8       25       36       37       39 </v>
   <v type="int" >        8       25       37       39       40 </v>
   <v type="int" >        8       23       24       26       38 </v>
   <v type="int" >        8       24       26       27       38 </v>
   <v type="int" >        4       26       27       38       41 </v>
   <v type="int" >        4       23       26       37       38 </v>
   <v type="int" >        8       26       37       38       40 </v>
   <v type="int" >        8       26       38       40       41 </v>
   <v type="int" >        8       24       24       27       38 </v>
   <v type="int" >        4       26       27       38       40 </v>
   <v type="int" >        4       24       27       38       38 </v>
   <v type="int" >        4       27       38       38       41 </v>
   <v type="int" >        8       27       38       40       41 </v>
   <v type="int" >        8       23       24       26       37 </v>
   <v type="int" >        4       25       26       37       39 </v>
   <v type="int" >        4       24       26       37       38 </v>
   <v type="int" >        8       26       37       39       40 </v>
   <v type="int" >        8       22       23       25       36 </v>
   <v type="int" >        4       22       25       36       36 </v>
   <v type="int" >        4       23       25       36       37 </v>
   <v type="int" >        4       25       36       36       39 </v>
   <v type="int" >        4       21       22       22       35 </v>
   <v type="int" >        4       17       22       31       35 </v>
   <v type="int" >        4       22       22       35       36 </v>
   <v type="int" >        4       17       21       30       35 </v>
   <v type="int" >        8       17       18       22       36 </v>
   <v type="int" >        8       18       22       23       36 </v>
   <v type="int" >        4       18       23       36       37 </v>
   <v type="int" >        4       17       18       31       36 </v>
   <v type="int" >        8       18       31       32       36 </v>
   <v type="int" >        8       18       32       36       37 </v>
   <v type="int" >        8       22       23       25       39 </v>
   <v type="int" >        8       23       25       26       39 </v>
   <v type="int" >        4       23       26       39       40 </v>
   <v type="int" >        4       22       23       36       39 </v>
   <v type="int" >        8       23       36       37       39 </v>
   <v type="int" >        8       23       37       39       40 </v>
   <v type="int" >        8       25       26       26       40 </v>
   <v type="int" >        8       26       26       28       40 </v>
   <v type="int" >        4       26       28       40       42 </v>
   <v type="int" >        4       25       26       39       40 </v>
   <v type="int" >        8       26       39       40       40 </v>
   <v type="int" >        8       26       40       40       42 </v>
   <v type="int" >        8       26       27       28       41 </v>
   <v type="int" >        4       27       28       28       41 </v>
   <v type="int" >        4       28       28       41       42 </v>
   <v type="int" >        4       26       28       40       41 </v>
   <v type="int" >        8       28       40       41       42 </v>
   <v type="int" >        8       28       41       42       42 </v>
   <v type="int" >        8       26       27       28       40 </v>
   <v type="int" >        4       26       28       40       40 </v>
   <v type="int" >        4       27       28       40       41 </v>
   <v type="int" >        4       28       40       40       42 </v>
   <v type="int" >        4       25       26       26       39 </v>
   <v type="int" >        4       23       26       37       39 </v>
   <v type="int" >        4       26       26       39       40 </v>
   <v type="int" >        4       18       23       32       36 </v>
   <v type="int" >        4       23       25       36       39 </v>
   <v type="int" >        4       18       22       31       36 </v>
   <v type="int" >        8       18       19       23       37 </v>
   <v type="int" >        8       19       23       24       37 </v>
   <v type="int" >        4       19       24       37       38 </v>
   <v type="int" >        4       18       19       32       37 </v>
   <v type="int" >        8       19       32       33       37 </v>
   <v type="int" >        8       19       33       37       38 </v>
   <v type="int" >        8       23       24       26       40 </v>
   <v type="int" >        8       24       26       27       40 </v>
   <v type="int" >        4       24       27       40       41 </v>
   <v type="int" >        4       23       24       37       40 </v>
   <v type="int" >        8       24       37       38       40 </v>
   <v type="int" >        8       24       38       40       41 </v>
   <v type="int" >        8       26       27       28       42 </v>
   <v type="int" >        8       27       28       28       42 </v>
   <v type="int" >        4       27       28       42       42 </v>
   <v type="int" >        4       26       27       40       42 </v>
   <v type="int" >        8       27       40       41       42 </v>
   <v type="int" >        4       27       41       42       42 </v>
   <v type="int" >        4       28       28       28       42 </v>
   <v type="int" >        4       27       28       41       42 </v>
   <v type="int" >        4       28       28       42       42 </v>
   <v type="int" >        4       28       42       42       42 </v>
   <v type="int" >        4       24       27       38       40 </v>
   <v type="int" >        4       27       28       40       42 </v>
   <v type="int" >        4       19       24       33       37 </v>
   <v type="int" >        4       24       26       37       40 </v>
   <v type="int" >        4       19       23       32       37 </v>
   <v type="int" >        8       19       20       24       38 </v>
   <v type="int" >        8       20       24       24       38 </v>
   <v type="int" >        4       20       24       38       38 </v>
   <v type="int" >        4       19       20       33       38 </v>
   <v type="int" >        8       20       33       34       38 </v>
   <v type="int" >        4       20       34       38       38 </v>
   <v type="int" >        4       24       24       27       41 </v>
   <v type="int" >        8       24       26       27       41 </v>
   <v type="int" >        4       24       26       40       41 </v>
   <v type="int" >        4       24       24       38       41 </v>
   <v type="int" >        8       24       38       38       41 </v>
   <v type="int" >        4       26       26       28       42 </v>
   <v type="int" >        4       26       26       40       42 </v>
   <v type="int" >        4       26       27       41       42 </v>
   <v type="int" >        8       26       40       41       42 </v>
   <v type="int" >        4       24       26       38       41 </v>
   <v type="int" >        4       26       28       41       42 </v>
   <v type="int" >        4       20       24       34       38 </v>
   <v type="int" >        4       24       27       38       41 </v>
   <v type="int" >        4       20       24       33       38 </v>
   <v type="int" >        8       19       23       24       38 </v>
   <v type="int" >        4       19       23       37       38 </v>
   <v type="int" >        4       19       20       34       38 </v>
   <v type="int" >        8       19       33       34       38 </v>
   <v type="int" >        8       23       25       26       40 </v>
   <v type="int" >        4       23       25       39       40 </v>
   <v type="int" >        4       23       24       38       40 </v>
   <v type="int" >        8       23       37       38       40 </v>
   <v type="int" >        4       23       25       37       40 </v>
   <v type="int" >        4       25       26       40       40 </v>
   <v type="int" >        4       25       39       40       40 </v>
   <v type="int" >        4       19       23       33       38 </v>
   <v type="int" >        4       23       26       38       40 </v>
   <v type="int" >        4       19       24       34       38 </v>
   <v type="int" >        8       18       22       23       37 </v>
   <v type="int" >        4       18       22       36       37 </v>
   <v type="int" >        4       18       19       33       37 </v>
   <v type="int" >        8       18       32       33       37 </v>
   <v type="int" >        4       22       22       25       39 </v>
   <v type="int" >        4       22       22       36       39 </v>
   <v type="int" >        4       22       23       37       39 </v>
   <v type="int" >        8       22       36       37       39 </v>
   <v type="int" >        4       18       22       32       37 </v>
   <v type="int" >        4       22       25       37       39 </v>
   <v type="int" >        4       18       23       33       37 </v>
   <v type="int" >        8       17       21       22       36 </v>
   <v type="int" >        4       17       21       35       36 </v>
   <v type="int" >        4       17       18       32       36 </v>
   <v type="int" >        8       17       31       32       36 </v>
   <v type="int" >        4       17       21       31       36 </v>
   <v type="int" >        4       21       22       36       36 </v>
   <v type="int" >        4       21       35       36       36 </v>
   <v type="int" >        4       17       22       32       36 </v>
   <v type="int" >        4       16       16       21       35 </v>
   <v type="int" >        4       16       16       30       35 </v>
   <v type="int" >        4       16       17       31       35 </v>
   <v type="int" >        8       16       30       31       35 </v>
   <v type="int" >        4       16       21       31       35 </v>
   <v type="int" >        4       15       16       30       30 </v>
   <v type="int" >        4       15       29       30       30 </v>
   <v type="int" >        8       29       30       30       44 </v>
   <v type="int" >        8       30       30       35       44 </v>
   <v type="int" >        4       30       35       44       49 </v>
   <v type="int" >        4       29       30       43       44 </v>
   <v type="int" >        8       30       43       44       44 </v>
   <v type="int" >        8       30       44       44       49 </v>
   <v type="int" >        8       30       31       35       45 </v>
   <v type="int" >        8       31       35       36       45 </v>
   <v type="int" >        4       35       36       45       50 </v>
   <v type="int" >        4       30       35       44       45 </v>
   <v type="int" >        8       35       44       45       49 </v>
   <v type="int" >        8       35       45       49       50 </v>
   <v type="int" >        8       31       32       36       46 </v>
   <v type="int" >        8       32       36       37       46 </v>
   <v type="int" >        4       36       37       46       51 </v>
   <v type="int" >        4       31       36       45       46 </v>
   <v type="int" >        8       36       45       46       50 </v>
   <v type="int" >        8       36       46       50       51 </v>
   <v type="int" >        8       32       33       37       47 </v>
   <v type="int" >        8       33       37       38       47 </v>
   <v type="int" >        4       37       38       47       52 </v>
   <v type="int" >        4       32       37       46       47 </v>
   <v type="int" >        8       37       46       47       51 </v>
   <v type="int" >        8       37       47       51       52 </v>
   <v type="int" >        8       33       34       38       48 </v>
   <v type="int" >        4       34       38       38       48 </v>
   <v type="int" >        4       38       38       48       52 </v>
   <v type="int" >        4       33       38       47       48 </v>
   <v type="int" >        8       38       47       48       52 </v>
   <v type="int" >        8       38       48       52       52 </v>
   <v type="int" >        8       33       34       38       47 </v>
   <v type="int" >        4       37       38       47       51 </v>
   <v type="int" >        4       34       38       47       48 </v>
   <v type="int" >        8       38       47       51       52 </v>
   <v type="int" >        8       32       33       37       46 </v>
   <v type="int" >        4       36       37       46       50 </v>
   <v type="int" >        4       33       37       46       47 </v>
   <v type="int" >        8       37       46       50       51 </v>
   <v type="int" >        8       31       32       36       45 </v>
   <v type="int" >        4       35       36       45       49 </v>
   <v type="int" >        4       32       36       45       46 </v>
   <v type="int" >        8       36       45       49       50 </v>
   <v type="int" >        8       30       31       35       44 </v>
   <v type="int" >        4       30       35       44       44 </v>
   <v type="int" >        4       31       35       44       45 </v>
   <v type="int" >        4       35       44       44       49 </v>
   <v type="int" >        4       29       30       30       43 </v>
   <v type="int" >        4       30       30       43       44 </v>
   <v type="int" >        8       30       31       35       49 </v>
   <v type="int" >        8       31       35       36       49 </v>
   <v type="int" >        4       31       36       49       50 </v>
   <v type="int" >        4       30       31       44       49 </v>
   <v type="int" >        8       31       44       45       49 </v>
   <v type="int" >        8       31       45       49       50 </v>
   <v type="int" >        8       35       36       36       50 </v>
   <v type="int" >        8       36       36       39       50 </v>
   <v type="int" >        4       36       39       50       53 </v>
   <v type="int" >        4       35       36       49       50 </v>
   <v type="int" >        8       36       49       50       50 </v>
   <v type="int" >        8       36       50       50       53 </v>
   <v type="int" >        8       36       37       39       51 </v>
   <v type="int" >        8       37       39       40       51 </v>
   <v type="int" >        4       39       40       51       54 </v>
   <v type="int" >        4       36       39       50       51 </v>
   <v type="int" >        8       39       50       51       53 </v>
   <v type="int" >        8       39       51       53       54 </v>
   <v type="int" >        8       37       38       40       52 </v>
   <v type="int" >        8       38       40       41       52 </v>
   <v type="int" >        4       40       41       52       55 </v>
   <v type="int" >        4       37       40       51       52 </v>
   <v type="int" >        8       40       51       52       54 </v>
   <v type="int" >        8       40       52       54       55 </v>
   <v type="int" >        8       38       38       41       52 </v>
   <v type="int" >        4       40       41       52       54 </v>
   <v type="int" >        4       38       41       52       52 </v>
   <v type="int" >        4       41       52       52       55 </v>
   <v type="int" >        8       41       52       54       55 </v>
   <v type="int" >        8       37       38       40       51 </v>
   <v type="int" >        4       39       40       51       53 </v>
   <v type="int" >        4       38       40       51       52 </v>
   <v type="int" >        8       40       51       53       54 </v>
   <v type="int" >        8       36       37       39       50 </v>
   <v type="int" >        4       36       39       50       50 </v>
   <v type="int" >        4       37       39       50       51 </v>
   <v type="int" >        4       39       50       50       53 </v>
   <v type="int" >        4       35       36       36       49 </v>
   <v type="int" >        4       31       36       45       49 </v>
   <v type="int" >        4       36       36       49       50 </v>
   <v type="int" >        4       31       35       44       49 </v>
   <v type="int" >        8       31       32       36       50 </v>
   <v type="int" >        8       32       36       37       50 </v>
   <v type="int" >        4       32       37       50       51 </v>
   <v type="int" >        4       31       32       45       50 </v>
   <v type="int" >        8       32       45       46       50 </v>
   <v type="int" >        8       32       46       50       51 </v>
   <v type="int" >        8       36       37       39       53 </v>
   <v type="int" >        8       37       39       40       53 </v>
   <v type="int" >        4       37       40       53       54 </v>
   <v type="int" >        4       36       37       50       53 </v>
   <v type="int" >        8       37       50       51       53 </v>
   <v type="int" >        8       37       51       53       54 </v>
   <v type="int" >        8       39       40       40       54 </v>
   <v type="int" >        8       40       40       42       54 </v>
   <v type="int" >        4       40       42       54       56 </v>
   <v type="int" >        4       39       40       53       54 </v>
   <v type="int" >        8       40       53       54       54 </v>
   <v type="int" >        8       40       54       54       56 </v>
   <v type="int" >        8       40       41       42       55 </v>
   <v type="int" >        4       41       42       42       55 </v>
   <v type="int" >        4       42       42       55       56 </v>
   <v type="int" >        4       40       42       54       55 </v>
   <v type="int" >        8       42       54       55       56 </v>
   <v type="int" >        8       42       55       56       56 </v>
   <v type="int" >        8       40       41       42       54 </v>
   <v type="int" >        4       40       42       54       54 </v>
   <v type="int" >        4       41       42       54       55 </v>
   <v type="int" >        4       42       54       54       56 </v>
   <v type="int" >        4       39       40       40       53 </v>
   <v type="int" >        4       37       40       51       53 </v>
   <v type="int" >        4       40       40       53       54 </v>
   <v type="int" >        4       32       37       46       50 </v>
   <v type="int" >        4       37       39       50       53 </v>
   <v type="int" >        4       32       36       45       50 </v>
   <v type="int" >        8       32       33       37       51 </v>
   <v type="int" >        8       33       37       38       51 </v>
   <v type="int" >        4       33       38       51       52 </v>
   <v type="int" >        4       32       33       46       51 </v>
   <v type="int" >        8       33       46       47       51 </v>
   <v type="int" >        8       33       47       51       52 </v>
   <v type="int" >        8       37       38       40       54 </v>
   <v type="int" >        8       38       40       41       54 </v>
   <v type="int" >        4       38       41       54       55 </v>
   <v type="int" >        4       37       38       51       54 </v>
   <v type="int" >        8       38       51       52       54 </v>
   <v type="int" >        8       38       52       54       55 </v>
   <v type="int" >        8       40       41       42       56 </v>
   <v type="int" >        8       41       42       42       56 </v>
   <v type="int" >        4       41       42       56       56 </v>
   <v type="int" >        4       40       41       54       56 </v>
   <v type="int" >        8       41       54       55       56 </v>
   <v type="int" >        4       41       55       56       56 </v>
   <v type="int" >        4       42       42       42       56 </v>
   <v type="int" >        4       41       42       55       56 </v>
   <v type="int" >        4       42       42       56       56 </v>
   <v type="int" >        4       42       56       56       56 </v>
   <v type="int" >        4       38       41       52       54 </v>
   <v type="int" >        4       41       42       54       56 </v>
   <v type="int" >        4       33       38       47       51 </v>
   <v type="int" >        4       38       40       51       54 </v>
   <v type="int" >        4       33       37       46       51 </v>
   <v type="int" >        8       33       34       38       52 </v>
   <v type="int" >        8       34       38       38       52 </v>
   <v type="int" >        4       34       38       52       52 </v>
   <v type="int" >        4       33       34       47       52 </v>
   <v type="int" >        8       34       47       48       52 </v>
   <v type="int" >        4       34       48       52       52 </v>
   <v type="int" >        4       38       38       41       55 </v>
   <v type="int" >        8       38       40       41       55 </v>
   <v type="int" >        4       38       40       54       55 </v>
   <v type="int" >        4       38       38       52       55 </v>
   <v type="int" >        8       38       52       52       55 </v>
   <v type="int" >        4       40       40       42       56 </v>
   <v type="int" >        4       40       40       54       56 </v>
   <v type="int" >        4       40       41       55       56 </v>
   <v type="int" >        8       40       54       55       56 </v>
   <v type="int" >        4       38       40       52       55 </v>
   <v type="int" >        4       40       42       55       56 </v>
   <v type="int" >        4       34       38       48       52 </v>
   <v type="int" >        4       38       41       52       55 </v>
   <v type="int" >        4       34       38       47       52 </v>
   <v type="int" >        8       33       37       38       52 </v>
   <v type="int" >        4       33       37       51       52 </v>
   <v type="int" >        4       33       34       48       52 </v>
   <v type="int" >        8       33       47       48       52 </v>
   <v type="int" >        8       37       39       40       54 </v>
   <v type="int" >        4       37       39       53       54 </v>
   <v type="int" >        4       37       38       52       54 </v>
   <v type="int" >        8       37       51       52       54 </v>
   <v type="int" >        4       37       39       51       54 </v>
   <v type="int" >        4       39       40       54       54 </v>
   <v type="int" >        4       39       53       54       54 </v>
   <v type="int" >        4       33       37       47       52 </v>
   <v type="int" >        4       37       40       52       54 </v>
   <v type="int" >        4       33       38       48       52 </v>
   <v type="int" >        8       32       36       37       51 </v>
   <v type="int" >        4       32       36       50       51 </v>
   <v type="int" >        4       32       33       47       51 </v>
   <v type="int" >        8       32       46       47       51 </v>
   <v type="int" >        4       36       36       39       53 </v>
   <v type="int" >        4       36       36       50       53 </v>
   <v type="int" >        4       36       37       51       53 </v>
   <v type="int" >        8       36       50       51       53 </v>
   <v type="int" >        4       32       36       46       51 </v>
   <v type="int" >        4       36       39       51       53 </v>
   <v type="int" >        4       32       37       47       51 </v>
   <v type="int" >        8       31       35       36       50 </v>
   <v type="int" >        4       31       35       49       50 </v>
   <v type="int" >        4       31       32       46       50 </v>
   <v type="int" >        8       31       45       46       50 </v>
   <v type="int" >        4       31       35       45       50 </v>
   <v type="int" >        4       35       36       50       50 </v>
   <v type="int" >        4       35       49       50       50 </v>
   <v type="int" >        4       31       36       46       50 </v>
   <v type="int" >        4       30       30       35       49 </v>
   <v type="int" >        4       30       30       44       49 </v>
   <v type="int" >        4       30       31       45       49 </v>
   <v type="int" >        8       30       44       45       49 </v>
   <v type="int" >        4       30       35       45       49 </v>
   <v type="int" >        4       29       30       44       44 </v>
   <v type="int" >        4       29       43       44       44 </v>
   <v type="int" >        8       43       44       44       58 </v>
   <v type="int" >        8       44       44       49       58 </v>
   <v type="int" >        4       44       49       58       63 </v>
   <v type="int" >        4       43       44       57       58 </v>
   <v type="int" >        8       44       57       58       58 </v>
   <v type="int" >        8       44       58       58       63 </v>
   <v type="int" >        8       44       45       49       59 </v>
   <v type="int" >        8       45       49       50       59 </v>
   <v type="int" >        4       49       50       59       64 </v>
   <v type="int" >        4       44       49       58       59 </v>
   <v type="int" >        8       49       58       59       63 </v>
   <v type="int" >        8       49       59       63       64 </v>
   <v type="int" >        8       45       46       50       60 </v>
   <v type="int" >        8       46       50       51       60 </v>
   <v type="int" >        4       50       51       60       65 </v>
   <v type="int" >        4       45       50       59       60 </v>
   <v type="int" >        8       50       59       60       64 </v>
   <v type="int" >        8       50       60       64       65 </v>
   <v type="int" >        8       46       47       51       61 </v>
   <v type="int" >        8       47       51       52       61 </v>
   <v type="int" >        4       51       52       61       66 </v>
   <v type="int" >        4       46       51       60       61 </v>
   <v type="int" >        8       51       60       61       65 </v>
   <v type="int" >        8       51       61       65       66 </v>
   <v type="int" >        8       47       48       52       62 </v>
   <v type="int" >        4       48       52       52       62 </v>
   <v type="int" >        4       52       52       62       66 </v>
   <v type="int" >        4       47       52       61       62 </v>
   <v type="int" >        8       52       61       62       66 </v>
   <v type="int" >        8       52       62       66       66 </v>
   <v type="int" >        8       47       48       52       61 </v>
   <v type="int" >        4       51       52       61       65 </v>
   <v type="int" >        4       48       52       61       62 </v>
   <v type="int" >        8       52       61       65       66 </v>
   <v type="int" >        8       46       47       51       60 </v>
   <v type="int" >        4       50       51       60       64 </v>
   <v type="int" >        4       47       51       60       61 </v>
   <v type="int" >        8       51       60       64       65 </v>
   <v type="int" >        8       45       46       50       59 </v>
   <v type="int" >        4       49       50       59       63 </v>
   <v type="int" >        4       46       50       59       60 </v>
   <v type="int" >        8       50       59       63       64 </v>
   <v type="int" >        8       44       45       49       58 </v>
   <v type="int" >        4       44       49       58       58 </v>
   <v type="int" >        4       45       49       58       59 </v>
   <v type="int" >        4       49       58       58       63 </v>
   <v type="int" >        4       43       44       44       57 </v>
   <v type="int" >        4       44       44       57       58 </v>
   <v type="int" >        8       44       45       49       63 </v>
   <v type="int" >        8       45       49       50       63 </v>
   <v type="int" >        4       45       50       63       64 </v>
   <v type="int" >        4       44       45       58       63 </v>
   <v type="int" >        8       45       58       59       63 </v>
   <v type="int" >        8       45       59       63       64 </v>
   <v type="int" >        8       49       50       50       64 </v>
   <v type="int" >        8       50       50       53       64 </v>
   <v type="int" >        4       50       53       64       67 </v>
   <v type="int" >        4       49       50       63       64 </v>
   <v type="int" >        8       50       63       64       64 </v>
   <v type="int" >        8       50       64       64       67 </v>
   <v type="int" >        8       50       51       53       65 </v>
   <v type="int" >        8       51       53       54       65 </v>
   <v type="int" >        4       53       54       65       68 </v>
   <v type="int" >        4       50       53       64       65 </v>
   <v type="int" >        8       53       64       65       67 </v>
   <v type="int" >        8       53       65       67       68 </v>
   <v type="int" >        8       51       52       54       66 </v>
   <v type="int" >        8       52       54       55       66 </v>
   <v type="int" >        4       54       55       66       69 </v>
   <v type="int" >        4       51       54       65       66 </v>
   <v type="int" >        8       54       65       66       68 </v>
   <v type="int" >        8       54       66       68       69 </v>
   <v type="int" >        8       52       52       55       66 </v>
   <v type="int" >        4       54       55       66       68 </v>
   <v type="int" >        4       52       55       66       66 </v>
   <v type="int" >        4       55       66       66       69 </v>
   <v type="int" >        8       55       66       68       69 </v>
   <v type="int" >        8       51       52       54       65 </v>
   <v type="int" >        4       53       54       65       67 </v>
   <v type="int" >        4       52       54       65       66 </v>
   <v type="int" >        8       54       65       67       68 </v>
   <v type="int" >        8       50       51       53       64 </v>
   <v type="int" >        4       50       53       64       64 </v>
   <v type="int" >        4       51       53       64       65 </v>
   <v type="int" >        4       53       64       64       67 </v>
   <v type="int" >        4       49       50       50       63 </v>
   <v type="int" >        4       45       50       59       63 </v>
   <v type="int" >        4       50       50       63       64 </v>
   <v type="int" >        4       45       49       58       63 </v>
   <v type="int" >        8       45       46       50       64 </v>
   <v type="int" >        8       46       50       51       64 </v>
   <v type="int" >        4       46       51       64       65 </v>
   <v type="int" >        4       45       46       59       64 </v>
   <v type="int" >        8       46       59       60       64 </v>
   <v type="int" >        8       46       60       64       65 </v>
   <v type="int" >        8       50       51       53       67 </v>
   <v type="int" >        8       51       53       54       67 </v>
   <v type="int" >        4       51       54       67       68 </v>
   <v type="int" >        4       50       51       64       67 </v>
   <v type="int" >        8       51       64       65       67 </v>
   <v type="int" >        8       51       65       67       68 </v>
   <v type="int" >        8       53       54       54       68 </v>
   <v type="int" >        8       54       54       56       68 </v>
   <v type="int" >        4       54       56       68       70 </v>
   <v type="int" >        4       53       54       67       68 </v>
   <v type="int" >        8       54       67       68       68 </v>
   <v type="int" >        8       54       68       68       70 </v>
   <v type="int" >        8       54       55       56       69 </v>
   <v type="int" >        4       55       56       56       69 </v>
   <v type="int" >        4       56       56       69       70 </v>
   <v type="int" >        4       54       56       68       69 </v>
   <v type="int" >        8       56       68       69       70 </v>
   <v type="int" >        8       56       69       70       70 </v>
   <v type="int" >        8       54       55       56       68 </v>
   <v type="int" >        4       54       56       68       68 </v>
   <v type="int" >        4       55       56       68       69 </v>
   <v type="int" >        4       56       68       68       70 </v>
   <v type="int" >        4       53       54       54       67 </v>
   <v type="int" >        4       51       54       65       67 </v>
   <v type="int" >        4       54       54       67       68 </v>
   <v type="int" >        4       46       51       60       64 </v>
   <v type="int" >        4       51       53       64       67 </v>
   <v type="int" >        4       46       50       59       64 </v>
   <v type="int" >        8       46       47       51       65 </v>
   <v type="int" >        8       47       51       52       65 </v>
   <v type="int" >        4       47       52       65       66 </v>
   <v type="int" >        4       46       47       60       65 </v>
   <v type="int" >        8       47       60       61       65 </v>
   <v type="int" >        8       47       61       65       66 </v>
   <v type="int" >        8       51       52       54       68 </v>
   <v type="int" >        8       52       54       55       68 </v>
   <v type="int" >        4       52       55       68       69 </v>
   <v type="int" >        4       51       52       65       68 </v>
   <v type="int" >        8       52       65       66       68 </v>
   <v type="int" >        8       52       66       68       69 </v>
   <v type="int" >        8       54       55       56       70 </v>
   <v type="int" >        8       55       56       56       70 </v>
   <v type="int" >        4       55       56       70       70 </v>
   <v type="int" >        4       54       55       68       70 </v>
   <v type="int" >        8       55       68       69       70 </v>
   <v type="int" >        4       55       69       70       70 </v>
   <v type="int" >        4       56       56       56       70 </v>
   <v type="int" >        4       55       56       69       70 </v>
   <v type="int" >        4       56       56       70       70 </v>
   <v type="int" >        4       56       70       70       70 </v>
   <v type="int" >        4       52       55       66       68 </v>
   <v type="int" >        4       55       56       68       70 </v>
   <v type="int" >        4       47       52       61       65 </v>
   <v type="int" >        4       52       54       65       68 </v>
   <v type="int" >        4       47       51       60       65 </v>
   <v type="int" >        8       47       48       52       66 </v>
   <v type="int" >        8       48       52       52       66 </v>
   <v type="int" >        4       48       52       66       66 </v>
   <v type="int" >        4       47       48       61       66 </v>
   <v type="int" >        8       48       61       62       66 </v>
   <v type="int" >        4       48       62       66       66 </v>
   <v type="int" >        4       52       52       55       69 </v>
   <v type="int" >        8       52       54       55       69 </v>
   <v type="int" >        4       52       54       68       69 </v>
   <v type="int" >        4       52       52       66       69 </v>
   <v type="int" >        8       52       66       66       69 </v>
   <v type="int" >        4       54       54       56       70 </v>
   <v type="int" >        4       54       54       68       70 </v>
   <v type="int" >        4       54       55       69       70 </v>
   <v type="int" >        8       54       68       69       70 </v>
   <v type="int" >        4       52       54       66       69 </v>
   <v type="int" >        4       54       56       69       70 </v>
   <v type="int" >        4       48       52       62       66 </v>
   <v type="int" >        4       52       55       66       69 </v>
   <v type="int" >        4       48       52       61       66 </v>
   <v type="int" >        8       47       51       52       66 </v>
   <v type="int" >        4       47       51       65       66 </v>
   <v type="int" >        4       47       48       62       66 </v>
   <v type="int" >        8       47       61       62       66 </v>
   <v type="int" >        8       51       53       54       68 </v>
   <v type="int" >        4       51       53       67       68 </v>
   <v type="int" >        4       51       52       66       68 </v>
   <v type="int" >        8       51       65       66       68 </v>
   <v type="int" >        4       51       53       65       68 </v>
   <v type="int" >        4       53       54       68       68 </v>
   <v type="int" >        4       53       67       68       68 </v>
   <v type="int" >        4       47       51       61       66 </v>
   <v type="int" >        4       51       54       66       68 </v>
   <v type="int" >        4       47       52       62       66 </v>
   <v type="int" >        8       46       50       51       65 </v>
   <v type="int" >        4       46       50       64       65 </v>
   <v type="int" >        4       46       47       61       65 </v>
   <v type="int" >        8       46       60       61       65 </v>
   <v type="int" >        4       50       50       53       67 </v>
   <v type="int" >        4       50       50       64       67 </v>
   <v type="int" >        4       50       51       65       67 </v>
   <v type="int" >        8       50       64       65       67 </v>
   <v type="int" >        4       46       50       60       65 </v>
   <v type="int" >        4       50       53       65       67 </v>
   <v type="int" >        4       46       51       61       65 </v>
   <v type="int" >        8       45       49       50       64 </v>
   <v type="int" >        4       45       49       63       64 </v>
   <v type="int" >        4       45       46       60       64 </v>
   <v type="int" >        8       45       59       60       64 </v>
   <v type="int" >        4       45       49       59       64 </v>
   <v type="int" >        4       49       50       64       64 </v>
   <v type="int" >        4       49       63       64       64 </v>
   <v type="int" >        4       45       50       60       64 </v>
   <v type="int" >        4       44       44       49       63 </v>
   <v type="int" >        4       44       44       58       63 </v>
   <v type="int" >        4       44       45       59       63 </v>
   <v type="int" >        8       44       58       59       63 </v>
   <v type="int" >        4       44       49       59       63 </v>
   <v type="int" >        4       43       44       58       58 </v>
   <v type="int" >        4       43       57       58       58 </v>
  </varray>
  <i name="volumeweight">      0.00020833 </i>
 </kpoints>
 <parameters>
  <separator name="general" >
   <i type="string" name="SYSTEM">unknown system</i>
   <i type="logical" name="LCOMPAT"> F  </i>
  </separator>
  <separator name="electronic" >
   <i type="string" name="PREC">accura</i>
   <i name="ENMAX">    520.00000000</i>
   <i name="ENAUG">    628.94500000</i>
   <i name="EDIFF">      0.00001000</i>
   <i type="int" name="IALGO">    68</i>
   <i type="int" name="IWAVPR">    11</i>
   <i type="int" name="NBANDS">    12</i>
   <i name="NELECT">     14.00000000</i>
   <i type="int" name="TURBO">     0</i>
   <i type="int" name="IRESTART">     0</i>
   <i type="int" name="NREBOOT">     0</i>
   <i type="int" name="NMIN">     0</i>
   <i name="EREF">      0.00000000</i>
   <separator name="electronic smearing" >
    <i type="int" name="ISMEAR">    -5</i>
    <i name="SIGMA">      0.05000000</i>
    <i name="KSPACING">      0.50000000</i>
    <i type="logical" name="KGAMMA"> T  </i>
   </separator>
   <separator name="electronic projectors" >
    <i type="logical" name="LREAL"> T  </i>
    <v name="ROPT">     -0.00025000     -0.00025000</v>
    <i type="int" name="LMAXPAW">  -100</i>
    <i type="int" name="LMAXMIX">     2</i>
    <i type="logical" name="NLSPLINE"> F  </i>
   </separator>
   <separator name="electronic startup" >
    <i type="int" name="ISTART">     0</i>
    <i type="int" name="ICHARG">     2</i>
    <i type="int" name="INIWAV">     1</i>
   </separator>
   <separator name="electronic spin" >
    <i type="int" name="ISPIN">     2</i>
    <i type="logical" name="LNONCOLLINEAR"> F  </i>
    <v name="MAGMOM">      0.00000000      0.00000000      0.00000000      0.00000000</v>
    <i name="NUPDOWN">     -1.00000000</i>
    <i type="logical" name="LSORBIT"> F  </i>
    <v name="SAXIS">      0.00000000      0.00000000      1.00000000</v>
    <i type="logical" name="LSPIRAL"> F  </i>
    <v name="QSPIRAL">      0.00000000      0.00000000      0.00000000</v>
    <i type="logical" name="LZEROZ"> F  </i>
   </separator>
   <separator name="electronic exchange-correlation" >
    <i type="logical" name="LASPH"> T  </i>
    <i type="logical" name="LMETAGGA"> F  </i>
   </separator>
   <separator name="electronic convergence" >
    <i type="int" name="NELM">   100</i>
    <i type="int" name="NELMDL">    -5</i>
    <i type="int" name="NELMIN">     2</i>
    <i name="ENINI">    520.00000000</i>
    <separator name="electronic convergence detail" >
     <i type="logical" name="LDIAG"> T  </i>
     <i type="logical" name="LSUBROT"> F  </i>
     <i name="WEIMIN">      0.00100000</i>
     <i name="EBREAK">      0.00000021</i>
     <i name="DEPER">      0.30000000</i>
     <i type="int" name="NRMM">     4</i>
     <i name="TIME">      0.40000000</i>
    </separator>
   </separator>
   <separator name="electronic mixer" >
    <i name="AMIX">      0.40000000</i>
    <i name="BMIX">      1.00000000</i>
    <i name="AMIN">      0.10000000</i>
    <i name="AMIX_MAG">      1.60000000</i>
    <i name="BMIX_MAG">      1.00000000</i>
    <separator name="electronic mixer details" >
     <i type="int" name="IMIX">     4</i>
     <i type="logical" name="MIXFIRST"> F  </i>
     <i type="int" name="MAXMIX">   -45</i>
     <i name="WC">    100.00000000</i>
     <i type="int" name="INIMIX">     1</i>
     <i type="int" name="MIXPRE">     1</i>
     <i type="int" name="MREMOVE">     5</i>
    </separator>
   </separator>
   <separator name="electronic dipolcorrection" >
    <i type="logical" name="LDIPOL"> F  </i>
    <i type="logical" name="LMONO"> F  </i>
    <i type="int" name="IDIPOL">     0</i>
    <i name="EPSILON">      1.00000000</i>
    <v name="DIPOL">   -100.00000000   -100.00000000   -100.00000000</v>
    <i name="EFIELD">      0.00000000</i>
   </separator>
  </separator>
  <separator name="grids" >
   <i type="int" name="NGX">    28</i>
   <i type="int" name="NGY">    28</i>
   <i type="int" name="NGZ">    30</i>
   <i type="int" name="NGXF">    56</i>
   <i type="int" name="NGYF">    56</i>
   <i type="int" name="NGZF">    60</i>
   <i type="logical" name="ADDGRID"> F  </i>
  </separator>
  <separator name="ionic" >
   <i type="int" name="NSW">    99</i>
   <i type="int" name="IBRION">     2</i>
   <i type="int" name="MDALGO">     0</i>
   <i type="int" name="ISIF">     3</i>
   <i name="PSTRESS">      0.00000000</i>
   <i name="EDIFFG">      0.00010000</i>
   <i type="int" name="NFREE">     1</i>
   <i name="POTIM">      0.50000000</i>
   <i name="SMASS">     -3.00000000</i>
   <i name="SCALEE">      1.00000000</i>
  </separator>
  <separator name="ionic md" >
   <i name="TEBEG">      0.00010000</i>
   <i name="TEEND">      0.00010000</i>
   <i type="int" name="NBLOCK">     1</i>
   <i type="int" name="KBLOCK">    99</i>
   <i type="int" name="NPACO">   256</i>
   <i name="APACO">     16.00000000</i>
  </separator>
  <separator name="symmetry" >
   <i type="int" name="ISYM">     2</i>
   <i name="SYMPREC">      0.00001000</i>
  </separator>
  <separator name="dos" >
   <i type="int" name="LORBIT">    11</i>
   <v name="RWIGS">     -1.00000000     -1.00000000</v>
   <i type="int" name="NEDOS">   301</i>
   <i name="EMIN">     10.00000000</i>
   <i name="EMAX">    -10.00000000</i>
   <i name="EFERMI">      0.00000000</i>
  </separator>
  <separator name="writing" >
   <i type="int" name="NWRITE">     2</i>
   <i type="logical" name="LWAVE"> F  </i>
   <i type="logical" name="LDOWNSAMPLE"> F  </i>
   <i type="logical" name="LCHARG"> F  </i>
   <i type="logical" name="LPARD"> F  </i>
   <i type="logical" name="LVTOT"> F  </i>
   <i type="logical" name="LVHAR"> F  </i>
   <i type="logical" name="LELF"> F  </i>
   <i type="logical" name="LOPTICS"> F  </i>
   <v name="STM">      0.00000000      0.00000000      0.00000000      0.00000000      0.00000000      0.00000000      0.00000000</v>
  </separator>
  <separator name="performance" >
   <i type="int" name="NPAR">     4</i>
   <i type="int" name="NSIM">     4</i>
   <i type="int" name="NBLK">    -1</i>
   <i type="logical" name="LPLANE"> T  </i>
   <i type="logical" name="LSCALAPACK"> T  </i>
   <i type="logical" name="LSCAAWARE"> F  </i>
   <i type="logical" name="LSCALU"> F  </i>
   <i type="logical" name="LASYNC"> F  </i>
   <i type="logical" name="LORBITALREAL"> F  </i>
  </separator>
  <separator name="miscellaneous" >
   <i type="int" name="IDIOT">     3</i>
   <i type="int" name="ISPECIAL">     0</i>
   <i type="logical" name="LMUSIC"> F  </i>
   <v name="POMASS">      7.01000000     14.00100000</v>
   <v name="DARWINR">      0.00000000      0.00000000</v>
   <v name="DARWINV">      1.00000000      1.00000000</v>
   <i type="logical" name="LCORR"> T  </i>
  </separator>
  <i type="logical" name="GGA_COMPAT"> T  </i>
  <i type="logical" name="LBERRY"> F  </i>
  <i type="int" name="ICORELEVEL">     0</i>
  <i type="logical" name="LDAU"> F  </i>
  <i type="int" name="I_CONSTRAINED_M">     0</i>
  <separator name="electronic exchange-correlation" >
   <i type="string" name="GGA">--</i>
   <i type="int" name="VOSKOWN">     0</i>
   <i type="logical" name="LHFCALC"> F  </i>
   <i type="string" name="PRECFOCK"></i>
   <i type="logical" name="LSYMGRAD"> F  </i>
   <i type="logical" name="LHFONE"> F  </i>
   <i type="logical" name="LRHFCALC"> F  </i>
   <i type="logical" name="LTHOMAS"> F  </i>
   <i type="logical" name="LMODELHF"> F  </i>
   <i name="ENCUT4O">     -1.00000000</i>
   <i type="int" name="EXXOEP">     0</i>
   <i type="int" name="FOURORBIT">     0</i>
   <i name="AEXX">      0.00000000</i>
   <i name="HFALPHA">      0.00000000</i>
   <i name="MCALPHA">      0.00000000</i>
   <i name="ALDAX">      1.00000000</i>
   <i name="AGGAX">      1.00000000</i>
   <i name="ALDAC">      1.00000000</i>
   <i name="AGGAC">      1.00000000</i>
   <i type="int" name="NKREDX">     1</i>
   <i type="int" name="NKREDY">     1</i>
   <i type="int" name="NKREDZ">     1</i>
   <i type="logical" name="SHIFTRED"> F  </i>
   <i type="logical" name="ODDONLY"> F  </i>
   <i type="logical" name="EVENONLY"> F  </i>
   <i type="int" name="LMAXFOCK">     0</i>
   <i type="int" name="NMAXFOCKAE">     0</i>
   <i type="logical" name="LFOCKAEDFT"> F  </i>
   <i name="HFSCREEN">      0.00000000</i>
   <i name="HFSCREENC">      0.00000000</i>
   <i type="int" name="NBANDSGWLOW">     0</i>
  </separator>
  <separator name="vdW DFT" >
   <i type="logical" name="LUSE_VDW"> F  </i>
   <i name="Zab_VDW">     -0.84910000</i>
   <i name="PARAM1">      0.12340000</i>
   <i name="PARAM2">      1.00000000</i>
   <i name="PARAM3">      0.00000000</i>
  </separator>
  <separator name="model GW" >
   <i type="int" name="MODEL_GW">     0</i>
   <i name="MODEL_EPS0">      6.73238502</i>
   <i name="MODEL_ALPHA">      1.00000000</i>
  </separator>
  <separator name="linear response parameters" >
   <i type="logical" name="LEPSILON"> F  </i>
   <i type="logical" name="LRPA"> F  </i>
   <i type="logical" name="LNABLA"> F  </i>
   <i type="logical" name="LVEL"> F  </i>
   <i type="int" name="KINTER">     0</i>
   <i name="CSHIFT">      0.10000000</i>
   <i name="OMEGAMAX">     -1.00000000</i>
   <i name="DEG_THRESHOLD">      0.00200000</i>
   <i name="RTIME">     -0.10000000</i>
   <i name="WPLASMAI">      0.00000000</i>
   <v name="DFIELD">      0.00000000      0.00000000      0.00000000</v>
   <v name="WPLASMA">      0.00000000      0.00000000      0.00000000      0.00000000      0.00000000      0.00000000      0.00000000      0.00000000      0.00000000</v>
  </separator>
  <separator name="orbital magnetization" >
   <i type="logical" name="NUCIND"> F  </i>
   <v name="MAGPOS">      0.00000000      0.00000000      0.00000000</v>
   <i type="logical" name="LNICSALL"> T  </i>
   <i type="logical" name="ORBITALMAG"> F  </i>
   <i type="logical" name="LMAGBLOCH"> F  </i>
   <i type="logical" name="LCHIMAG"> F  </i>
   <i type="logical" name="LGAUGE"> T  </i>
   <i type="int" name="MAGATOM">     0</i>
   <v name="MAGDIPOL">      0.00000000      0.00000000      0.00000000</v>
   <v name="AVECCONST">      0.00000000      0.00000000      0.00000000</v>
  </separator>
  <separator name="response functions" >
   <i type="logical" name="LADDER"> F  </i>
   <i type="logical" name="LRPAFORCE"> F  </i>
   <i type="logical" name="LFXC"> F  </i>
   <i type="logical" name="LHARTREE"> T  </i>
   <i type="int" name="IBSE">     0</i>
   <v type="int" name="KPOINT">    -1     0     0     0</v>
   <i type="logical" name="LTCTE"> F  </i>
   <i type="logical" name="LTETE"> F  </i>
   <i type="logical" name="LTRIPLET"> F  </i>
   <i type="logical" name="LFXCEPS"> F  </i>
   <i type="logical" name="LFXHEG"> F  </i>
   <i type="int" name="NATURALO">     2</i>
   <i type="logical" name="L2ORDER"> F  </i>
   <i type="logical" name="LMP2LT"> F  </i>
   <i type="logical" name="LUSEW"> F  </i>
   <i name="ENCUTGW">     -2.00000000</i>
   <i name="ENCUTGWSOFT">     -2.00000000</i>
   <i name="ENCUTLF">     -1.00000000</i>
   <i type="int" name="LMAXMP2">    -1</i>
   <i name="SCISSOR">      0.00000000</i>
   <i type="int" name="NOMEGA">     0</i>
   <i type="int" name="NOMEGAR">     0</i>
   <i type="int" name="NBANDSGW">    -1</i>
   <i type="int" name="NBANDSO">    -1</i>
   <i type="int" name="NBANDSV">    -1</i>
   <i type="int" name="NELM">   100</i>
   <i type="int" name="NELMHF">     1</i>
   <i type="int" name="DIM">     3</i>
   <i type="int" name="ANTIRES">     0</i>
   <i name="OMEGAMAX">    -30.00000000</i>
   <i name="OMEGAMIN">    -30.00000000</i>
   <i name="OMEGATL">   -200.00000000</i>
   <i type="int" name="OMEGAGRID">   140</i>
   <i name="CSHIFT">     -0.10000000</i>
   <i type="logical" name="SELFENERGY"> F  </i>
   <i type="logical" name="LSPECTRAL"> F  </i>
   <i type="logical" name="LSPECTRALGW"> F  </i>
   <i type="logical" name="LSINGLES"> F  </i>
   <i type="logical" name="LFERMIGW"> F  </i>
   <i type="logical" name="ODDONLYGW"> F  </i>
   <i type="logical" name="EVENONLYGW"> F  </i>
   <i type="int" name="NKREDLFX">     1</i>
   <i type="int" name="NKREDLFY">     1</i>
   <i type="int" name="NKREDLFZ">     1</i>
   <i type="int" name="MAXMEM">  2800</i>
   <i type="int" name="TELESCOPE">     0</i>
   <i type="int" name="TAUPAR">     1</i>
   <i type="int" name="OMEGAPAR">    -1</i>
   <i name="LAMBDA">      1.00000000</i>
  </separator>
  <separator name="External order field" >
[...]
       </set>
       <set comment="band 2">
        <r>  0.0000  0.0000  0.0000  0.0000  0.0000  0.0000  0.0000  0.0000  0.0000 </r>
        <r>  0.4956  0.0000  0.0000  0.0000  0.0000  0.0000  0.0000  0.0000  0.0000 </r>
        <r>  0.4956  0.0000  0.0000  0.0000  0.0000  0.0000  0.0000  0.0000  0.0000 </r>
        <r>  0.0000  0.0000  0.0000  0.0000  0.0000  0.0000  0.0000  0.0000  0.0000 </r>
       </set>
       <set comment="band 3">
        <r>  0.9886  0.0000  0.0000  0.0000  0.0000  0.0000  0.0000  0.0000  0.0000 </r>
        <r>  0.0000  0.0000  0.0000  0.0000  0.0000  0.0000  0.0000  0.0000  0.0000 </r>
        <r>  0.0000  0.0000  0.0000  0.0000  0.0000  0.0000  0.0000  0.0000  0.0000 </r>
        <r>  0.0000  0.0000  0.0002  0.0000  0.0000  0.0000  0.0000  0.0000  0.0000 </r>
       </set>
       <set comment="band 4">
        <r>  0.0000  0.0000  0.0061  0.0000  0.0000  0.0000  0.0000  0.0000  0.0000 </r>
        <r>  0.0033  0.0005  0.0000  0.0023  0.0000  0.0000  0.0000  0.0000  0.0000 </r>
        <r>  0.0033  0.0005  0.0000  0.0023  0.0000  0.0000  0.0000  0.0000  0.0000 </r>
        <r>  0.6100  0.0000  0.0000  0.0000  0.0000  0.0000  0.0000  0.0000  0.0000 </r>
       </set>
       <set comment="band 5">
        <r>  0.0497  0.0000  0.0000  0.0043  0.0000  0.0000  0.0000  0.0000  0.0000 </r>
        <r>  0.0000  0.0000  0.0105  0.0000  0.0000  0.0000  0.0000  0.0000  0.0000 </r>
        <r>  0.0000  0.0000  0.0105  0.0000  0.0000  0.0000  0.0000  0.0000  0.0000 </r>
        <r>  0.0000  0.0000  0.2870  0.0000  0.0000  0.0000  0.0000  0.0000  0.0000 </r>
       </set>
       <set comment="band 6">
        <r>  0.0000  0.0000  0.0000  0.0000  0.0000  0.0000  0.0000  0.0000  0.0000 </r>
        <r>  0.0241  0.0130  0.0000  0.0002  0.0000  0.0000  0.0000  0.0000  0.0000 </r>
        <r>  0.0241  0.0130  0.0000  0.0002  0.0000  0.0000  0.0000  0.0000  0.0000 </r>
        <r>  0.0014  0.0000  0.0000  0.4220  0.0000  0.0000  0.0000  0.0000  0.0000 </r>
       </set>
       <set comment="band 7">
        <r>  0.0000  0.0000  0.0000  0.0000  0.0000  0.0000  0.0000  0.0000  0.0000 </r>
        <r>  0.0063  0.0107  0.0000  0.0146  0.0000  0.0000  0.0000  0.0000  0.0000 </r>
        <r>  0.0063  0.0107  0.0000  0.0146  0.0000  0.0000  0.0000  0.0000  0.0000 </r>
        <r>  0.0000  0.4539  0.0000  0.0000  0.0000  0.0000  0.0000  0.0000  0.0000 </r>
       </set>
       <set comment="band 8">
        <r>  0.0031  0.0000  0.0000  0.0377  0.0000  0.0000  0.0000  0.0000  0.0000 </r>
        <r>  0.0000  0.0000  0.0172  0.0000  0.0000  0.0000  0.0000  0.0000  0.0000 </r>
        <r>  0.0000  0.0000  0.0172  0.0000  0.0000  0.0000  0.0000  0.0000  0.0000 </r>
        <r>  0.0000  0.0000  0.2294  0.0000  0.0000  0.0000  0.0000  0.0000  0.0000 </r>
       </set>
       <set comment="band 9">
        <r>  0.0000  0.0696  0.0000  0.0000  0.0000  0.0000  0.0000  0.0000  0.0000 </r>
        <r>  0.0000  0.0000  0.0308  0.0000  0.0000  0.0000  0.0000  0.0000  0.0000 </r>
        <r>  0.0000  0.0000  0.0308  0.0000  0.0000  0.0000  0.0000  0.0000  0.0000 </r>
        <r>  0.0000  0.0000  0.0000  0.0000  0.0000  0.0000  0.0000  0.0000  0.0000 </r>
       </set>
       <set comment="band 10">
        <r>  0.0000  0.0000  0.0075  0.0000  0.0000  0.0000  0.0000  0.0000  0.0000 </r>
        <r>  0.0509  0.0389  0.0000  0.0393  0.0000  0.0000  0.0000  0.0000  0.0000 </r>
        <r>  0.0509  0.0389  0.0000  0.0393  0.0000  0.0000  0.0000  0.0000  0.0000 </r>
        <r>  0.1193  0.0000  0.0000  0.0306  0.0000  0.0000  0.0000  0.0000  0.0000 </r>
       </set>
       <set comment="band 11">
        <r>  0.0429  0.0000  0.0000  0.0810  0.0000  0.0000  0.0000  0.0000  0.0000 </r>
        <r>  0.0000  0.0000  0.0004  0.0000  0.0000  0.0000  0.0000  0.0000  0.0000 </r>
        <r>  0.0000  0.0000  0.0004  0.0000  0.0000  0.0000  0.0000  0.0000  0.0000 </r>
        <r>  0.0000  0.0000  0.1390  0.0000  0.0000  0.0000  0.0000  0.0000  0.0000 </r>
       </set>
       <set comment="band 12">
        <r>  0.0000  0.0000  0.0000  0.0000  0.0000  0.0000  0.0000  0.0000  0.0000 </r>
        <r>  0.0509  0.0013  0.0000  0.0841  0.0000  0.0000  0.0000  0.0000  0.0000 </r>
        <r>  0.0505  0.0015  0.0000  0.0839  0.0000  0.0000  0.0000  0.0000  0.0000 </r>
        <r>  0.0000  0.1632  0.0000  0.0000  0.0000  0.0000  0.0000  0.0000  0.0000 </r>
       </set>
      </set>
      <set comment="kpoint 68">
       <set comment="band 1">
        <r>  0.0000  0.0000  0.0000  0.0000  0.0000  0.0000  0.0000  0.0000  0.0000 </r>
        <r>  0.4935  0.0000  0.0000  0.0000  0.0000  0.0000  0.0000  0.0000  0.0000 </r>
        <r>  0.4935  0.0000  0.0000  0.0000  0.0000  0.0000  0.0000  0.0000  0.0000 </r>
        <r>  0.0000  0.0000  0.0000  0.0001  0.0000  0.0000  0.0000  0.0000  0.0000 </r>
       </set>
       <set comment="band 2">
        <r>  0.0000  0.0000  0.0000  0.0000  0.0000  0.0000  0.0000  0.0000  0.0000 </r>
        <r>  0.4951  0.0000  0.0000  0.0000  0.0000  0.0000  0.0000  0.0000  0.0000 </r>
        <r>  0.4951  0.0000  0.0000  0.0000  0.0000  0.0000  0.0000  0.0000  0.0000 </r>
        <r>  0.0000  0.0000  0.0000  0.0000  0.0000  0.0000  0.0000  0.0000  0.0000 </r>
       </set>
       <set comment="band 3">
        <r>  0.9886  0.0000  0.0000  0.0000  0.0000  0.0000  0.0000  0.0000  0.0000 </r>
        <r>  0.0000  0.0000  0.0000  0.0000  0.0000  0.0000  0.0000  0.0000  0.0000 </r>
        <r>  0.0000  0.0000  0.0000  0.0000  0.0000  0.0000  0.0000  0.0000  0.0000 </r>
        <r>  0.0000  0.0000  0.0002  0.0000  0.0000  0.0000  0.0000  0.0000  0.0000 </r>
       </set>
       <set comment="band 4">
        <r>  0.0000  0.0000  0.0061  0.0000  0.0000  0.0000  0.0000  0.0000  0.0000 </r>
        <r>  0.0013  0.0009  0.0000  0.0026  0.0000  0.0000  0.0000  0.0000  0.0000 </r>
        <r>  0.0013  0.0009  0.0000  0.0026  0.0000  0.0000  0.0000  0.0000  0.0000 </r>
        <r>  0.6124  0.0000  0.0000  0.0000  0.0000  0.0000  0.0000  0.0000  0.0000 </r>
       </set>
       <set comment="band 5">
        <r>  0.0000  0.0000  0.0000  0.0000  0.0000  0.0000  0.0000  0.0000  0.0000 </r>
        <r>  0.0278  0.0108  0.0000  0.0018  0.0000  0.0000  0.0000  0.0000  0.0000 </r>
        <r>  0.0278  0.0108  0.0000  0.0018  0.0000  0.0000  0.0000  0.0000  0.0000 </r>
        <r>  0.0005  0.0240  0.0000  0.3840  0.0000  0.0000  0.0000  0.0000  0.0000 </r>
       </set>
       <set comment="band 6">
        <r>  0.0000  0.0000  0.0000  0.0000  0.0000  0.0000  0.0000  0.0000  0.0000 </r>
        <r>  0.0099  0.0123  0.0000  0.0128  0.0000  0.0000  0.0000  0.0000  0.0000 </r>
        <r>  0.0099  0.0123  0.0000  0.0128  0.0000  0.0000  0.0000  0.0000  0.0000 </r>
        <r>  0.0000  0.4108  0.0000  0.0258  0.0000  0.0000  0.0000  0.0000  0.0000 </r>
       </set>
       <set comment="band 7">
        <r>  0.0513  0.0000  0.0000  0.0033  0.0000  0.0000  0.0000  0.0000  0.0000 </r>
        <r>  0.0000  0.0000  0.0060  0.0000  0.0000  0.0000  0.0000  0.0000  0.0000 </r>
        <r>  0.0000  0.0000  0.0060  0.0000  0.0000  0.0000  0.0000  0.0000  0.0000 </r>
        <r>  0.0000  0.0000  0.3685  0.0000  0.0000  0.0000  0.0000  0.0000  0.0000 </r>
       </set>
       <set comment="band 8">
        <r>  0.0027  0.0032  0.0000  0.0421  0.0000  0.0000  0.0000  0.0000  0.0000 </r>
        <r>  0.0000  0.0000  0.0227  0.0000  0.0000  0.0000  0.0000  0.0000  0.0000 </r>
        <r>  0.0000  0.0000  0.0227  0.0000  0.0000  0.0000  0.0000  0.0000  0.0000 </r>
        <r>  0.0000  0.0000  0.1092  0.0000  0.0000  0.0000  0.0000  0.0000  0.0000 </r>
       </set>
       <set comment="band 9">
        <r>  0.0000  0.0572  0.0000  0.0023  0.0000  0.0000  0.0000  0.0000  0.0000 </r>
        <r>  0.0000  0.0000  0.0297  0.0000  0.0000  0.0000  0.0000  0.0000  0.0000 </r>
        <r>  0.0000  0.0000  0.0297  0.0000  0.0000  0.0000  0.0000  0.0000  0.0000 </r>
        <r>  0.0000  0.0000  0.0174  0.0000  0.0000  0.0000  0.0000  0.0000  0.0000 </r>
       </set>
       <set comment="band 10">
        <r>  0.0000  0.0000  0.0051  0.0000  0.0000  0.0000  0.0000  0.0000  0.0000 </r>
        <r>  0.0389  0.0481  0.0000  0.0630  0.0000  0.0000  0.0000  0.0000  0.0000 </r>
        <r>  0.0389  0.0481  0.0000  0.0630  0.0000  0.0000  0.0000  0.0000  0.0000 </r>
        <r>  0.1118  0.0021  0.0000  0.0230  0.0000  0.0000  0.0000  0.0000  0.0000 </r>
       </set>
       <set comment="band 11">
        <r>  0.0488  0.0195  0.0000  0.0418  0.0000  0.0000  0.0000  0.0000  0.0000 </r>
        <r>  0.0000  0.0000  0.0022  0.0000  0.0000  0.0000  0.0000  0.0000  0.0000 </r>
        <r>  0.0000  0.0000  0.0022  0.0000  0.0000  0.0000  0.0000  0.0000  0.0000 </r>
        <r>  0.0000  0.0000  0.1572  0.0000  0.0000  0.0000  0.0000  0.0000  0.0000 </r>
       </set>
       <set comment="band 12">
        <r>  0.0000  0.0000  0.0005  0.0000  0.0000  0.0000  0.0000  0.0000  0.0000 </r>
        <r>  0.0611  0.0032  0.0000  0.0433  0.0000  0.0000  0.0000  0.0000  0.0000 </r>
        <r>  0.0603  0.0036  0.0000  0.0431  0.0000  0.0000  0.0000  0.0000  0.0000 </r>
        <r>  0.0016  0.2024  0.0000  0.0294  0.0000  0.0000  0.0000  0.0000  0.0000 </r>
       </set>
      </set>
      <set comment="kpoint 69">
       <set comment="band 1">
        <r>  0.0000  0.0000  0.0000  0.0000  0.0000  0.0000  0.0000  0.0000  0.0000 </r>
        <r>  0.4938  0.0000  0.0000  0.0000  0.0000  0.0000  0.0000  0.0000  0.0000 </r>
        <r>  0.4938  0.0000  0.0000  0.0000  0.0000  0.0000  0.0000  0.0000  0.0000 </r>
        <r>  0.0000  0.0000  0.0000  0.0001  0.0000  0.0000  0.0000  0.0000  0.0000 </r>
       </set>
       <set comment="band 2">
        <r>  0.0000  0.0000  0.0000  0.0000  0.0000  0.0000  0.0000  0.0000  0.0000 </r>
        <r>  0.4948  0.0000  0.0000  0.0000  0.0000  0.0000  0.0000  0.0000  0.0000 </r>
        <r>  0.4948  0.0000  0.0000  0.0000  0.0000  0.0000  0.0000  0.0000  0.0000 </r>
        <r>  0.0000  0.0000  0.0000  0.0000  0.0000  0.0000  0.0000  0.0000  0.0000 </r>
       </set>
       <set comment="band 3">
        <r>  0.9886  0.0000  0.0000  0.0000  0.0000  0.0000  0.0000  0.0000  0.0000 </r>
        <r>  0.0000  0.0000  0.0000  0.0000  0.0000  0.0000  0.0000  0.0000  0.0000 </r>
        <r>  0.0000  0.0000  0.0000  0.0000  0.0000  0.0000  0.0000  0.0000  0.0000 </r>
        <r>  0.0000  0.0000  0.0002  0.0000  0.0000  0.0000  0.0000  0.0000  0.0000 </r>
       </set>
       <set comment="band 4">
        <r>  0.0000  0.0000  0.0061  0.0000  0.0000  0.0000  0.0000  0.0000  0.0000 </r>
        <r>  0.0005  0.0014  0.0000  0.0024  0.0000  0.0000  0.0000  0.0000  0.0000 </r>
        <r>  0.0005  0.0014  0.0000  0.0024  0.0000  0.0000  0.0000  0.0000  0.0000 </r>
        <r>  0.6133  0.0000  0.0000  0.0000  0.0000  0.0000  0.0000  0.0000  0.0000 </r>
       </set>
       <set comment="band 5">
        <r>  0.0000  0.0000  0.0000  0.0000  0.0000  0.0000  0.0000  0.0000  0.0000 </r>
        <r>  0.0293  0.0049  0.0000  0.0072  0.0000  0.0000  0.0000  0.0000  0.0000 </r>
        <r>  0.0293  0.0049  0.0000  0.0072  0.0000  0.0000  0.0000  0.0000  0.0000 </r>
        <r>  0.0000  0.1008  0.0000  0.3024  0.0000  0.0000  0.0000  0.0000  0.0000 </r>
       </set>
       <set comment="band 6">
        <r>  0.0000  0.0000  0.0000  0.0000  0.0000  0.0000  0.0000  0.0000  0.0000 </r>
        <r>  0.0112  0.0167  0.0000  0.0084  0.0000  0.0000  0.0000  0.0000  0.0000 </r>
        <r>  0.0112  0.0167  0.0000  0.0084  0.0000  0.0000  0.0000  0.0000  0.0000 </r>
        <r>  0.0001  0.3229  0.0000  0.1076  0.0000  0.0000  0.0000  0.0000  0.0000 </r>
       </set>
       <set comment="band 7">
        <r>  0.0547  0.0002  0.0000  0.0001  0.0000  0.0000  0.0000  0.0000  0.0000 </r>
        <r>  0.0000  0.0000  0.0015  0.0000  0.0000  0.0000  0.0000  0.0000  0.0000 </r>
        <r>  0.0000  0.0000  0.0015  0.0000  0.0000  0.0000  0.0000  0.0000  0.0000 </r>
        <r>  0.0000  0.0000  0.4494  0.0000  0.0000  0.0000  0.0000  0.0000  0.0000 </r>
       </set>
       <set comment="band 8">
        <r>  0.0000  0.0128  0.0000  0.0384  0.0000  0.0000  0.0000  0.0000  0.0000 </r>
        <r>  0.0000  0.0000  0.0282  0.0000  0.0000  0.0000  0.0000  0.0000  0.0000 </r>
        <r>  0.0000  0.0000  0.0282  0.0000  0.0000  0.0000  0.0000  0.0000  0.0000 </r>
        <r>  0.0000  0.0000  0.0000  0.0000  0.0000  0.0000  0.0000  0.0000  0.0000 </r>
       </set>
       <set comment="band 9">
        <r>  0.0000  0.0412  0.0000  0.0137  0.0000  0.0000  0.0000  0.0000  0.0000 </r>
        <r>  0.0000  0.0000  0.0286  0.0000  0.0000  0.0000  0.0000  0.0000  0.0000 </r>
        <r>  0.0000  0.0000  0.0286  0.0000  0.0000  0.0000  0.0000  0.0000  0.0000 </r>
        <r>  0.0000  0.0000  0.0391  0.0000  0.0000  0.0000  0.0000  0.0000  0.0000 </r>
       </set>
       <set comment="band 10">
        <r>  0.0000  0.0000  0.0039  0.0000  0.0000  0.0000  0.0000  0.0000  0.0000 </r>
        <r>  0.0346  0.0490  0.0000  0.0776  0.0000  0.0000  0.0000  0.0000  0.0000 </r>
        <r>  0.0346  0.0490  0.0000  0.0776  0.0000  0.0000  0.0000  0.0000  0.0000 </r>
        <r>  0.1073  0.0138  0.0000  0.0046  0.0000  0.0000  0.0000  0.0000  0.0000 </r>
       </set>
       <set comment="band 11">
        <r>  0.0485  0.0448  0.0000  0.0149  0.0000  0.0000  0.0000  0.0000  0.0000 </r>
        <r>  0.0000  0.0000  0.0034  0.0000  0.0000  0.0000  0.0000  0.0000  0.0000 </r>
        <r>  0.0000  0.0000  0.0034  0.0000  0.0000  0.0000  0.0000  0.0000  0.0000 </r>
        <r>  0.0000  0.0000  0.1586  0.0000  0.0000  0.0000  0.0000  0.0000  0.0000 </r>
       </set>
       <set comment="band 12">
        <r>  0.0000  0.0000  0.0000  0.0000  0.0000  0.0000  0.0000  0.0000  0.0000 </r>
        <r>  0.0598  0.0049  0.0000  0.0132  0.0000  0.0000  0.0000  0.0000  0.0000 </r>
        <r>  0.0620  0.0045  0.0000  0.0133  0.0000  0.0000  0.0000  0.0000  0.0000 </r>
        <r>  0.0000  0.0835  0.0000  0.2309  0.0000  0.0000  0.0000  0.0000  0.0000 </r>
       </set>
      </set>
      <set comment="kpoint 70">
       <set comment="band 1">
        <r>  0.0000  0.0000  0.0000  0.0000  0.0000  0.0000  0.0000  0.0000  0.0000 </r>
        <r>  0.4940  0.0000  0.0000  0.0000  0.0000  0.0000  0.0000  0.0000  0.0000 </r>
        <r>  0.4940  0.0000  0.0000  0.0000  0.0000  0.0000  0.0000  0.0000  0.0000 </r>
        <r>  0.0000  0.0000  0.0000  0.0001  0.0000  0.0000  0.0000  0.0000  0.0000 </r>
       </set>
       <set comment="band 2">
        <r>  0.0000  0.0000  0.0000  0.0000  0.0000  0.0000  0.0000  0.0000  0.0000 </r>
        <r>  0.4946  0.0000  0.0000  0.0000  0.0000  0.0000  0.0000  0.0000  0.0000 </r>
        <r>  0.4946  0.0000  0.0000  0.0000  0.0000  0.0000  0.0000  0.0000  0.0000 </r>
        <r>  0.0000  0.0001  0.0000  0.0000  0.0000  0.0000  0.0000  0.0000  0.0000 </r>
       </set>
       <set comment="band 3">
        <r>  0.9886  0.0000  0.0000  0.0000  0.0000  0.0000  0.0000  0.0000  0.0000 </r>
        <r>  0.0000  0.0000  0.0000  0.0000  0.0000  0.0000  0.0000  0.0000  0.0000 </r>
        <r>  0.0000  0.0000  0.0000  0.0000  0.0000  0.0000  0.0000  0.0000  0.0000 </r>
        <r>  0.0000  0.0000  0.0002  0.0000  0.0000  0.0000  0.0000  0.0000  0.0000 </r>
       </set>
       <set comment="band 4">
        <r>  0.0000  0.0000  0.0061  0.0000  0.0000  0.0000  0.0000  0.0000  0.0000 </r>
        <r>  0.0002  0.0016  0.0000  0.0024  0.0000  0.0000  0.0000  0.0000  0.0000 </r>
        <r>  0.0002  0.0016  0.0000  0.0024  0.0000  0.0000  0.0000  0.0000  0.0000 </r>
        <r>  0.6135  0.0000  0.0000  0.0000  0.0000  0.0000  0.0000  0.0000  0.0000 </r>
       </set>
       <set comment="band 5">
        <r>  0.0000  0.0000  0.0000  0.0000  0.0000  0.0000  0.0000  0.0000  0.0000 </r>
        <r>  0.0251  0.0109  0.0000  0.0044  0.0000  0.0000  0.0000  0.0000  0.0000 </r>
        <r>  0.0251  0.0109  0.0000  0.0044  0.0000  0.0000  0.0000  0.0000  0.0000 </r>
        <r>  0.0001  0.0000  0.0000  0.4084  0.0000  0.0000  0.0000  0.0000  0.0000 </r>
       </set>
       <set comment="band 6">
        <r>  0.0000  0.0000  0.0000  0.0000  0.0000  0.0000  0.0000  0.0000  0.0000 </r>
        <r>  0.0176  0.0093  0.0000  0.0114  0.0000  0.0000  0.0000  0.0000  0.0000 </r>
        <r>  0.0176  0.0093  0.0000  0.0114  0.0000  0.0000  0.0000  0.0000  0.0000 </r>
        <r>  0.0000  0.4202  0.0000  0.0000  0.0000  0.0000  0.0000  0.0000  0.0000 </r>
       </set>
       <set comment="band 7">
        <r>  0.0541  0.0000  0.0000  0.0007  0.0000  0.0000  0.0000  0.0000  0.0000 </r>
        <r>  0.0000  0.0000  0.0011  0.0000  0.0000  0.0000  0.0000  0.0000  0.0000 </r>
        <r>  0.0000  0.0000  0.0011  0.0000  0.0000  0.0000  0.0000  0.0000  0.0000 </r>
        <r>  0.0000  0.0000  0.4566  0.0000  0.0000  0.0000  0.0000  0.0000  0.0000 </r>
       </set>
       <set comment="band 8">
        <r>  0.0005  0.0000  0.0000  0.0513  0.0000  0.0000  0.0000  0.0000  0.0000 </r>
        <r>  0.0000  0.0000  0.0274  0.0000  0.0000  0.0000  0.0000  0.0000  0.0000 </r>
        <r>  0.0000  0.0000  0.0274  0.0000  0.0000  0.0000  0.0000  0.0000  0.0000 </r>
        <r>  0.0000  0.0000  0.0226  0.0000  0.0000  0.0000  0.0000  0.0000  0.0000 </r>
       </set>
       <set comment="band 9">
        <r>  0.0000  0.0565  0.0000  0.0000  0.0000  0.0000  0.0000  0.0000  0.0000 </r>
        <r>  0.0000  0.0000  0.0293  0.0000  0.0000  0.0000  0.0000  0.0000  0.0000 </r>
        <r>  0.0000  0.0000  0.0293  0.0000  0.0000  0.0000  0.0000  0.0000  0.0000 </r>
        <r>  0.0000  0.0000  0.0000  0.0000  0.0000  0.0000  0.0000  0.0000  0.0000 </r>
       </set>
       <set comment="band 10">
        <r>  0.0000  0.0000  0.0042  0.0000  0.0000  0.0000  0.0000  0.0000  0.0000 </r>
        <r>  0.0117  0.0770  0.0000  0.0949  0.0000  0.0000  0.0000  0.0000  0.0000 </r>
        <r>  0.0117  0.0770  0.0000  0.0949  0.0000  0.0000  0.0000  0.0000  0.0000 </r>
        <r>  0.1200  0.0000  0.0000  0.0131  0.0000  0.0000  0.0000  0.0000  0.0000 </r>
       </set>
       <set comment="band 11">
        <r>  0.0214  0.0000  0.0000  0.0028  0.0000  0.0000  0.0000  0.0000  0.0000 </r>
        <r>  0.0426  0.0076  0.0001  0.0143  0.0000  0.0000  0.0000  0.0000  0.0000 </r>
        <r>  0.0518  0.0046  0.0001  0.0144  0.0000  0.0000  0.0000  0.0000  0.0000 </r>
        <r>  0.0001  0.1791  0.0589  0.0039  0.0000  0.0000  0.0000  0.0000  0.0000 </r>
       </set>
       <set comment="band 12">
        <r>  0.0089  0.0000  0.0000  0.0011  0.0000  0.0000  0.0000  0.0000  0.0000 </r>
        <r>  0.0622  0.0325  0.0000  0.0030  0.0000  0.0000  0.0000  0.0000  0.0000 </r>
        <r>  0.0330  0.0407  0.0000  0.0018  0.0000  0.0000  0.0000  0.0000  0.0000 </r>
        <r>  0.0037  0.0302  0.0249  0.2206  0.0000  0.0000  0.0000  0.0000  0.0000 </r>
       </set>
      </set>
     </set>
    </set>
   </array>
  </projected>
 </calculation>
 <structure name="finalpos" >
  <crystal>
   <varray name="basis" >
    <v>       1.81704612      -3.14721593       0.00000000 </v>
    <v>       1.81704612       3.14721593       0.00000000 </v>
    <v>       0.00000000      -0.00000000       3.86949744 </v>
   </varray>
   <i name="volume">     44.25649865 </i>
   <varray name="rec_basis" >
    <v>       0.27517188      -0.15887057      -0.00000000 </v>
    <v>       0.27517188       0.15887057       0.00000000 </v>
    <v>      -0.00000000       0.00000000       0.25843149 </v>
   </varray>
  </crystal>
  <varray name="positions" >
   <v>       0.00000000      -0.00000000       0.50000000 </v>
   <v>       0.33333300       0.66666700       0.00000000 </v>
   <v>       0.66666700       0.33333300      -0.00000000 </v>
   <v>       0.00000000      -0.00000000      -0.00000000 </v>
  </varray>
 </structure>
</modeling>
