unknown system                          
           1
     1.825345   -3.161590    0.000000
     1.825345    3.161590    0.000000
     0.000000    0.000000    3.888635
   Li   N 
   3   1
Direct configuration=     1
   0.00000000  0.00000000  0.50000000
   0.33333300  0.66666700  0.00000000
   0.66666700  0.33333300  0.00000000
   0.00000000  0.00000000  0.00000000
unknown system                          
           1
     1.821012   -3.154086    0.000000
     1.821012    3.154086    0.000000
     0.000000   -0.000000    3.878644
   Li   N 
   3   1
Direct configuration=     2
   0.00000000 -0.00000000  0.50000000
   0.33333300  0.66666700  0.00000000
   0.66666700  0.33333300  0.00000000
   0.00000000 -0.00000000  0.00000000
unknown system                          
           1
     1.817046   -3.147216    0.000000
     1.817046    3.147216    0.000000
     0.000000   -0.000000    3.869497
   Li   N 
   3   1
Direct configuration=     3
   0.00000000 -0.00000000  0.50000000
   0.33333300  0.66666700  0.00000000
   0.66666700  0.33333300 -0.00000000
   0.00000000 -0.00000000 -0.00000000
