       N       E                     dE             d eps       ncg     rms          rms(c)
DAV:   1     0.110451356880E+04    0.11045E+04   -0.61064E+04 21328   0.150E+03
DAV:   2    -0.571168488908E+02   -0.11616E+04   -0.10909E+04 25856   0.385E+02
DAV:   3    -0.172253545983E+03   -0.11514E+03   -0.11435E+03 27582   0.124E+02
DAV:   4    -0.181692170672E+03   -0.94386E+01   -0.93966E+01 39168   0.297E+01
DAV:   5    -0.183424816910E+03   -0.17326E+01   -0.17320E+01 31384   0.730E+00    0.464E+01
DAV:   6    -0.164153198861E+03    0.19272E+02   -0.91598E+01 26634   0.320E+01    0.232E+01
DAV:   7    -0.166092253418E+03   -0.19391E+01   -0.74245E+00 27816   0.941E+00    0.811E+00
DAV:   8    -0.166388110309E+03   -0.29586E+00   -0.76609E-01 28194   0.347E+00    0.415E+00
DAV:   9    -0.166521226273E+03   -0.13312E+00   -0.13643E-01 29192   0.160E+00    0.170E+00
DAV:  10    -0.166554453098E+03   -0.33227E-01   -0.56645E-02 26344   0.115E+00    0.471E-01
DAV:  11    -0.166565136320E+03   -0.10683E-01   -0.11612E-02 26936   0.437E-01    0.274E-01
DAV:  12    -0.166568290397E+03   -0.31541E-02   -0.24600E-03 28552   0.213E-01    0.141E-01
DAV:  13    -0.166570001035E+03   -0.17106E-02   -0.12973E-03 24512   0.134E-01    0.506E-02
DAV:  14    -0.166570238397E+03   -0.23736E-03   -0.16979E-04 26512   0.632E-02    0.229E-02
DAV:  15    -0.166570307170E+03   -0.68773E-04   -0.76794E-05 22104   0.374E-02    0.146E-02
DAV:  16    -0.166570314952E+03   -0.77820E-05   -0.88974E-06 18280   0.156E-02
   1 F= -.16657031E+03 E0= -.16657031E+03  d E =0.000000E+00  mag=    -0.0009
