 running on    8 total cores
 distrk:  each k-point on    8 cores,    1 groups
 distr:  one band on    1 cores,    8 groups
 using from now: INCAR     
 vasp.6.1.2 22Jul20 (build Mar 20 2021 11:25:07) complex                        
  
 POSCAR found type information on POSCAR LiP 
 POSCAR found :  2 types and      16 ions
 scaLAPACK will be used
 -----------------------------------------------------------------------------
|                                                                             |
|           W    W    AA    RRRRR   N    N  II  N    N   GGGG   !!!           |
|           W    W   A  A   R    R  NN   N  II  NN   N  G    G  !!!           |
|           W    W  A    A  R    R  N N  N  II  N N  N  G       !!!           |
|           W WW W  AAAAAA  RRRRR   N  N N  II  N  N N  G  GGG   !            |
|           WW  WW  A    A  R   R   N   NN  II  N   NN  G    G                |
|           W    W  A    A  R    R  N    N  II  N    N   GGGG   !!!           |
|                                                                             |
|     The value NCORE = 6 specified in the INCAR file was overwritten,        |
|     because it was not compatible with the 8 processes available:           |
|     NCORE = 1                                                               |
|     was used instead, please check that this makes sense for your           |
|     machine.                                                                |
|                                                                             |
 -----------------------------------------------------------------------------

 -----------------------------------------------------------------------------
|                                                                             |
|           W    W    AA    RRRRR   N    N  II  N    N   GGGG   !!!           |
|           W    W   A  A   R    R  NN   N  II  NN   N  G    G  !!!           |
|           W    W  A    A  R    R  N N  N  II  N N  N  G       !!!           |
|           W WW W  AAAAAA  RRRRR   N  N N  II  N  N N  G  GGG   !            |
|           WW  WW  A    A  R   R   N   NN  II  N   NN  G    G                |
|           W    W  A    A  R    R  N    N  II  N    N   GGGG   !!!           |
|                                                                             |
|     For optimal performance we recommend to set                             |
|       NCORE = 4 - approx SQRT(number of cores).                             |
|     NCORE specifies how many cores store one orbital (NPAR=cpu/NCORE).      |
|     This setting can greatly improve the performance of VASP for DFT.       |
|     The default, NCORE=1 might be grossly inefficient on modern             |
|     multi-core architectures or massively parallel machines. Do your        |
|     own testing!!!!                                                         |
|     Unfortunately you need to use the default for GW and RPA                |
|     calculations (for HF NCORE is supported but not extensively tested      |
|     yet).                                                                   |
|                                                                             |
 -----------------------------------------------------------------------------

 LDA part: xc-table for Pade appr. of Perdew
 generate k-points for:    6    7    4
 POSCAR, INCAR and KPOINTS ok, starting setup
 FFT: planning ...
 WAVECAR not read
 entering main loop
       N       E                     dE             d eps       ncg     rms          rms(c)
DAV:   1     0.396700467711E+03    0.39670E+03   -0.25688E+04 16512   0.131E+03
DAV:   2    -0.355181052162E+01   -0.40025E+03   -0.36584E+03 18296   0.315E+02
DAV:   3    -0.556705653881E+02   -0.52119E+02   -0.51419E+02 23608   0.885E+01
DAV:   4    -0.631234575052E+02   -0.74529E+01   -0.73748E+01 29320   0.326E+01
DAV:   5    -0.638398487922E+02   -0.71639E+00   -0.71609E+00 23040   0.744E+00    0.211E+01
DAV:   6    -0.651406176541E+02   -0.13008E+01   -0.28043E+00 22248   0.646E+00    0.112E+01
DAV:   7    -0.664130226922E+02   -0.12724E+01   -0.73005E-01 20304   0.408E+00    0.592E+00
DAV:   8    -0.666470187472E+02   -0.23400E+00   -0.61543E-01 21576   0.289E+00    0.127E+00
DAV:   9    -0.666776951423E+02   -0.30676E-01   -0.81938E-02 24624   0.112E+00    0.509E-01
DAV:  10    -0.666813747817E+02   -0.36796E-02   -0.67776E-03 21240   0.378E-01    0.221E-01
DAV:  11    -0.666828415651E+02   -0.14668E-02   -0.19452E-03 20664   0.205E-01    0.102E-01
DAV:  12    -0.666831252829E+02   -0.28372E-03   -0.60063E-04 21032   0.101E-01    0.413E-02
DAV:  13    -0.666831711244E+02   -0.45842E-04   -0.96453E-05 19272   0.505E-02    0.204E-02
DAV:  14    -0.666831854351E+02   -0.14311E-04   -0.30547E-05 16832   0.284E-02    0.649E-03
DAV:  15    -0.666831870666E+02   -0.16315E-05   -0.41723E-06 12336   0.124E-02
   1 F= -.66683187E+02 E0= -.66683187E+02  d E =0.000000E+00  mag=    -0.0003
