 running on   12 total cores
 distrk:  each k-point on   12 cores,    1 groups
 distr:  one band on    6 cores,    2 groups
 using from now: INCAR     
 vasp.6.1.2 22Jul20 (build Mar 20 2021 11:25:07) complex                        
  
 POSCAR found type information on POSCAR LiO 
 POSCAR found :  2 types and       9 ions
 scaLAPACK will be used
 LDA part: xc-table for Pade appr. of Perdew
 generate k-points for:    8    7    7
 POSCAR, INCAR and KPOINTS ok, starting setup
 FFT: planning ...
 WAVECAR not read
 entering main loop
       N       E                     dE             d eps       ncg     rms          rms(c)
DAV:   1     0.363775835598E+03    0.36378E+03   -0.28131E+04 26800   0.147E+03
DAV:   2    -0.184139491819E+02   -0.38219E+03   -0.36889E+03 34852   0.352E+02
DAV:   3    -0.435226931851E+02   -0.25109E+02   -0.24851E+02 39512   0.912E+01
DAV:   4    -0.444440055619E+02   -0.92131E+00   -0.91708E+00 45160   0.126E+01
DAV:   5    -0.445158341847E+02   -0.71829E-01   -0.71823E-01 36110   0.174E+00    0.146E+01
RMM:   6    -0.447947770297E+02   -0.27894E+00   -0.31298E+00 30807   0.924E+00    0.102E+01
RMM:   7    -0.442944321671E+02    0.50034E+00   -0.11079E+00 30090   0.570E+00    0.569E+00
RMM:   8    -0.440302921266E+02    0.26414E+00   -0.51784E-01 30551   0.419E+00    0.324E+00
RMM:   9    -0.440753875465E+02   -0.45095E-01   -0.19777E-01 31769   0.253E+00    0.293E+00
RMM:  10    -0.440243476950E+02    0.51040E-01   -0.66760E-02 32798   0.147E+00    0.101E+00
RMM:  11    -0.440250844432E+02   -0.73675E-03   -0.16323E-02 35666   0.745E-01    0.726E-01
RMM:  12    -0.440233450147E+02    0.17394E-02   -0.57704E-03 36113   0.473E-01    0.274E-01
RMM:  13    -0.440240787503E+02   -0.73374E-03   -0.31650E-03 38552   0.345E-01    0.866E-02
WARNING in EDDRMM: call to ZHEGV failed, returncode =   8  4      4
WARNING in EDDRMM: call to ZHEGV failed, returncode =   6  3      8
RMM:  14    -0.440242860504E+02   -0.20730E-03   -0.11045E-03 45264   0.169E-01    0.503E-02
WARNING in EDDRMM: call to ZHEGV failed, returncode =   8  4     15
RMM:  15    -0.440244038318E+02   -0.11778E-03   -0.50018E-04 44450   0.113E-01    0.334E-02
WARNING in EDDRMM: call to ZHEGV failed, returncode =   6  3     15
WARNING in EDDRMM: call to ZHEGV failed, returncode =   8  4     12
RMM:  16    -0.440244674813E+02   -0.63649E-04   -0.25498E-04 43663   0.798E-02    0.262E-02
RMM:  17    -0.440245039856E+02   -0.36504E-04   -0.14508E-04 42289   0.634E-02    0.215E-02
RMM:  18    -0.440245246521E+02   -0.20666E-04   -0.88761E-05 39162   0.501E-02    0.190E-02
RMM:  19    -0.440245333966E+02   -0.87445E-05   -0.55815E-05 34466   0.391E-02
   1 F= -.44024533E+02 E0= -.44024533E+02  d E =0.000000E+00  mag=     0.0573
 -----------------------------------------------------------------------------
|                                                                             |
|           W    W    AA    RRRRR   N    N  II  N    N   GGGG   !!!           |
|           W    W   A  A   R    R  NN   N  II  NN   N  G    G  !!!           |
|           W    W  A    A  R    R  N N  N  II  N N  N  G       !!!           |
|           W WW W  AAAAAA  RRRRR   N  N N  II  N  N N  G  GGG   !            |
|           WW  WW  A    A  R   R   N   NN  II  N   NN  G    G                |
|           W    W  A    A  R    R  N    N  II  N    N   GGGG   !!!           |
|                                                                             |
|     Tetrahedron method does not include variations of the Fermi             |
|     occupations, so forces and stress will be inaccurate. We suggest        |
|     using a different smearing scheme ISMEAR = 1 or 2 for metals in         |
|     relaxations.                                                            |
|                                                                             |
 -----------------------------------------------------------------------------

