    6    6    1    2
  0.1270195E+02  0.4784478E-09  0.4832806E-09  0.4832806E-09  0.5000000E-15
  1.000000000000000E-004
  CAR 
 unknown system                          
     32    324     22
 
  0.0000000E+00  0.0000000E+00  0.0000000E+00  0.1562500E-02
    1      -19.770001    -19.769984   1.000000   1.000000
    2      -17.515964    -17.515902   1.000000   1.000000
    3      -13.815674    -13.815500   1.000000   1.000000
    4      -12.360549    -12.360325   1.000000   1.000000
    5      -11.309894    -11.309899   1.000000   1.000000
    6       -6.629359     -6.629346   1.000000   1.000000
    7       -5.452974     -5.452936   1.000000   1.000000
    8       -5.369734     -5.369704   1.000000   1.000000
    9       -2.395378     -2.395487   1.000000   1.000000
   10       -1.644419     -1.644468   1.000000   1.000000
   11       -0.613229     -0.613261   1.000000   1.000000
   12       -0.477026     -0.476984   1.000000   1.000000
   13        0.507265      0.507245   1.000000   1.000000
   14        0.755308      0.755427   1.000000   1.000000
   15        1.460011      1.460048   1.000000   1.000000
   16        2.128367      2.128405   1.000000   1.000000
   17        7.758261      7.758010   0.000000   0.000000
   18        7.861535      7.861306   0.000000   0.000000
   19        9.457389      9.457237   0.000000   0.000000
   20       10.831875     10.831487   0.000000   0.000000
   21       11.017512     11.017293   0.000000   0.000000
   22       11.984870     11.984552   0.000000   0.000000
 
  0.1250000E+00  0.1259448E-16  0.4087312E-16  0.3125000E-02
    1      -19.742399    -19.742382   1.000000   1.000000
    2      -17.520851    -17.520790   1.000000   1.000000
    3      -13.910960    -13.910795   1.000000   1.000000
    4      -12.675071    -12.674886   1.000000   1.000000
    5      -10.845656    -10.845614   1.000000   1.000000
    6       -6.597010     -6.596994   1.000000   1.000000
    7       -5.485368     -5.485321   1.000000   1.000000
    8       -5.330233     -5.330200   1.000000   1.000000
    9       -2.367039     -2.367147   1.000000   1.000000
   10       -1.670991     -1.671038   1.000000   1.000000
   11       -0.699429     -0.699421   1.000000   1.000000
   12       -0.551597     -0.551613   1.000000   1.000000
   13        0.553145      0.553138   1.000000   1.000000
   14        0.674431      0.674530   1.000000   1.000000
   15        1.414331      1.414366   1.000000   1.000000
   16        2.129599      2.129640   1.000000   1.000000
   17        7.890266      7.890010   0.000000   0.000000
   18        8.087772      8.087592   0.000000   0.000000
   19        9.200885      9.200693   0.000000   0.000000
   20       10.837244     10.836985   0.000000   0.000000
   21       11.084906     11.084545   0.000000   0.000000
   22       11.900199     11.899968   0.000000   0.000000
 
  0.2500000E+00  0.2518897E-16  0.8174624E-16  0.3125000E-02
    1      -19.673051    -19.673033   1.000000   1.000000
    2      -17.533475    -17.533415   1.000000   1.000000
    3      -14.177409    -14.177269   1.000000   1.000000
    4      -13.013348    -13.013170   1.000000   1.000000
    5      -10.093147    -10.093086   1.000000   1.000000
    6       -6.515567     -6.515545   1.000000   1.000000
    7       -5.583221     -5.583151   1.000000   1.000000
    8       -5.215822     -5.215782   1.000000   1.000000
    9       -2.290041     -2.290143   1.000000   1.000000
   10       -1.791655     -1.791700   1.000000   1.000000
   11       -1.091276     -1.091292   1.000000   1.000000
   12       -0.482289     -0.482322   1.000000   1.000000
   13        0.534024      0.534086   1.000000   1.000000
   14        0.587915      0.587928   1.000000   1.000000
   15        1.335943      1.335971   1.000000   1.000000
   16        2.099159      2.099207   1.000000   1.000000
   17        8.150309      8.150071   0.000000   0.000000
   18        8.453267      8.453205   0.000000   0.000000
   19        9.134773      9.134482   0.000000   0.000000
   20       10.583084     10.582857   0.000000   0.000000
   21       11.214978     11.214640   0.000000   0.000000
   22       11.899202     11.898267   0.000000   0.000000
 
  0.3750000E+00 -0.5317848E-18  0.1193012E-15  0.3125000E-02
    1      -19.599384    -19.599365   1.000000   1.000000
    2      -17.547036    -17.546978   1.000000   1.000000
    3      -14.462264    -14.462140   1.000000   1.000000
    4      -13.170705    -13.170523   1.000000   1.000000
    5       -9.472696     -9.472636   1.000000   1.000000
    6       -6.432027     -6.431997   1.000000   1.000000
    7       -5.677486     -5.677377   1.000000   1.000000
    8       -5.106452     -5.106405   1.000000   1.000000
    9       -2.206681     -2.206771   1.000000   1.000000
   10       -2.063564     -2.063635   1.000000   1.000000
   11       -1.346939     -1.346974   1.000000   1.000000
   12       -0.328144     -0.328181   1.000000   1.000000
   13        0.332433      0.332449   1.000000   1.000000
   14        0.519857      0.519891   1.000000   1.000000
   15        1.398827      1.398853   1.000000   1.000000
   16        1.989179      1.989236   1.000000   1.000000
   17        8.188574      8.188373   0.000000   0.000000
   18        8.726073      8.725992   0.000000   0.000000
   19        9.710758      9.710561   0.000000   0.000000
   20       10.305966     10.305672   0.000000   0.000000
   21       11.151128     11.150884   0.000000   0.000000
   22       12.124924     12.120285   0.000000   0.000000
 
  0.5000000E+00  0.5037793E-16  0.1634925E-15  0.1562500E-02
    1      -19.567344    -19.567325   1.000000   1.000000
    2      -17.552969    -17.552910   1.000000   1.000000
    3      -14.579367    -14.579248   1.000000   1.000000
    4      -13.214272    -13.214089   1.000000   1.000000
    5       -9.225979     -9.225923   1.000000   1.000000
    6       -6.398460     -6.398425   1.000000   1.000000
    7       -5.713808     -5.713677   1.000000   1.000000
    8       -5.063932     -5.063883   1.000000   1.000000
    9       -2.279985     -2.280071   1.000000   1.000000
   10       -2.112007     -2.112098   1.000000   1.000000
   11       -1.409361     -1.409398   1.000000   1.000000
   12       -0.163950     -0.163995   1.000000   1.000000
   13        0.111757      0.111768   1.000000   1.000000
   14        0.501297      0.501329   1.000000   1.000000
   15        1.490976      1.490999   1.000000   1.000000
   16        1.891756      1.891822   1.000000   1.000000
   17        8.208150      8.207944   0.000000   0.000000
   18        8.858657      8.858592   0.000000   0.000000
   19        9.808787      9.808647   0.000000   0.000000
   20       10.624045     10.623716   0.000000   0.000000
   21       10.918254     10.917931   0.000000   0.000000
   22       12.107842     12.106461   0.000000   0.000000
 
 -0.1067081E-18  0.1250000E+00 -0.1592291E-16  0.3125000E-02
    1      -19.701267    -19.701249   1.000000   1.000000
    2      -17.618211    -17.618153   1.000000   1.000000
    3      -13.941632    -13.941467   1.000000   1.000000
    4      -12.375967    -12.375745   1.000000   1.000000
    5      -11.058886    -11.058880   1.000000   1.000000
    6       -6.650347     -6.650330   1.000000   1.000000
    7       -5.511402     -5.511373   1.000000   1.000000
    8       -5.246614     -5.246565   1.000000   1.000000
    9       -2.425699     -2.425807   1.000000   1.000000
   10       -1.649927     -1.649977   1.000000   1.000000
   11       -0.704925     -0.704955   1.000000   1.000000
   12       -0.509282     -0.509255   1.000000   1.000000
   13        0.556948      0.556960   1.000000   1.000000
   14        0.667781      0.667860   1.000000   1.000000
   15        1.365189      1.365218   1.000000   1.000000
   16        2.125826      2.125864   1.000000   1.000000
   17        7.950826      7.950552   0.000000   0.000000
   18        8.122091      8.121922   0.000000   0.000000
   19        9.497828      9.497678   0.000000   0.000000
   20       10.613202     10.612815   0.000000   0.000000
   21       11.003761     11.003542   0.000000   0.000000
   22       12.155315     12.154681   0.000000   0.000000
 
  0.1250000E+00  0.1250000E+00  0.3188910E-16  0.3125000E-02
    1      -19.653633    -19.653615   1.000000   1.000000
    2      -17.630874    -17.630817   1.000000   1.000000
    3      -14.161276    -14.161127   1.000000   1.000000
    4      -12.606080    -12.605881   1.000000   1.000000
    5      -10.510260    -10.510218   1.000000   1.000000
    6       -6.614215     -6.614194   1.000000   1.000000
    7       -5.520690     -5.520646   1.000000   1.000000
    8       -5.223699     -5.223648   1.000000   1.000000
    9       -2.362629     -2.362734   1.000000   1.000000
   10       -1.742596     -1.742646   1.000000   1.000000
   11       -0.849814     -0.849823   1.000000   1.000000
   12       -0.570996     -0.571017   1.000000   1.000000
   13        0.491318      0.491388   1.000000   1.000000
   14        0.647274      0.647279   1.000000   1.000000
   15        1.271514      1.271541   1.000000   1.000000
   16        2.156423      2.156471   1.000000   1.000000
   17        8.170671      8.170412   0.000000   0.000000
   18        8.375795      8.375667   0.000000   0.000000
   19        9.339174      9.338983   0.000000   0.000000
   20       10.690869     10.690537   0.000000   0.000000
   21       11.021584     11.021301   0.000000   0.000000
   22       11.939685     11.939500   0.000000   0.000000
 
  0.2500000E+00  0.1250000E+00  0.4500665E-16  0.3125000E-02
    1      -19.577597    -19.577578   1.000000   1.000000
    2      -17.651473    -17.651417   1.000000   1.000000
    3      -14.404511    -14.404378   1.000000   1.000000
    4      -12.911004    -12.910816   1.000000   1.000000
    5       -9.776401     -9.776342   1.000000   1.000000
    6       -6.596602     -6.596571   1.000000   1.000000
    7       -5.564510     -5.564437   1.000000   1.000000
    8       -5.121616     -5.121562   1.000000   1.000000
    9       -2.281259     -2.281356   1.000000   1.000000
   10       -1.936791     -1.936849   1.000000   1.000000
   11       -1.195514     -1.195546   1.000000   1.000000
   12       -0.480531     -0.480568   1.000000   1.000000
   13        0.438039      0.438088   1.000000   1.000000
   14        0.577737      0.577749   1.000000   1.000000
   15        1.210392      1.210412   1.000000   1.000000
   16        2.142841      2.142899   1.000000   1.000000
   17        8.353694      8.353493   0.000000   0.000000
   18        8.683895      8.683795   0.000000   0.000000
   19        9.418896      9.418658   0.000000   0.000000
   20       10.548041     10.547743   0.000000   0.000000
   21       11.090901     11.090659   0.000000   0.000000
   22       11.903294     11.903253   0.000000   0.000000
 
  0.3750000E+00  0.1250000E+00  0.7139672E-16  0.3125000E-02
    1      -19.516800    -19.516780   1.000000   1.000000
    2      -17.668427    -17.668371   1.000000   1.000000
    3      -14.547199    -14.547075   1.000000   1.000000
    4      -13.126333    -13.126149   1.000000   1.000000
    5       -9.232126     -9.232068   1.000000   1.000000
    6       -6.630765     -6.630718   1.000000   1.000000
    7       -5.593136     -5.593038   1.000000   1.000000
    8       -5.017499     -5.017441   1.000000   1.000000
    9       -2.292327     -2.292412   1.000000   1.000000
   10       -2.108444     -2.108527   1.000000   1.000000
   11       -1.399123     -1.399167   1.000000   1.000000
   12       -0.275151     -0.275191   1.000000   1.000000
   13        0.273814      0.273827   1.000000   1.000000
   14        0.488535      0.488565   1.000000   1.000000
   15        1.330999      1.331024   1.000000   1.000000
   16        2.022540      2.022603   1.000000   1.000000
   17        8.343784      8.343586   0.000000   0.000000
   18        8.854246      8.854176   0.000000   0.000000
   19        9.671723      9.671528   0.000000   0.000000
   20       10.552468     10.552139   0.000000   0.000000
   21       11.135995     11.135777   0.000000   0.000000
   22       12.056736     12.054217   0.000000   0.000000
 
  0.5000000E+00  0.1250000E+00  0.4016803E-16  0.3125000E-02
    1      -19.511526    -19.511506   1.000000   1.000000
    2      -17.669866    -17.669811   1.000000   1.000000
    3      -14.489636    -14.489513   1.000000   1.000000
    4      -13.255878    -13.255697   1.000000   1.000000
    5       -9.126756     -9.126698   1.000000   1.000000
    6       -6.665564     -6.665514   1.000000   1.000000
    7       -5.592811     -5.592710   1.000000   1.000000
    8       -4.977418     -4.977358   1.000000   1.000000
    9       -2.282706     -2.282788   1.000000   1.000000
   10       -2.161561     -2.161650   1.000000   1.000000
   11       -1.438287     -1.438330   1.000000   1.000000
   12       -0.219529     -0.219569   1.000000   1.000000
   13        0.233117      0.233127   1.000000   1.000000
   14        0.519217      0.519248   1.000000   1.000000
   15        1.504013      1.504038   1.000000   1.000000
   16        1.866442      1.866507   1.000000   1.000000
   17        8.188989      8.188795   0.000000   0.000000
   18        8.841515      8.841430   0.000000   0.000000
   19        9.716575      9.716384   0.000000   0.000000
   20       10.942692     10.942351   0.000000   0.000000
   21       11.000086     10.999745   0.000000   0.000000
   22       12.033518     12.033133   0.000000   0.000000
 
 -0.3750000E+00  0.1250000E+00  0.2497569E-16  0.3125000E-02
    1      -19.565486    -19.565466   1.000000   1.000000
    2      -17.654540    -17.654484   1.000000   1.000000
    3      -14.222214    -14.222081   1.000000   1.000000
    4      -13.299321    -13.299146   1.000000   1.000000
    5       -9.509554     -9.509490   1.000000   1.000000
    6       -6.660420     -6.660387   1.000000   1.000000
    7       -5.572131     -5.572050   1.000000   1.000000
    8       -5.022597     -5.022539   1.000000   1.000000
    9       -2.303183     -2.303280   1.000000   1.000000
   10       -1.963242     -1.963296   1.000000   1.000000
   11       -1.345936     -1.345973   1.000000   1.000000
   12       -0.415330     -0.415367   1.000000   1.000000
   13        0.437089      0.437114   1.000000   1.000000
   14        0.620517      0.620549   1.000000   1.000000
   15        1.485987      1.486023   1.000000   1.000000
   16        1.926584      1.926633   1.000000   1.000000
   17        8.047446      8.047255   0.000000   0.000000
   18        8.634179      8.634063   0.000000   0.000000
   19        9.646565      9.646327   0.000000   0.000000
   20       10.530297     10.529953   0.000000   0.000000
   21       11.331700     11.331944   0.000000   0.000000
   22       12.094774     12.093258   0.000000   0.000000
 
 -0.2500000E+00  0.1250000E+00 -0.5241502E-16  0.3125000E-02
    1      -19.642162    -19.642144   1.000000   1.000000
    2      -17.633656    -17.633599   1.000000   1.000000
    3      -13.905095    -13.904936   1.000000   1.000000
    4      -13.163227    -13.163064   1.000000   1.000000
    5      -10.165492    -10.165430   1.000000   1.000000
    6       -6.662170     -6.662150   1.000000   1.000000
    7       -5.533077     -5.533023   1.000000   1.000000
    8       -5.125747     -5.125694   1.000000   1.000000
    9       -2.401926     -2.402031   1.000000   1.000000
   10       -1.682983     -1.683023   1.000000   1.000000
   11       -1.054186     -1.054197   1.000000   1.000000
   12       -0.566708     -0.566745   1.000000   1.000000
   13        0.535713      0.535760   1.000000   1.000000
   14        0.704110      0.704143   1.000000   1.000000
   15        1.442776      1.442815   1.000000   1.000000
   16        2.047858      2.047898   1.000000   1.000000
   17        8.054443      8.054202   0.000000   0.000000
   18        8.375305      8.375229   0.000000   0.000000
   19        9.190917      9.190627   0.000000   0.000000
   20       10.672584     10.672367   0.000000   0.000000
   21       11.239125     11.238771   0.000000   0.000000
   22       11.990516     11.990065   0.000000   0.000000
 
 -0.1250000E+00  0.1250000E+00  0.1443289E-16  0.3125000E-02
    1      -19.696659    -19.696641   1.000000   1.000000
    2      -17.619259    -17.619201   1.000000   1.000000
    3      -13.826818    -13.826645   1.000000   1.000000
    4      -12.707161    -12.706981   1.000000   1.000000
    5      -10.827739    -10.827701   1.000000   1.000000
    6       -6.667730     -6.667714   1.000000   1.000000
    7       -5.511498     -5.511464   1.000000   1.000000
    8       -5.212057     -5.212009   1.000000   1.000000
    9       -2.442725     -2.442833   1.000000   1.000000
   10       -1.619786     -1.619832   1.000000   1.000000
   11       -0.690383     -0.690389   1.000000   1.000000
   12       -0.626396     -0.626404   1.000000   1.000000
   13        0.583250      0.583257   1.000000   1.000000
   14        0.696867      0.696956   1.000000   1.000000
   15        1.421614      1.421647   1.000000   1.000000
   16        2.100075      2.100112   1.000000   1.000000
   17        7.934493      7.934226   0.000000   0.000000
   18        8.180385      8.180239   0.000000   0.000000
   19        9.256082      9.255877   0.000000   0.000000
   20       10.792336     10.792017   0.000000   0.000000
   21       10.955968     10.955686   0.000000   0.000000
   22       12.136426     12.135701   0.000000   0.000000
 
 -0.2134163E-18  0.2500000E+00 -0.3184582E-16  0.3125000E-02
    1      -19.501480    -19.501459   1.000000   1.000000
    2      -17.899789    -17.899739   1.000000   1.000000
    3      -14.175912    -14.175759   1.000000   1.000000
    4      -12.415389    -12.415171   1.000000   1.000000
    5      -10.492530    -10.492509   1.000000   1.000000
    6       -6.733239     -6.733211   1.000000   1.000000
    7       -5.495546     -5.495511   1.000000   1.000000
    8       -5.089550     -5.089482   1.000000   1.000000
    9       -2.492375     -2.492478   1.000000   1.000000
   10       -1.684866     -1.684916   1.000000   1.000000
   11       -0.887672     -0.887725   1.000000   1.000000
   12       -0.699674     -0.699674   1.000000   1.000000
   13        0.401104      0.401165   1.000000   1.000000
   14        0.773360      0.773369   1.000000   1.000000
   15        1.245854      1.245884   1.000000   1.000000
   16        2.108358      2.108399   1.000000   1.000000
   17        8.378640      8.378378   0.000000   0.000000
   18        8.630320      8.630219   0.000000   0.000000
   19        9.710006      9.709876   0.000000   0.000000
   20       10.474330     10.473924   0.000000   0.000000
   21       10.935629     10.935353   0.000000   0.000000
   22       12.127849     12.127768   0.000000   0.000000
 
  0.1250000E+00  0.2500000E+00 -0.2928793E-16  0.3125000E-02
    1      -19.440492    -19.440470   1.000000   1.000000
    2      -17.929599    -17.929550   1.000000   1.000000
    3      -14.360439    -14.360297   1.000000   1.000000
    4      -12.592449    -12.592246   1.000000   1.000000
    5       -9.986476     -9.986434   1.000000   1.000000
    6       -6.763875     -6.763839   1.000000   1.000000
    7       -5.475435     -5.475384   1.000000   1.000000
    8       -5.061162     -5.061094   1.000000   1.000000
    9       -2.429758     -2.429856   1.000000   1.000000
   10       -1.834056     -1.834111   1.000000   1.000000
   11       -1.024177     -1.024207   1.000000   1.000000
   12       -0.747320     -0.747370   1.000000   1.000000
   13        0.350375      0.350423   1.000000   1.000000
   14        0.769640      0.769651   1.000000   1.000000
   15        1.166115      1.166144   1.000000   1.000000
   16        2.156402      2.156455   1.000000   1.000000
   17        8.571793      8.571585   0.000000   0.000000
   18        8.702593      8.702454   0.000000   0.000000
   19        9.756036      9.755885   0.000000   0.000000
   20       10.641620     10.641331   0.000000   0.000000
   21       10.934106     10.933761   0.000000   0.000000
   22       11.861936     11.861573   0.000000   0.000000
 
  0.2500000E+00  0.2500000E+00  0.6377821E-16  0.3125000E-02
    1      -19.367124    -19.367102   1.000000   1.000000
    2      -17.964206    -17.964158   1.000000   1.000000
    3      -14.482313    -14.482180   1.000000   1.000000
    4      -12.890376    -12.890187   1.000000   1.000000
    5       -9.323369     -9.323313   1.000000   1.000000
    6       -6.920356     -6.920307   1.000000   1.000000
    7       -5.438597     -5.438525   1.000000   1.000000
    8       -4.970917     -4.970850   1.000000   1.000000
    9       -2.435669     -2.435762   1.000000   1.000000
   10       -1.987112     -1.987175   1.000000   1.000000
   11       -1.306151     -1.306198   1.000000   1.000000
   12       -0.550575     -0.550627   1.000000   1.000000
   13        0.410120      0.410158   1.000000   1.000000
   14        0.589038      0.589049   1.000000   1.000000
   15        1.144002      1.144024   1.000000   1.000000
   16        2.165924      2.165990   1.000000   1.000000
   17        8.540210      8.540049   0.000000   0.000000
   18        8.969155      8.969020   0.000000   0.000000
   19        9.660565      9.660365   0.000000   0.000000
   20       10.689837     10.689585   0.000000   0.000000
   21       10.988409     10.988147   0.000000   0.000000
   22       12.074502     12.074154   0.000000   0.000000
 
  0.3750000E+00  0.2500000E+00  0.1079695E-15  0.3125000E-02
    1      -19.326478    -19.326455   1.000000   1.000000
    2      -17.981796    -17.981748   1.000000   1.000000
    3      -14.467728    -14.467598   1.000000   1.000000
    4      -13.157635    -13.157454   1.000000   1.000000
    5       -8.842706     -8.842650   1.000000   1.000000
    6       -7.141603     -7.141542   1.000000   1.000000
    7       -5.390580     -5.390495   1.000000   1.000000
    8       -4.881183     -4.881115   1.000000   1.000000
    9       -2.451572     -2.451659   1.000000   1.000000
   10       -2.087330     -2.087399   1.000000   1.000000
   11       -1.486832     -1.486896   1.000000   1.000000
   12       -0.353392     -0.353437   1.000000   1.000000
   13        0.329191      0.329209   1.000000   1.000000
   14        0.559652      0.559671   1.000000   1.000000
   15        1.283705      1.283731   1.000000   1.000000
   16        2.049553      2.049623   1.000000   1.000000
   17        8.490345      8.490173   0.000000   0.000000
   18        8.907612      8.907522   0.000000   0.000000
   19        9.643202      9.642974   0.000000   0.000000
   20       10.666131     10.665891   0.000000   0.000000
   21       11.440253     11.439998   0.000000   0.000000
   22       12.203825     12.200505   0.000000   0.000000
 
  0.5000000E+00  0.2500000E+00  0.9001330E-16  0.3125000E-02
    1      -19.347345    -19.347322   1.000000   1.000000
    2      -17.968461    -17.968413   1.000000   1.000000
    3      -14.271432    -14.271299   1.000000   1.000000
    4      -13.362322    -13.362147   1.000000   1.000000
    5       -8.872466     -8.872406   1.000000   1.000000
    6       -7.181740     -7.181686   1.000000   1.000000
    7       -5.353470     -5.353385   1.000000   1.000000
    8       -4.847729     -4.847657   1.000000   1.000000
    9       -2.328395     -2.328465   1.000000   1.000000
   10       -2.196995     -2.197076   1.000000   1.000000
   11       -1.504941     -1.505006   1.000000   1.000000
   12       -0.448992     -0.449032   1.000000   1.000000
   13        0.381407      0.381420   1.000000   1.000000
   14        0.686008      0.686035   1.000000   1.000000
   15        1.515596      1.515630   1.000000   1.000000
   16        1.872374      1.872436   1.000000   1.000000
   17        8.201310      8.201151   0.000000   0.000000
   18        8.894635      8.894507   0.000000   0.000000
   19        9.627499      9.627270   0.000000   0.000000
   20       11.057030     11.056787   0.000000   0.000000
   21       11.503866     11.503446   0.000000   0.000000
   22       12.044575     12.041172   0.000000   0.000000
 
 -0.3750000E+00  0.2500000E+00 -0.5127644E-17  0.3125000E-02
    1      -19.414325    -19.414303   1.000000   1.000000
    2      -17.934688    -17.934639   1.000000   1.000000
    3      -13.944574    -13.944426   1.000000   1.000000
    4      -13.462888    -13.462722   1.000000   1.000000
    5       -9.360414     -9.360351   1.000000   1.000000
    6       -7.038227     -7.038192   1.000000   1.000000
    7       -5.352425     -5.352354   1.000000   1.000000
    8       -4.893687     -4.893611   1.000000   1.000000
    9       -2.464502     -2.464598   1.000000   1.000000
   10       -1.855853     -1.855894   1.000000   1.000000
   11       -1.409429     -1.409486   1.000000   1.000000
   12       -0.625527     -0.625568   1.000000   1.000000
   13        0.423002      0.423026   1.000000   1.000000
   14        0.832652      0.832684   1.000000   1.000000
   15        1.532975      1.533022   1.000000   1.000000
   16        1.928508      1.928552   1.000000   1.000000
   17        8.080271      8.080112   0.000000   0.000000
   18        8.673079      8.672922   0.000000   0.000000
   19        9.750170      9.749932   0.000000   0.000000
   20       10.849684     10.849055   0.000000   0.000000
   21       11.447429     11.463344   0.000000   0.000000
   22       12.099087     12.309127   0.000000   0.000000
 
 -0.2500000E+00  0.2500000E+00  0.2886577E-16  0.3125000E-02
    1      -19.483970    -19.483949   1.000000   1.000000
    2      -17.902787    -17.902737   1.000000   1.000000
    3      -13.854458    -13.854292   1.000000   1.000000
    4      -13.170595    -13.170433   1.000000   1.000000
    5       -9.970621     -9.970564   1.000000   1.000000
    6       -6.896817     -6.896792   1.000000   1.000000
    7       -5.395587     -5.395538   1.000000   1.000000
    8       -4.986296     -4.986222   1.000000   1.000000
    9       -2.554940     -2.555046   1.000000   1.000000
   10       -1.606165     -1.606201   1.000000   1.000000
   11       -1.126977     -1.127004   1.000000   1.000000
   12       -0.733900     -0.733943   1.000000   1.000000
   13        0.467784      0.467832   1.000000   1.000000
   14        0.823925      0.823949   1.000000   1.000000
   15        1.426438      1.426476   1.000000   1.000000
   16        2.054099      2.054140   1.000000   1.000000
   17        8.188783      8.188574   0.000000   0.000000
   18        8.527442      8.527350   0.000000   0.000000
   19        9.541108      9.540831   0.000000   0.000000
   20       10.794919     10.794654   0.000000   0.000000
   21       11.032759     11.032098   0.000000   0.000000
   22       12.207512     12.202069   0.000000   0.000000
 
 -0.1250000E+00  0.2500000E+00  0.1416855E-16  0.3125000E-02
    1      -19.518593    -19.518572   1.000000   1.000000
    2      -17.889378    -17.889327   1.000000   1.000000
    3      -13.991581    -13.991419   1.000000   1.000000
    4      -12.656710    -12.656516   1.000000   1.000000
    5      -10.455937    -10.455902   1.000000   1.000000
    6       -6.791166     -6.791141   1.000000   1.000000
    7       -5.464399     -5.464365   1.000000   1.000000
    8       -5.058700     -5.058630   1.000000   1.000000
    9       -2.551712     -2.551818   1.000000   1.000000
   10       -1.601440     -1.601486   1.000000   1.000000
   11       -0.901214     -0.901254   1.000000   1.000000
   12       -0.698614     -0.698621   1.000000   1.000000
   13        0.523527      0.523604   1.000000   1.000000
   14        0.739016      0.739022   1.000000   1.000000
   15        1.306474      1.306499   1.000000   1.000000
   16        2.092142      2.092181   1.000000   1.000000
   17        8.247447      8.247187   0.000000   0.000000
   18        8.583810      8.583739   0.000000   0.000000
   19        9.533441      9.533218   0.000000   0.000000
   20       10.546716     10.546369   0.000000   0.000000
   21       10.940773     10.940490   0.000000   0.000000
   22       12.295841     12.291325   0.000000   0.000000
 
 -0.5226877E-16  0.3750000E+00  0.2524097E-16  0.3125000E-02
    1      -19.195016    -19.194990   1.000000   1.000000
    2      -18.288763    -18.288722   1.000000   1.000000
    3      -14.351837    -14.351690   1.000000   1.000000
    4      -12.455414    -12.455200   1.000000   1.000000
    5       -9.929693     -9.929665   1.000000   1.000000
    6       -6.870108     -6.870060   1.000000   1.000000
    7       -5.368601     -5.368549   1.000000   1.000000
    8       -5.034365     -5.034294   1.000000   1.000000
    9       -2.580263     -2.580362   1.000000   1.000000
   10       -1.714915     -1.714955   1.000000   1.000000
   11       -1.071670     -1.071737   1.000000   1.000000
   12       -0.930940     -0.930993   1.000000   1.000000
   13        0.244129      0.244170   1.000000   1.000000
   14        0.930810      0.930824   1.000000   1.000000
   15        1.178652      1.178690   1.000000   1.000000
   16        2.089491      2.089537   1.000000   1.000000
   17        8.880601      8.880474   0.000000   0.000000
   18        8.973087      8.972906   0.000000   0.000000
   19       10.003869     10.003716   0.000000   0.000000
   20       10.425619     10.425405   0.000000   0.000000
   21       11.104111     11.103594   0.000000   0.000000
   22       11.805248     11.805231   0.000000   0.000000
 
  0.1250000E+00  0.3750000E+00  0.1392107E-16  0.3125000E-02
    1      -19.130759    -19.130732   1.000000   1.000000
    2      -18.334623    -18.334583   1.000000   1.000000
    3      -14.431381    -14.431239   1.000000   1.000000
    4      -12.608716    -12.608514   1.000000   1.000000