   1   1   1   0
  0.2012070E+02  0.2967711E-09  0.2967711E-09  0.2967711E-09  0.5000000E-15
  1.000000000000000E-004
  CAR 
 unknown system                          
     32.38276034    -49.60045579  301      0.71034536      1.00000000
    -49.600  0.0000E+00  0.0000E+00  0.0000E+00  0.0000E+00
    -49.327  0.0000E+00  0.0000E+00  0.0000E+00  0.0000E+00
    -49.054  0.0000E+00  0.0000E+00  0.0000E+00  0.0000E+00
    -48.781  0.0000E+00  0.0000E+00  0.0000E+00  0.0000E+00
    -48.507  0.0000E+00  0.0000E+00  0.0000E+00  0.0000E+00
    -48.234  0.0000E+00  0.0000E+00  0.0000E+00  0.0000E+00
    -47.961  0.0000E+00  0.0000E+00  0.0000E+00  0.0000E+00
    -47.688 -0.3811E-37 -0.3808E-37 -0.1041E-37 -0.1041E-37
    -47.414 -0.3590E-27 -0.3587E-27 -0.9809E-28 -0.9803E-28
    -47.141 -0.7900E-19 -0.7895E-19 -0.2159E-19 -0.2158E-19
    -46.868 -0.3847E-12 -0.3845E-12 -0.1051E-12 -0.1051E-12
    -46.594 -0.4204E-07 -0.4203E-07 -0.1149E-07 -0.1149E-07
    -46.321 -0.8821E-04 -0.8820E-04 -0.2412E-04 -0.2411E-04
    -46.048 -0.6835E-03 -0.6837E-03 -0.2109E-03 -0.2110E-03
    -45.775  0.3073E-01  0.3073E-01  0.8186E-02  0.8186E-02
    -45.501  0.7591E-02  0.7592E-02  0.1026E-01  0.1026E-01
    -45.228 -0.5806E-03 -0.5807E-03  0.1010E-01  0.1010E-01
    -44.955 -0.1628E-05 -0.1629E-05  0.1010E-01  0.1010E-01
    -44.681 -0.7413E-10 -0.7416E-10  0.1010E-01  0.1010E-01
    -44.408 -0.7269E-16 -0.7269E-16  0.1010E-01  0.1010E-01
    -44.135  0.0000E+00  0.0000E+00  0.1010E-01  0.1010E-01
    -43.862  0.0000E+00  0.0000E+00  0.1010E-01  0.1010E-01
    -43.588  0.0000E+00  0.0000E+00  0.1010E-01  0.1010E-01
    -43.315  0.0000E+00  0.0000E+00  0.1010E-01  0.1010E-01
    -43.042  0.0000E+00  0.0000E+00  0.1010E-01  0.1010E-01
    -42.769  0.0000E+00  0.0000E+00  0.1010E-01  0.1010E-01
    -42.495  0.0000E+00  0.0000E+00  0.1010E-01  0.1010E-01
    -42.222  0.0000E+00  0.0000E+00  0.1010E-01  0.1010E-01
    -41.949  0.0000E+00  0.0000E+00  0.1010E-01  0.1010E-01
    -41.675  0.0000E+00  0.0000E+00  0.1010E-01  0.1010E-01
    -41.402  0.0000E+00  0.0000E+00  0.1010E-01  0.1010E-01
    -41.129  0.0000E+00  0.0000E+00  0.1010E-01  0.1010E-01
    -40.856  0.0000E+00  0.0000E+00  0.1010E-01  0.1010E-01
    -40.582  0.0000E+00  0.0000E+00  0.1010E-01  0.1010E-01
    -40.309  0.0000E+00  0.0000E+00  0.1010E-01  0.1010E-01
    -40.036  0.0000E+00  0.0000E+00  0.1010E-01  0.1010E-01
    -39.762  0.0000E+00  0.0000E+00  0.1010E-01  0.1010E-01
    -39.489  0.0000E+00  0.0000E+00  0.1010E-01  0.1010E-01
    -39.216  0.0000E+00  0.0000E+00  0.1010E-01  0.1010E-01
    -38.943  0.0000E+00  0.0000E+00  0.1010E-01  0.1010E-01
    -38.669  0.0000E+00  0.0000E+00  0.1010E-01  0.1010E-01
    -38.396  0.0000E+00  0.0000E+00  0.1010E-01  0.1010E-01
    -38.123  0.0000E+00  0.0000E+00  0.1010E-01  0.1010E-01
    -37.850  0.0000E+00  0.0000E+00  0.1010E-01  0.1010E-01
    -37.576  0.0000E+00  0.0000E+00  0.1010E-01  0.1010E-01
    -37.303  0.0000E+00  0.0000E+00  0.1010E-01  0.1010E-01
    -37.030  0.0000E+00  0.0000E+00  0.1010E-01  0.1010E-01
    -36.756  0.0000E+00  0.0000E+00  0.1010E-01  0.1010E-01
    -36.483  0.0000E+00  0.0000E+00  0.1010E-01  0.1010E-01
    -36.210  0.0000E+00  0.0000E+00  0.1010E-01  0.1010E-01
    -35.937  0.0000E+00  0.0000E+00  0.1010E-01  0.1010E-01
    -35.663  0.0000E+00  0.0000E+00  0.1010E-01  0.1010E-01
    -35.390  0.0000E+00  0.0000E+00  0.1010E-01  0.1010E-01
    -35.117  0.0000E+00  0.0000E+00  0.1010E-01  0.1010E-01
    -34.843  0.0000E+00  0.0000E+00  0.1010E-01  0.1010E-01
    -34.570  0.0000E+00  0.0000E+00  0.1010E-01  0.1010E-01
    -34.297  0.0000E+00  0.0000E+00  0.1010E-01  0.1010E-01
    -34.024  0.0000E+00  0.0000E+00  0.1010E-01  0.1010E-01
    -33.750  0.0000E+00  0.0000E+00  0.1010E-01  0.1010E-01
    -33.477  0.0000E+00  0.0000E+00  0.1010E-01  0.1010E-01
    -33.204  0.0000E+00  0.0000E+00  0.1010E-01  0.1010E-01
    -32.931  0.0000E+00  0.0000E+00  0.1010E-01  0.1010E-01
    -32.657  0.0000E+00  0.0000E+00  0.1010E-01  0.1010E-01
    -32.384  0.0000E+00  0.0000E+00  0.1010E-01  0.1010E-01
    -32.111  0.0000E+00  0.0000E+00  0.1010E-01  0.1010E-01
    -31.837  0.0000E+00  0.0000E+00  0.1010E-01  0.1010E-01
    -31.564  0.0000E+00  0.0000E+00  0.1010E-01  0.1010E-01
    -31.291  0.0000E+00  0.0000E+00  0.1010E-01  0.1010E-01
    -31.018  0.0000E+00  0.0000E+00  0.1010E-01  0.1010E-01
    -30.744  0.0000E+00  0.0000E+00  0.1010E-01  0.1010E-01
    -30.471  0.0000E+00  0.0000E+00  0.1010E-01  0.1010E-01
    -30.198  0.0000E+00  0.0000E+00  0.1010E-01  0.1010E-01
    -29.924  0.0000E+00  0.0000E+00  0.1010E-01  0.1010E-01
    -29.651  0.0000E+00  0.0000E+00  0.1010E-01  0.1010E-01
    -29.378  0.0000E+00  0.0000E+00  0.1010E-01  0.1010E-01
    -29.105  0.0000E+00  0.0000E+00  0.1010E-01  0.1010E-01
    -28.831  0.0000E+00  0.0000E+00  0.1010E-01  0.1010E-01
    -28.558  0.0000E+00  0.0000E+00  0.1010E-01  0.1010E-01
    -28.285  0.0000E+00  0.0000E+00  0.1010E-01  0.1010E-01
    -28.012  0.0000E+00  0.0000E+00  0.1010E-01  0.1010E-01
    -27.738  0.0000E+00  0.0000E+00  0.1010E-01  0.1010E-01
    -27.465  0.0000E+00  0.0000E+00  0.1010E-01  0.1010E-01
    -27.192  0.0000E+00  0.0000E+00  0.1010E-01  0.1010E-01
    -26.918  0.0000E+00  0.0000E+00  0.1010E-01  0.1010E-01
    -26.645  0.0000E+00  0.0000E+00  0.1010E-01  0.1010E-01
    -26.372  0.0000E+00  0.0000E+00  0.1010E-01  0.1010E-01
    -26.099  0.0000E+00  0.0000E+00  0.1010E-01  0.1010E-01
    -25.825  0.0000E+00  0.0000E+00  0.1010E-01  0.1010E-01
    -25.552  0.0000E+00  0.0000E+00  0.1010E-01  0.1010E-01
    -25.279  0.0000E+00  0.0000E+00  0.1010E-01  0.1010E-01
    -25.005  0.0000E+00  0.0000E+00  0.1010E-01  0.1010E-01
    -24.732  0.0000E+00  0.0000E+00  0.1010E-01  0.1010E-01
    -24.459  0.0000E+00  0.0000E+00  0.1010E-01  0.1010E-01
    -24.186  0.0000E+00  0.0000E+00  0.1010E-01  0.1010E-01
    -23.912  0.0000E+00  0.0000E+00  0.1010E-01  0.1010E-01
    -23.639  0.0000E+00  0.0000E+00  0.1010E-01  0.1010E-01
    -23.366  0.0000E+00  0.0000E+00  0.1010E-01  0.1010E-01
    -23.093  0.0000E+00  0.0000E+00  0.1010E-01  0.1010E-01
    -22.819  0.0000E+00  0.0000E+00  0.1010E-01  0.1010E-01
    -22.546  0.0000E+00  0.0000E+00  0.1010E-01  0.1010E-01
    -22.273  0.0000E+00  0.0000E+00  0.1010E-01  0.1010E-01
    -21.999  0.0000E+00  0.0000E+00  0.1010E-01  0.1010E-01
    -21.726  0.0000E+00  0.0000E+00  0.1010E-01  0.1010E-01
    -21.453  0.0000E+00  0.0000E+00  0.1010E-01  0.1010E-01
    -21.180  0.0000E+00  0.0000E+00  0.1010E-01  0.1010E-01
    -20.906  0.0000E+00  0.0000E+00  0.1010E-01  0.1010E-01
    -20.633  0.0000E+00  0.0000E+00  0.1010E-01  0.1010E-01
    -20.360  0.0000E+00  0.0000E+00  0.1010E-01  0.1010E-01
    -20.086  0.0000E+00  0.0000E+00  0.1010E-01  0.1010E-01
    -19.813  0.0000E+00  0.0000E+00  0.1010E-01  0.1010E-01
    -19.540  0.0000E+00  0.0000E+00  0.1010E-01  0.1010E-01
    -19.267  0.0000E+00  0.0000E+00  0.1010E-01  0.1010E-01
    -18.993  0.0000E+00  0.0000E+00  0.1010E-01  0.1010E-01
    -18.720  0.0000E+00  0.0000E+00  0.1010E-01  0.1010E-01
    -18.447  0.0000E+00  0.0000E+00  0.1010E-01  0.1010E-01
    -18.174  0.0000E+00  0.0000E+00  0.1010E-01  0.1010E-01
    -17.900  0.0000E+00  0.0000E+00  0.1010E-01  0.1010E-01
    -17.627  0.0000E+00  0.0000E+00  0.1010E-01  0.1010E-01
    -17.354  0.0000E+00  0.0000E+00  0.1010E-01  0.1010E-01
    -17.080  0.0000E+00  0.0000E+00  0.1010E-01  0.1010E-01
    -16.807  0.0000E+00  0.0000E+00  0.1010E-01  0.1010E-01
    -16.534  0.0000E+00  0.0000E+00  0.1010E-01  0.1010E-01
    -16.261  0.0000E+00  0.0000E+00  0.1010E-01  0.1010E-01
    -15.987  0.0000E+00  0.0000E+00  0.1010E-01  0.1010E-01
    -15.714  0.0000E+00  0.0000E+00  0.1010E-01  0.1010E-01
    -15.441  0.0000E+00  0.0000E+00  0.1010E-01  0.1010E-01
    -15.168  0.0000E+00  0.0000E+00  0.1010E-01  0.1010E-01
    -14.894  0.0000E+00  0.0000E+00  0.1010E-01  0.1010E-01
    -14.621  0.0000E+00  0.0000E+00  0.1010E-01  0.1010E-01
    -14.348  0.0000E+00  0.0000E+00  0.1010E-01  0.1010E-01
    -14.074  0.0000E+00  0.0000E+00  0.1010E-01  0.1010E-01
    -13.801  0.0000E+00  0.0000E+00  0.1010E-01  0.1010E-01
    -13.528  0.0000E+00  0.0000E+00  0.1010E-01  0.1010E-01
    -13.255  0.0000E+00  0.0000E+00  0.1010E-01  0.1010E-01
    -12.981  0.0000E+00  0.0000E+00  0.1010E-01  0.1010E-01
    -12.708  0.0000E+00  0.0000E+00  0.1010E-01  0.1010E-01
    -12.435  0.0000E+00  0.0000E+00  0.1010E-01  0.1010E-01
    -12.161  0.0000E+00  0.0000E+00  0.1010E-01  0.1010E-01
    -11.888  0.0000E+00  0.0000E+00  0.1010E-01  0.1010E-01
    -11.615  0.0000E+00  0.0000E+00  0.1010E-01  0.1010E-01
    -11.342  0.0000E+00  0.0000E+00  0.1010E-01  0.1010E-01
    -11.068  0.0000E+00  0.0000E+00  0.1010E-01  0.1010E-01
    -10.795  0.0000E+00  0.0000E+00  0.1010E-01  0.1010E-01
    -10.522  0.0000E+00  0.0000E+00  0.1010E-01  0.1010E-01
    -10.249  0.0000E+00  0.0000E+00  0.1010E-01  0.1010E-01
     -9.975  0.0000E+00  0.0000E+00  0.1010E-01  0.1010E-01
     -9.702  0.0000E+00  0.0000E+00  0.1010E-01  0.1010E-01
     -9.429  0.0000E+00  0.0000E+00  0.1010E-01  0.1010E-01
     -9.155  0.0000E+00  0.0000E+00  0.1010E-01  0.1010E-01
     -8.882  0.0000E+00  0.0000E+00  0.1010E-01  0.1010E-01
     -8.609  0.0000E+00  0.0000E+00  0.1010E-01  0.1010E-01
     -8.336  0.0000E+00  0.0000E+00  0.1010E-01  0.1010E-01
     -8.062  0.0000E+00  0.0000E+00  0.1010E-01  0.1010E-01
     -7.789  0.0000E+00  0.0000E+00  0.1010E-01  0.1010E-01
     -7.516  0.0000E+00  0.0000E+00  0.1010E-01  0.1010E-01
     -7.242  0.0000E+00  0.0000E+00  0.1010E-01  0.1010E-01
     -6.969  0.0000E+00  0.0000E+00  0.1010E-01  0.1010E-01
     -6.696  0.0000E+00  0.0000E+00  0.1010E-01  0.1010E-01
     -6.423  0.0000E+00  0.0000E+00  0.1010E-01  0.1010E-01
     -6.149  0.0000E+00  0.0000E+00  0.1010E-01  0.1010E-01
     -5.876  0.0000E+00  0.0000E+00  0.1010E-01  0.1010E-01
     -5.603  0.0000E+00  0.0000E+00  0.1010E-01  0.1010E-01
     -5.330  0.0000E+00  0.0000E+00  0.1010E-01  0.1010E-01
     -5.056  0.0000E+00  0.0000E+00  0.1010E-01  0.1010E-01
     -4.783 -0.1259E-41 -0.1259E-41  0.1010E-01  0.1010E-01
     -4.510 -0.1801E-31 -0.1801E-31  0.1010E-01  0.1010E-01
     -4.236 -0.5997E-23 -0.5997E-23  0.1010E-01  0.1010E-01
     -3.963 -0.4476E-16 -0.4476E-16  0.1010E-01  0.1010E-01
     -3.690 -0.8087E-11 -0.8087E-11  0.1010E-01  0.1010E-01
     -3.417 -0.3899E-07 -0.3899E-07  0.1010E-01  0.1010E-01
     -3.143 -0.5083E-05 -0.5083E-05  0.1010E-01  0.1010E-01
     -2.870  0.5501E-04  0.5501E-04  0.1011E-01  0.1011E-01
     -2.597  0.4443E-03  0.4443E-03  0.1024E-01  0.1024E-01
     -2.323  0.7130E-03  0.7130E-03  0.1043E-01  0.1043E-01
     -2.050  0.9813E-03  0.9813E-03  0.1070E-01  0.1070E-01
     -1.777  0.1033E-02  0.1033E-02  0.1098E-01  0.1098E-01
     -1.504  0.1251E-02  0.1251E-02  0.1132E-01  0.1132E-01
     -1.230  0.1368E-02  0.1368E-02  0.1170E-01  0.1170E-01
     -0.957  0.1293E-02  0.1293E-02  0.1205E-01  0.1205E-01
     -0.684  0.1895E-02  0.1895E-02  0.1257E-01  0.1257E-01
     -0.411  0.1541E-02  0.1541E-02  0.1299E-01  0.1299E-01
     -0.137  0.1514E-02  0.1514E-02  0.1340E-01  0.1340E-01
      0.136  0.2443E-02  0.2443E-02  0.1407E-01  0.1407E-01
      0.409  0.2026E-02  0.2026E-02  0.1462E-01  0.1462E-01
      0.683  0.1707E-02  0.1707E-02  0.1509E-01  0.1509E-01
      0.956  0.2980E-02  0.2980E-02  0.1591E-01  0.1591E-01
      1.229  0.3658E-02  0.3658E-02  0.1691E-01  0.1691E-01
      1.502  0.1579E-02  0.1579E-02  0.1734E-01  0.1734E-01
      1.776  0.1606E-02  0.1606E-02  0.1778E-01  0.1778E-01
      2.049  0.3308E-02  0.3308E-02  0.1868E-01  0.1868E-01
      2.322  0.1353E-02  0.1353E-02  0.1905E-01  0.1905E-01
      2.596  0.6068E-03  0.6068E-03  0.1922E-01  0.1922E-01
      2.869  0.8498E-03  0.8498E-03  0.1945E-01  0.1945E-01
      3.142  0.1442E-02  0.1442E-02  0.1984E-01  0.1984E-01
      3.415  0.4614E-03  0.4614E-03  0.1997E-01  0.1997E-01
      3.689  0.5709E-03  0.5709E-03  0.2012E-01  0.2012E-01
      3.962  0.1774E-02  0.1774E-02  0.2061E-01  0.2061E-01
      4.235  0.3762E-02  0.3762E-02  0.2164E-01  0.2164E-01
      4.508  0.3573E-02  0.3573E-02  0.2261E-01  0.2261E-01
      4.782  0.2200E-02  0.2200E-02  0.2321E-01  0.2321E-01
      5.055  0.3291E-02  0.3291E-02  0.2411E-01  0.2411E-01
      5.328  0.1282E-02  0.1282E-02  0.2446E-01  0.2446E-01
      5.602  0.1658E-02  0.1658E-02  0.2492E-01  0.2492E-01
      5.875  0.3892E-02  0.3892E-02  0.2598E-01  0.2598E-01
      6.148  0.1370E-02  0.1370E-02  0.2635E-01  0.2635E-01
      6.421  0.1034E-02  0.1034E-02  0.2664E-01  0.2664E-01
      6.695  0.2639E-02  0.2639E-02  0.2736E-01  0.2736E-01
      6.968  0.4158E-02  0.4158E-02  0.2849E-01  0.2849E-01
      7.241  0.2992E-02  0.2992E-02  0.2931E-01  0.2931E-01
      7.515  0.2755E-02  0.2755E-02  0.3007E-01  0.3007E-01
      7.788  0.3239E-02  0.3239E-02  0.3095E-01  0.3095E-01
      8.061  0.2754E-02  0.2754E-02  0.3170E-01  0.3170E-01
      8.334  0.3379E-02  0.3379E-02  0.3263E-01  0.3263E-01
      8.608  0.1406E-02  0.1406E-02  0.3301E-01  0.3301E-01
      8.881  0.3530E-02  0.3530E-02  0.3398E-01  0.3398E-01
      9.154  0.2503E-02  0.2503E-02  0.3466E-01  0.3466E-01
      9.427  0.2731E-02  0.2731E-02  0.3541E-01  0.3541E-01
      9.701  0.2486E-02  0.2486E-02  0.3608E-01  0.3608E-01
      9.974  0.3578E-02  0.3578E-02  0.3706E-01  0.3706E-01
     10.247  0.3067E-02  0.3067E-02  0.3790E-01  0.3790E-01
     10.521  0.3757E-02  0.3757E-02  0.3893E-01  0.3893E-01
     10.794  0.3784E-02  0.3784E-02  0.3996E-01  0.3996E-01
     11.067  0.2347E-02  0.2347E-02  0.4060E-01  0.4060E-01
     11.340  0.3019E-02  0.3019E-02  0.4143E-01  0.4143E-01
     11.614  0.3320E-02  0.3320E-02  0.4233E-01  0.4233E-01
     11.887  0.4249E-02  0.4249E-02  0.4350E-01  0.4350E-01
     12.160  0.3486E-02  0.3486E-02  0.4445E-01  0.4445E-01
     12.434  0.2112E-02  0.2112E-02  0.4503E-01  0.4503E-01
     12.707  0.5714E-02  0.5714E-02  0.4659E-01  0.4659E-01
     12.980  0.5280E-02  0.5280E-02  0.4803E-01  0.4803E-01
     13.253  0.3070E-02  0.3070E-02  0.4887E-01  0.4887E-01
     13.527  0.3589E-02  0.3589E-02  0.4985E-01  0.4985E-01
     13.800  0.4344E-02  0.4344E-02  0.5104E-01  0.5104E-01
     14.073  0.2345E-02  0.2345E-02  0.5168E-01  0.5168E-01
     14.346  0.1277E-02  0.1277E-02  0.5203E-01  0.5203E-01
     14.620  0.2563E-02  0.2563E-02  0.5273E-01  0.5273E-01
     14.893  0.3665E-02  0.3665E-02  0.5373E-01  0.5373E-01
     15.166  0.1246E-02  0.1246E-02  0.5407E-01  0.5407E-01
     15.440  0.1086E-02  0.1086E-02  0.5437E-01  0.5437E-01
     15.713  0.2600E-02  0.2600E-02  0.5508E-01  0.5508E-01
     15.986  0.2345E-02  0.2345E-02  0.5572E-01  0.5572E-01
     16.259  0.3450E-02  0.3450E-02  0.5666E-01  0.5666E-01
     16.533  0.3624E-02  0.3624E-02  0.5765E-01  0.5765E-01
     16.806  0.1770E-02  0.1770E-02  0.5813E-01  0.5813E-01
     17.079  0.1044E-02  0.1044E-02  0.5842E-01  0.5842E-01
     17.353  0.1665E-02  0.1665E-02  0.5887E-01  0.5887E-01
     17.626  0.7406E-02  0.7406E-02  0.6090E-01  0.6090E-01
     17.899  0.4386E-02  0.4386E-02  0.6210E-01  0.6210E-01
     18.172  0.4416E-02  0.4416E-02  0.6330E-01  0.6330E-01
     18.446  0.6046E-02  0.6046E-02  0.6496E-01  0.6496E-01
     18.719  0.2411E-02  0.2411E-02  0.6562E-01  0.6562E-01
     18.992  0.3255E-02  0.3255E-02  0.6650E-01  0.6650E-01
     19.265  0.2908E-02  0.2908E-02  0.6730E-01  0.6730E-01
     19.539  0.4387E-02  0.4387E-02  0.6850E-01  0.6850E-01
     19.812  0.1545E-02  0.1545E-02  0.6892E-01  0.6892E-01
     20.085  0.4139E-02  0.4139E-02  0.7005E-01  0.7005E-01
     20.359  0.4311E-02  0.4311E-02  0.7123E-01  0.7123E-01
     20.632  0.3327E-02  0.3327E-02  0.7214E-01  0.7214E-01
     20.905  0.3504E-02  0.3504E-02  0.7310E-01  0.7310E-01
     21.178  0.2424E-02  0.2424E-02  0.7376E-01  0.7376E-01
     21.452  0.6340E-02  0.6340E-02  0.7549E-01  0.7549E-01
     21.725  0.3116E-02  0.3116E-02  0.7634E-01  0.7634E-01
     21.998  0.7409E-03  0.7409E-03  0.7655E-01  0.7655E-01
     22.271  0.1867E-02  0.1867E-02  0.7706E-01  0.7706E-01
     22.545  0.2363E-02  0.2363E-02  0.7770E-01  0.7770E-01
     22.818  0.2886E-02  0.2886E-02  0.7849E-01  0.7849E-01
     23.091  0.4249E-03  0.4246E-03  0.7861E-01  0.7861E-01
     23.365  0.1115E-02  0.1114E-02  0.7891E-01  0.7891E-01
     23.638  0.1723E-02  0.1724E-02  0.7938E-01  0.7938E-01
     23.911  0.2064E-02  0.2064E-02  0.7995E-01  0.7995E-01
     24.184  0.2550E-03  0.2551E-03  0.8002E-01  0.8002E-01
     24.458  0.4147E-03  0.4145E-03  0.8013E-01  0.8013E-01
     24.731  0.3246E-03  0.3245E-03  0.8022E-01  0.8022E-01
     25.004  0.3724E-03  0.3726E-03  0.8032E-01  0.8032E-01
     25.278  0.4220E-03  0.4249E-03  0.8043E-01  0.8043E-01
     25.551  0.3615E-03  0.2965E-03  0.8053E-01  0.8052E-01
     25.824  0.3564E-03  0.4093E-03  0.8063E-01  0.8063E-01
     26.097  0.1760E-03  0.1930E-03  0.8068E-01  0.8068E-01
     26.371  0.2514E-03  0.2434E-03  0.8075E-01  0.8075E-01
     26.644  0.1020E-03  0.1020E-03  0.8078E-01  0.8078E-01
     26.917  0.2172E-04  0.2178E-04  0.8078E-01  0.8078E-01
     27.190 -0.1783E-05 -0.1785E-05  0.8078E-01  0.8078E-01
     27.464 -0.4001E-08 -0.4012E-08  0.8078E-01  0.8078E-01
     27.737 -0.2327E-12 -0.2359E-12  0.8078E-01  0.8078E-01
     28.010 -0.2465E-08 -0.2518E-08  0.8078E-01  0.8078E-01
     28.284 -0.1221E-05 -0.1233E-05  0.8078E-01  0.8078E-01
     28.557  0.1451E-04  0.1472E-04  0.8078E-01  0.8078E-01
     28.830  0.8824E-04  0.8811E-04  0.8081E-01  0.8081E-01
     29.103 -0.2309E-06 -0.3040E-06  0.8081E-01  0.8081E-01
     29.377 -0.3500E-06 -0.3454E-06  0.8081E-01  0.8081E-01
     29.650 -0.2197E-09 -0.2145E-09  0.8081E-01  0.8081E-01
     29.923 -0.2578E-14 -0.2493E-14  0.8081E-01  0.8081E-01
     30.197  0.0000E+00  0.0000E+00  0.8081E-01  0.8081E-01
     30.470  0.0000E+00  0.0000E+00  0.8081E-01  0.8081E-01
     30.743  0.0000E+00  0.0000E+00  0.8081E-01  0.8081E-01
     31.016  0.0000E+00  0.0000E+00  0.8081E-01  0.8081E-01
     31.290  0.0000E+00  0.0000E+00  0.8081E-01  0.8081E-01
     31.563  0.0000E+00  0.0000E+00  0.8081E-01  0.8081E-01
     31.836  0.0000E+00  0.0000E+00  0.8081E-01  0.8081E-01
     32.109  0.0000E+00  0.0000E+00  0.8081E-01  0.8081E-01
     32.383  0.0000E+00  0.0000E+00  0.8081E-01  0.8081E-01
     32.38276034    -49.60045579  301      0.71034536      1.00000000
    -49.600  0.0000E+00  0.0000E+00  0.0000E+00  0.0000E+00  0.0000E+00  0.0000E+00  0.0000E+00  0.0000E+00  0.0000E+00  0.0000E+00  0.0000E+00  0.0000E+00  0.0000E+00  0.0000E+00  0.0000E+00  0.0000E+00  0.0000E+00  0.0000E+00
    -49.327  0.0000E+00  0.0000E+00  0.0000E+00  0.0000E+00  0.0000E+00  0.0000E+00  0.0000E+00  0.0000E+00  0.0000E+00  0.0000E+00  0.0000E+00  0.0000E+00  0.0000E+00  0.0000E+00  0.0000E+00  0.0000E+00  0.0000E+00  0.0000E+00
    -49.054  0.0000E+00  0.0000E+00  0.0000E+00  0.0000E+00  0.0000E+00  0.0000E+00  0.0000E+00  0.0000E+00  0.0000E+00  0.0000E+00  0.0000E+00  0.0000E+00  0.0000E+00  0.0000E+00  0.0000E+00  0.0000E+00  0.0000E+00  0.0000E+00
    -48.781  0.0000E+00  0.0000E+00  0.0000E+00  0.0000E+00  0.0000E+00  0.0000E+00  0.0000E+00  0.0000E+00  0.0000E+00  0.0000E+00  0.0000E+00  0.0000E+00  0.0000E+00  0.0000E+00  0.0000E+00  0.0000E+00  0.0000E+00  0.0000E+00
    -48.507  0.0000E+00  0.0000E+00  0.0000E+00  0.0000E+00  0.0000E+00  0.0000E+00  0.0000E+00  0.0000E+00  0.0000E+00  0.0000E+00  0.0000E+00  0.0000E+00  0.0000E+00  0.0000E+00  0.0000E+00  0.0000E+00  0.0000E+00  0.0000E+00
    -48.234  0.0000E+00  0.0000E+00  0.0000E+00  0.0000E+00  0.0000E+00  0.0000E+00  0.0000E+00  0.0000E+00  0.0000E+00  0.0000E+00  0.0000E+00  0.0000E+00  0.0000E+00  0.0000E+00  0.0000E+00  0.0000E+00  0.0000E+00  0.0000E+00
    -47.961  0.0000E+00  0.0000E+00  0.0000E+00  0.0000E+00  0.0000E+00  0.0000E+00  0.0000E+00  0.0000E+00  0.0000E+00  0.0000E+00  0.0000E+00  0.0000E+00  0.0000E+00  0.0000E+00  0.0000E+00  0.0000E+00  0.0000E+00  0.0000E+00
    -47.688 -0.3732E-35 -0.3729E-35 -0.4354E-43 -0.4350E-43 -0.2660E-43 -0.2660E-43 -0.7229E-43 -0.7214E-43  0.0000E+00  0.0000E+00  0.0000E+00  0.0000E+00  0.0000E+00  0.0000E+00  0.0000E+00  0.0000E+00  0.0000E+00  0.0000E+00
    -47.414 -0.3516E-25 -0.3513E-25 -0.4107E-33 -0.4105E-33 -0.2515E-33 -0.2515E-33 -0.6810E-33 -0.6796E-33  0.0000E+00  0.0000E+00  0.0000E+00  0.0000E+00  0.0000E+00  0.0000E+00  0.0000E+00  0.0000E+00  0.0000E+00  0.0000E+00
    -47.141 -0.7737E-17 -0.7733E-17 -0.9040E-25 -0.9035E-25 -0.5544E-25 -0.5545E-25 -0.1501E-24 -0.1498E-24  0.0000E+00  0.0000E+00  0.0000E+00  0.0000E+00  0.0000E+00  0.0000E+00  0.0000E+00  0.0000E+00  0.0000E+00  0.0000E+00
    -46.868 -0.3768E-10 -0.3766E-10 -0.4398E-18 -0.4396E-18 -0.2700E-18 -0.2701E-18 -0.7335E-18 -0.7323E-18  0.0000E+00  0.0000E+00  0.0000E+00  0.0000E+00  0.0000E+00  0.0000E+00  0.0000E+00  0.0000E+00  0.0000E+00  0.0000E+00
    -46.594 -0.4118E-05 -0.4117E-05 -0.4800E-13 -0.4798E-13 -0.2947E-13 -0.2948E-13 -0.8071E-13 -0.8060E-13  0.0000E+00  0.0000E+00  0.0000E+00  0.0000E+00  0.0000E+00  0.0000E+00  0.0000E+00  0.0000E+00  0.0000E+00  0.0000E+00
    -46.321 -0.8641E-02 -0.8640E-02 -0.1006E-09 -0.1005E-09 -0.6170E-10 -0.6174E-10 -0.1713E-09 -0.1711E-09  0.0000E+00  0.0000E+00  0.0000E+00  0.0000E+00  0.0000E+00  0.0000E+00  0.0000E+00  0.0000E+00  0.0000E+00  0.0000E+00
    -46.048 -0.6696E-01 -0.6698E-01 -0.7775E-09 -0.7777E-09 -0.4738E-09 -0.4744E-09 -0.1416E-08 -0.1415E-08  0.0000E+00  0.0000E+00  0.0000E+00  0.0000E+00  0.0000E+00  0.0000E+00  0.0000E+00  0.0000E+00  0.0000E+00  0.0000E+00
    -45.775  0.3010E+01  0.3010E+01  0.3501E-07  0.3500E-07  0.2143E-07  0.2145E-07  0.6086E-07  0.6080E-07  0.0000E+00  0.0000E+00  0.0000E+00  0.0000E+00  0.0000E+00  0.0000E+00  0.0000E+00  0.0000E+00  0.0000E+00  0.0000E+00
    -45.501  0.7436E+00  0.7437E+00  0.8661E-08  0.8661E-08  0.5283E-08  0.5289E-08  0.1551E-07  0.1550E-07  0.0000E+00  0.0000E+00  0.0000E+00  0.0000E+00  0.0000E+00  0.0000E+00  0.0000E+00  0.0000E+00  0.0000E+00  0.0000E+00
    -45.228 -0.5688E-01 -0.5689E-01 -0.6623E-09 -0.6623E-09 -0.4043E-09 -0.4047E-09 -0.1179E-08 -0.1178E-08  0.0000E+00  0.0000E+00  0.0000E+00  0.0000E+00  0.0000E+00  0.0000E+00  0.0000E+00  0.0000E+00  0.0000E+00  0.0000E+00
    -44.955 -0.1595E-03 -0.1595E-03 -0.1865E-11 -0.1866E-11 -0.1134E-11 -0.1135E-11 -0.3422E-11 -0.3421E-11  0.0000E+00  0.0000E+00  0.0000E+00  0.0000E+00  0.0000E+00  0.0000E+00  0.0000E+00  0.0000E+00  0.0000E+00  0.0000E+00
    -44.681 -0.7262E-08 -0.7265E-08 -0.8548E-16 -0.8551E-16 -0.5174E-16 -0.5180E-16 -0.1615E-15 -0.1615E-15  0.0000E+00  0.0000E+00  0.0000E+00  0.0000E+00  0.0000E+00  0.0000E+00  0.0000E+00  0.0000E+00  0.0000E+00  0.0000E+00
    -44.408 -0.7121E-14 -0.7121E-14 -0.8414E-22 -0.8414E-22 -0.5126E-22 -0.5131E-22 -0.1649E-21 -0.1648E-21  0.0000E+00  0.0000E+00  0.0000E+00  0.0000E+00  0.0000E+00  0.0000E+00  0.0000E+00  0.0000E+00  0.0000E+00  0.0000E+00
    -44.135  0.0000E+00  0.0000E+00  0.0000E+00  0.0000E+00  0.0000E+00  0.0000E+00  0.0000E+00  0.0000E+00  0.0000E+00  0.0000E+00  0.0000E+00  0.0000E+00  0.0000E+00  0.0000E+00  0.0000E+00  0.0000E+00  0.0000E+00  0.0000E+00
    -43.862  0.0000E+00  0.0000E+00  0.0000E+00  0.0000E+00  0.0000E+00  0.0000E+00  0.0000E+00  0.0000E+00  0.0000E+00  0.0000E+00  0.0000E+00  0.0000E+00  0.0000E+00  0.0000E+00  0.0000E+00  0.0000E+00  0.0000E+00  0.0000E+00
    -43.588  0.0000E+00  0.0000E+00  0.0000E+00  0.0000E+00  0.0000E+00  0.0000E+00  0.0000E+00  0.0000E+00  0.0000E+00  0.0000E+00  0.0000E+00  0.0000E+00  0.0000E+00  0.0000E+00  0.0000E+00  0.0000E+00  0.0000E+00  0.0000E+00
    -43.315  0.0000E+00  0.0000E+00  0.0000E+00  0.0000E+00  0.0000E+00  0.0000E+00  0.0000E+00  0.0000E+00  0.0000E+00  0.0000E+00  0.0000E+00  0.0000E+00  0.0000E+00  0.0000E+00  0.0000E+00  0.0000E+00  0.0000E+00  0.0000E+00
    -43.042  0.0000E+00  0.0000E+00  0.0000E+00  0.0000E+00  0.0000E+00  0.0000E+00  0.0000E+00  0.0000E+00  0.0000E+00  0.0000E+00  0.0000E+00  0.0000E+00  0.0000E+00  0.0000E+00  0.0000E+00  0.0000E+00  0.0000E+00  0.0000E+00
    -42.769  0.0000E+00  0.0000E+00  0.0000E+00  0.0000E+00  0.0000E+00  0.0000E+00  0.0000E+00  0.0000E+00  0.0000E+00  0.0000E+00  0.0000E+00  0.0000E+00  0.0000E+00  0.0000E+00  0.0000E+00  0.0000E+00  0.0000E+00  0.0000E+00
    -42.495  0.0000E+00  0.0000E+00  0.0000E+00  0.0000E+00  0.0000E+00  0.0000E+00  0.0000E+00  0.0000E+00  0.0000E+00  0.0000E+00  0.0000E+00  0.0000E+00  0.0000E+00  0.0000E+00  0.0000E+00  0.0000E+00  0.0000E+00  0.0000E+00
    -42.222  0.0000E+00  0.0000E+00  0.0000E+00  0.0000E+00  0.0000E+00  0.0000E+00  0.0000E+00  0.0000E+00  0.0000E+00  0.0000E+00  0.0000E+00  0.0000E+00  0.0000E+00  0.0000E+00  0.0000E+00  0.0000E+00  0.0000E+00  0.0000E+00
    -41.949  0.0000E+00  0.0000E+00  0.0000E+00  0.0000E+00  0.0000E+00  0.0000E+00  0.0000E+00  0.0000E+00  0.0000E+00  0.0000E+00  0.0000E+00  0.0000E+00  0.0000E+00  0.0000E+00  0.0000E+00  0.0000E+00  0.0000E+00  0.0000E+00
    -41.675  0.0000E+00  0.0000E+00  0.0000E+00  0.0000E+00  0.0000E+00  0.0000E+00  0.0000E+00  0.0000E+00  0.0000E+00  0.0000E+00  0.0000E+00  0.0000E+00  0.0000E+00  0.0000E+00  0.0000E+00  0.0000E+00  0.0000E+00  0.0000E+00
    -41.402  0.0000E+00  0.0000E+00  0.0000E+00  0.0000E+00  0.0000E+00  0.0000E+00  0.0000E+00  0.0000E+00  0.0000E+00  0.0000E+00  0.0000E+00  0.0000E+00  0.0000E+00  0.0000E+00  0.0000E+00  0.0000E+00  0.0000E+00  0.0000E+00
    -41.129  0.0000E+00  0.0000E+00  0.0000E+00  0.0000E+00  0.0000E+00  0.0000E+00  0.0000E+00  0.0000E+00  0.0000E+00  0.0000E+00  0.0000E+00  0.0000E+00  0.0000E+00  0.0000E+00  0.0000E+00  0.0000E+00  0.0000E+00  0.0000E+00
    -40.856  0.0000E+00  0.0000E+00  0.0000E+00  0.0000E+00  0.0000E+00  0.0000E+00  0.0000E+00  0.0000E+00  0.0000E+00  0.0000E+00  0.0000E+00  0.0000E+00  0.0000E+00  0.0000E+00  0.0000E+00  0.0000E+00  0.0000E+00  0.0000E+00
    -40.582  0.0000E+00  0.0000E+00  0.0000E+00  0.0000E+00  0.0000E+00  0.0000E+00  0.0000E+00  0.0000E+00  0.0000E+00  0.0000E+00  0.0000E+00  0.0000E+00  0.0000E+00  0.0000E+00  0.0000E+00  0.0000E+00  0.0000E+00  0.0000E+00
    -40.309  0.0000E+00  0.0000E+00  0.0000E+00  0.0000E+00  0.0000E+00  0.0000E+00  0.0000E+00  0.0000E+00  0.0000E+00  0.0000E+00  0.0000E+00  0.0000E+00  0.0000E+00  0.0000E+00  0.0000E+00  0.0000E+00  0.0000E+00  0.0000E+00
    -40.036  0.0000E+00  0.0000E+00  0.0000E+00  0.0000E+00  0.0000E+00  0.0000E+00  0.0000E+00  0.0000E+00  0.0000E+00  0.0000E+00  0.0000E+00  0.0000E+00  0.0000E+00  0.0000E+00  0.0000E+00  0.0000E+00  0.0000E+00  0.0000E+00
    -39.762  0.0000E+00  0.0000E+00  0.0000E+00  0.0000E+00  0.0000E+00  0.0000E+00  0.0000E+00  0.0000E+00  0.0000E+00  0.0000E+00  0.0000E+00  0.0000E+00  0.0000E+00  0.0000E+00  0.0000E+00  0.0000E+00  0.0000E+00  0.0000E+00
    -39.489  0.0000E+00  0.0000E+00  0.0000E+00  0.0000E+00  0.0000E+00  0.0000E+00  0.0000E+00  0.0000E+00  0.0000E+00  0.0000E+00  0.0000E+00  0.0000E+00  0.0000E+00  0.0000E+00  0.0000E+00  0.0000E+00  0.0000E+00  0.0000E+00
    -39.216  0.0000E+00  0.0000E+00  0.0000E+00  0.0000E+00  0.0000E+00  0.0000E+00  0.0000E+00  0.0000E+00  0.0000E+00  0.0000E+00  0.0000E+00  0.0000E+00  0.0000E+00  0.0000E+00  0.0000E+00  0.0000E+00  0.0000E+00  0.0000E+00
    -38.943  0.0000E+00  0.0000E+00  0.0000E+00  0.0000E+00  0.0000E+00  0.0000E+00  0.0000E+00  0.0000E+00  0.0000E+00  0.0000E+00  0.0000E+00  0.0000E+00  0.0000E+00  0.0000E+00  0.0000E+00  0.0000E+00  0.0000E+00  0.0000E+00
    -38.669  0.0000E+00  0.0000E+00  0.0000E+00  0.0000E+00  0.0000E+00  0.0000E+00  0.0000E+00  0.0000E+00  0.0000E+00  0.0000E+00  0.0000E+00  0.0000E+00  0.0000E+00  0.0000E+00  0.0000E+00  0.0000E+00  0.0000E+00  0.0000E+00
    -38.396  0.0000E+00  0.0000E+00  0.0000E+00  0.0000E+00  0.0000E+00  0.0000E+00  0.0000E+00  0.0000E+00  0.0000E+00  0.0000E+00  0.0000E+00  0.0000E+00  0.0000E+00  0.0000E+00  0.0000E+00  0.0000E+00  0.0000E+00  0.0000E+00
    -38.123  0.0000E+00  0.0000E+00  0.0000E+00  0.0000E+00  0.0000E+00  0.0000E+00  0.0000E+00  0.0000E+00  0.0000E+00  0.0000E+00  0.0000E+00  0.0000E+00  0.0000E+00  0.0000E+00  0.0000E+00  0.0000E+00  0.0000E+00  0.0000E+00
    -37.850  0.0000E+00  0.0000E+00  0.0000E+00  0.0000E+00  0.0000E+00  0.0000E+00  0.0000E+00  0.0000E+00  0.0000E+00  0.0000E+00  0.0000E+00  0.0000E+00  0.0000E+00  0.0000E+00  0.0000E+00  0.0000E+00  0.0000E+00  0.0000E+00
    -37.576  0.0000E+00  0.0000E+00  0.0000E+00  0.0000E+00  0.0000E+00  0.0000E+00  0.0000E+00  0.0000E+00  0.0000E+00  0.0000E+00  0.0000E+00  0.0000E+00  0.0000E+00  0.0000E+00  0.0000E+00  0.0000E+00  0.0000E+00  0.0000E+00
    -37.303  0.0000E+00  0.0000E+00  0.0000E+00  0.0000E+00  0.0000E+00  0.0000E+00  0.0000E+00  0.0000E+00  0.0000E+00  0.0000E+00  0.0000E+00  0.0000E+00  0.0000E+00  0.0000E+00  0.0000E+00  0.0000E+00  0.0000E+00  0.0000E+00
    -37.030  0.0000E+00  0.0000E+00  0.0000E+00  0.0000E+00  0.0000E+00  0.0000E+00  0.0000E+00  0.0000E+00  0.0000E+00  0.0000E+00  0.0000E+00  0.0000E+00  0.0000E+00  0.0000E+00  0.0000E+00  0.0000E+00  0.0000E+00  0.0000E+00
    -36.756  0.0000E+00  0.0000E+00  0.0000E+00  0.0000E+00  0.0000E+00  0.0000E+00  0.0000E+00  0.0000E+00  0.0000E+00  0.0000E+00  0.0000E+00  0.0000E+00  0.0000E+00  0.0000E+00  0.0000E+00  0.0000E+00  0.0000E+00  0.0000E+00
    -36.483  0.0000E+00  0.0000E+00  0.0000E+00  0.0000E+00  0.0000E+00  0.0000E+00  0.0000E+00  0.0000E+00  0.0000E+00  0.0000E+00  0.0000E+00  0.0000E+00  0.0000E+00  0.0000E+00  0.0000E+00  0.0000E+00  0.0000E+00  0.0000E+00
    -36.210  0.0000E+00  0.0000E+00  0.0000E+00  0.0000E+00  0.0000E+00  0.0000E+00  0.0000E+00  0.0000E+00  0.0000E+00  0.0000E+00  0.0000E+00  0.0000E+00  0.0000E+00  0.0000E+00  0.0000E+00  0.0000E+00  0.0000E+00  0.0000E+00
    -35.937  0.0000E+00  0.0000E+00  0.0000E+00  0.0000E+00  0.0000E+00  0.0000E+00  0.0000E+00  0.0000E+00  0.0000E+00  0.0000E+00  0.0000E+00  0.0000E+00  0.0000E+00  0.0000E+00  0.0000E+00  0.0000E+00  0.0000E+00  0.0000E+00