    1    1   99    2
  0.2012070E+02  0.2967711E-09  0.2967711E-09  0.2967711E-09  0.5000000E-15
  1.000000000000000E-004
  CAR 
 unknown system                          
      3     84      8
 
  0.0000000E+00  0.0000000E+00  0.0000000E+00  0.4551661E-03
    1      -45.873946    -45.873937   1.000000   1.000000
    2       -2.923395     -2.923395   1.000000   1.000000
    3       15.328337     15.328339   0.000000   0.000000
    4       15.328337     15.328339   0.000000   0.000000
    5       15.328392     15.328408   0.000000   0.000000
    6       20.115070     20.115058   0.000000   0.000000
    7       20.115084     20.115069   0.000000   0.000000
    8       20.115084     20.115069   0.000000   0.000000
 
  0.7692308E-01  0.0000000E+00  0.0000000E+00  0.5461994E-02
    1      -45.872762    -45.872754   1.000000   1.000000
    2       -2.810932     -2.810931   1.000000   1.000000
    3       14.558700     14.558706   0.000000   0.000000
    4       14.781704     14.781708   0.000000   0.000000
    5       15.131227     15.131228   0.000000   0.000000
    6       18.631823     18.631831   0.000000   0.000000
    7       18.843186     18.843181   0.000000   0.000000
    8       20.215187     20.215196   0.000000   0.000000
 
  0.1538462E+00  0.0000000E+00  0.0000000E+00  0.5461994E-02
    1      -45.869645    -45.869636   1.000000   1.000000
    2       -2.474066     -2.474066   1.000000   1.000000
    3       12.469051     12.469053   0.000000   0.000000
    4       13.735505     13.735506   0.000000   0.000000
    5       14.595485     14.595487   0.000000   0.000000
    6       17.378671     17.378668   0.000000   0.000000
    7       17.683879     17.683889   0.000000   0.000000
    8       19.924152     19.924162   0.000000   0.000000
 
  0.2307692E+00  0.0000000E+00  0.0000000E+00  0.5461994E-02
    1      -45.865153    -45.865145   1.000000   1.000000
    2       -1.912894     -1.912893   1.000000   1.000000
    3        9.993731      9.993732   0.000000   0.000000
    4       12.729250     12.729250   0.000000   0.000000
    5       13.910151     13.910153   0.000000   0.000000
    6       16.183230     16.183228   0.000000   0.000000
    7       17.444637     17.444648   0.000000   0.000000
    8       20.254027     20.254037   0.000000   0.000000
 
  0.3076923E+00  0.0000000E+00  0.0000000E+00  0.5461994E-02
    1      -45.860374    -45.860365   1.000000   1.000000
    2       -1.135718     -1.135717   1.000000   1.000000
    3        7.649599      7.649599   0.000000   0.000000
    4       11.925683     11.925681   0.000000   0.000000
    5       13.277304     13.277306   0.000000   0.000000
    6       15.281808     15.281807   0.000000   0.000000
    7       17.503933     17.503940   0.000000   0.000000
    8       21.031460     21.031471   0.000000   0.000000
 
  0.3846154E+00  0.0000000E+00  0.0000000E+00  0.5461994E-02
    1      -45.856408    -45.856400   1.000000   1.000000
    2       -0.185343     -0.185341   1.000000   1.000000
    3        5.619837      5.619836  -0.000000  -0.000000
    4       11.375418     11.375417   0.000000   0.000000
    5       12.813622     12.813625   0.000000   0.000000
    6       14.679588     14.679587   0.000000   0.000000
    7       17.687945     17.687945   0.000000   0.000000
    8       22.100956     22.100968   0.000000   0.000000
 
  0.4615385E+00  0.0000000E+00  0.0000000E+00  0.5461994E-02
    1      -45.854176    -45.854168   1.000000   1.000000
    2        0.714510      0.714513   0.482384   0.482371
    3        4.172519      4.172516  -0.000000  -0.000000
    4       11.096978     11.096976   0.000000   0.000000
    5       12.571840     12.571843   0.000000   0.000000
    6       14.378198     14.378196   0.000000   0.000000
    7       17.842113     17.842108   0.000000   0.000000
    8       23.148316     23.148330   0.000000   0.000000
 
  0.7692308E-01  0.7692308E-01  0.0000000E+00  0.1092399E-01
    1      -45.870654    -45.870645   1.000000   1.000000
    2       -2.586411     -2.586410   1.000000   1.000000
    3       13.566151     13.566157   0.000000   0.000000
    4       13.596534     13.596533   0.000000   0.000000
    5       14.516319     14.516320   0.000000   0.000000
    6       17.839802     17.839810   0.000000   0.000000
    7       18.112883     18.112884   0.000000   0.000000
    8       19.993706     19.993707   0.000000   0.000000
 
  0.1538462E+00  0.7692308E-01  0.0000000E+00  0.2184797E-01
    1      -45.866799    -45.866790   1.000000   1.000000
    2       -2.136461     -2.136461   1.000000   1.000000
    3       11.253188     11.253188   0.000000   0.000000
    4       12.545250     12.545252   0.000000   0.000000
    5       13.694950     13.694951   0.000000   0.000000
    6       17.464699     17.464705   0.000000   0.000000
    7       17.532232     17.532235   0.000000   0.000000
    8       20.113217     20.113225   0.000000   0.000000
 
  0.2307692E+00  0.7692308E-01  0.2775558E-16  0.2184797E-01
    1      -45.862193    -45.862184   1.000000   1.000000
    2       -1.463994     -1.463993   1.000000   1.000000
    3        8.822851      8.822851   0.000000   0.000000
    4       11.670496     11.670496   0.000000   0.000000
    5       12.907241     12.907242   0.000000   0.000000
    6       16.788326     16.788326   0.000000   0.000000
    7       17.527471     17.527475   0.000000   0.000000
    8       20.643876     20.643871   0.000000   0.000000
 
  0.3076923E+00  0.7692308E-01  0.0000000E+00  0.2184797E-01
    1      -45.857857    -45.857848   1.000000   1.000000
    2       -0.586761     -0.586760   1.000000   1.000000
    3        6.619707      6.619706   0.000000   0.000000
    4       11.019845     11.019844   0.000000   0.000000
    5       12.288465     12.288466   0.000000   0.000000
    6       16.195613     16.195613   0.000000   0.000000
    7       17.740062     17.740066   0.000000   0.000000
    8       21.511760     21.511768   0.000000   0.000000
 
  0.3846154E+00  0.7692308E-01  0.2775558E-16  0.2184797E-01
    1      -45.854724    -45.854715   1.000000   1.000000
    2        0.403040      0.403043   1.025998   1.025998
    3        4.816709      4.816707  -0.000000  -0.000000
    4       10.621647     10.621646   0.000000   0.000000
    5       11.901170     11.901171   0.000000   0.000000
    6       15.815407     15.815407   0.000000   0.000000
    7       17.993644     17.993662   0.000000   0.000000
    8       22.572741     22.572767   0.000000   0.000000
 
  0.4615385E+00  0.7692308E-01  0.0000000E+00  0.1092399E-01
    1      -45.853613    -45.853605   1.000000   1.000000
    2        1.000980      1.000984  -0.029679  -0.029679
    3        3.945138      3.945136  -0.000000  -0.000000
    4       10.487733     10.487731   0.000000   0.000000
    5       11.769894     11.769895   0.000000   0.000000
    6       15.685538     15.685537   0.000000   0.000000
    7       18.108737     18.108736   0.000000   0.000000
    8       23.375890     23.376307   0.000000   0.000000
 
  0.1538462E+00  0.1538462E+00  0.0000000E+00  0.1092399E-01
    1      -45.862821    -45.862813   1.000000   1.000000
    2       -1.573054     -1.573053   1.000000   1.000000
    3        9.780096      9.780096   0.000000   0.000000
    4       10.764131     10.764131   0.000000   0.000000
    5       12.864616     12.864617   0.000000   0.000000
    6       17.470931     17.470937   0.000000   0.000000
    7       17.952616     17.952615   0.000000   0.000000
    8       20.646648     20.646653   0.000000   0.000000
 
  0.2307692E+00  0.1538462E+00  0.2775558E-16  0.2184797E-01
    1      -45.858641    -45.858632   1.000000   1.000000
    2       -0.788997     -0.788996   1.000000   1.000000
    3        7.692345      7.692345   0.000000   0.000000
    4        9.793619      9.793618   0.000000   0.000000
    5       12.213037     12.213038   0.000000   0.000000
    6       17.525867     17.525871   0.000000   0.000000
    7       18.155474     18.155475   0.000000   0.000000
    8       21.375522     21.375541   0.000000   0.000000
 
  0.3076923E+00  0.1538462E+00  0.2775558E-16  0.2184797E-01
    1      -45.855146    -45.855137   1.000000   1.000000
    2        0.182343      0.182345   1.000606   1.000606
    3        5.707210      5.707210  -0.000000  -0.000000
    4        9.233062      9.233060   0.000000   0.000000
    5       11.753035     11.753035   0.000000   0.000000
    6       17.424509     17.424509   0.000000   0.000000
    7       18.533990     18.533993   0.000000   0.000000
    8       22.113666     22.113649   0.000000   0.000000
 
  0.3846154E+00  0.1538462E+00  0.0000000E+00  0.2184797E-01
    1      -45.853146    -45.853138   1.000000   1.000000
    2        1.139204      1.139207  -0.004880  -0.004880
    3        4.225072      4.225071  -0.000000  -0.000000
    4        8.958878      8.958875   0.000000   0.000000
    5       11.515861     11.515861   0.000000   0.000000
    6       17.311949     17.311942   0.000000   0.000000
    7       18.930353     18.930356   0.000000   0.000000
    8       22.677224     22.676996   0.000000   0.000000
 
  0.2307692E+00  0.2307692E+00  0.0000000E+00  0.1092399E-01
    1      -45.855258    -45.855250   1.000000   1.000000
    2        0.104395      0.104397   1.000079   1.000079
    3        6.329306      6.329307   0.000000   0.000000
    4        8.386830      8.386827   0.000000   0.000000
    5       11.753628     11.753628   0.000000   0.000000
    6       17.981152     17.981157   0.000000   0.000000
    7       18.818718     18.818718   0.000000   0.000000
    8       22.556035     22.556044   0.000000   0.000000
 
  0.3076923E+00  0.2307692E+00  0.0000000E+00  0.2184797E-01
    1      -45.852884    -45.852876   1.000000   1.000000
    2        1.159979      1.159982  -0.003310  -0.003309
    3        4.774676      4.774676  -0.000000  -0.000000
    4        7.721643      7.721639   0.000000   0.000000
    5       11.468279     11.468278   0.000000   0.000000
    6       18.320494     18.320496   0.000000   0.000000
    7       19.469313     19.469308   0.000000   0.000000
    8       22.373619     22.373609   0.000000   0.000000
 
  0.3846154E+00  0.2307692E+00  0.0000000E+00  0.1092399E-01
    1      -45.852036    -45.852028   1.000000   1.000000
    2        1.895164      1.895167  -0.000000  -0.000000
    3        3.837668      3.837668  -0.000000  -0.000000
    4        7.530766      7.530761   0.000000   0.000000
    5       11.370962     11.370960   0.000000   0.000000
    6       18.409995     18.409995   0.000000   0.000000
    7       20.105611     20.105612   0.000000   0.000000
    8       21.410627     21.410635   0.000000   0.000000
 
  0.3076923E+00  0.3076923E+00  0.0000000E+00  0.1092399E-01
    1      -45.851657    -45.851649   1.000000   1.000000
    2        2.284022      2.284026  -0.000000  -0.000000
    3        3.677624      3.677624  -0.000000  -0.000000
    4        6.937711      6.937707   0.000000   0.000000
    5       11.326415     11.326413   0.000000   0.000000
    6       19.280295     19.280299   0.000000   0.000000
    7       19.947507     19.947542   0.000000   0.000000
    8       20.941838     20.941857   0.000000   0.000000
 
  0.7692308E-01  0.7692308E-01  0.7692308E-01  0.3641329E-02
    1      -45.867756    -45.867747   1.000000   1.000000
    2       -2.249598     -2.249598   1.000000   1.000000
    3       12.527459     12.527459   0.000000   0.000000
    4       12.527459     12.527459   0.000000   0.000000
    5       12.688792     12.688797   0.000000   0.000000
    6       18.131647     18.131652   0.000000   0.000000
    7       18.131647     18.131653   0.000000   0.000000
    8       21.508574     21.508571   0.000000   0.000000
 
  0.1538462E+00  0.7692308E-01  0.7692308E-01  0.1092399E-01
    1      -45.863699    -45.863690   1.000000   1.000000
    2       -1.687549     -1.687549   1.000000   1.000000
    3       10.072348     10.072348   0.000000   0.000000
    4       11.507993     11.507993   0.000000   0.000000
    5       11.861577     11.861577   0.000000   0.000000
    6       18.237144     18.237147   0.000000   0.000000
    7       18.436187     18.436194   0.000000   0.000000
    8       21.353898     21.353896   0.000000   0.000000
 
  0.2307692E+00  0.7692308E-01  0.7692308E-01  0.1092399E-01
    1      -45.859388    -45.859380   1.000000   1.000000
    2       -0.905973     -0.905972   1.000000   1.000000
    3        7.732057      7.732056   0.000000   0.000000
    4       10.696225     10.696225   0.000000   0.000000
    5       11.215136     11.215135   0.000000   0.000000
    6       18.029300     18.029301   0.000000   0.000000
    7       18.661135     18.661138   0.000000   0.000000
    8       21.684308     21.684317   0.000000   0.000000
 
  0.3076923E+00  0.7692308E-01  0.7692308E-01  0.1092399E-01
    1      -45.855835    -45.855826   1.000000   1.000000
    2        0.058983      0.058986   1.000021   1.000021
    3        5.693917      5.693916  -0.000000  -0.000000
    4       10.140939     10.140940   0.000000   0.000000
    5       10.769516     10.769513   0.000000   0.000000
    6       17.714726     17.714727   0.000000   0.000000
    7       18.890143     18.890148   0.000000   0.000000
    8       22.584252     22.584260   0.000000   0.000000
 
  0.3846154E+00  0.7692308E-01  0.7692308E-01  0.1092399E-01
    1      -45.853818    -45.853809   1.000000   1.000000
    2        0.998418      0.998421  -0.030208  -0.030207
    3        4.210277      4.210275  -0.000000  -0.000000
    4        9.860096      9.860097   0.000000   0.000000
    5       10.542645     10.542641   0.000000   0.000000
    6       17.516852     17.516853   0.000000   0.000000
    7       19.061780     19.061785   0.000000   0.000000
    8       23.584247     23.584263   0.000000   0.000000
 
 -0.7692308E-01  0.7692308E-01  0.7692308E-01  0.2730997E-02
    1      -45.871689    -45.871680   1.000000   1.000000
    2       -2.698402     -2.698402   1.000000   1.000000
    3       14.165564     14.165562   0.000000   0.000000
    4       14.165589     14.165594   0.000000   0.000000
    5       14.843985     14.843989   0.000000   0.000000
    6       17.612724     17.612732   0.000000   0.000000
    7       19.290043     19.290044   0.000000   0.000000
    8       19.290053     19.290048   0.000000   0.000000
 
  0.1538462E+00  0.1538462E+00  0.7692308E-01  0.1092399E-01
    1      -45.859929    -45.859920   1.000000   1.000000
    2       -1.012571     -1.012570   1.000000   1.000000
    3        8.671676      8.671677   0.000000   0.000000
    4        9.658464      9.658464   0.000000   0.000000
    5       11.148744     11.148742   0.000000   0.000000
    6       19.030092     19.030095   0.000000   0.000000
    7       19.150415     19.150423   0.000000   0.000000
    8       22.113066     22.113067   0.000000   0.000000
 
  0.2307692E+00  0.1538462E+00  0.7692308E-01  0.2184797E-01
    1      -45.856445    -45.856437   1.000000   1.000000
    2       -0.122013     -0.122011   1.000000   1.000000
    3        6.701507      6.701507   0.000000   0.000000
    4        8.762730      8.762730   0.000000   0.000000
    5       10.657999     10.657997   0.000000   0.000000
    6       19.350100     19.350104   0.000000   0.000000
    7       19.716939     19.716945   0.000000   0.000000
    8       22.701050     22.701055   0.000000   0.000000
 
  0.3076923E+00  0.1538462E+00  0.7692308E-01  0.2184797E-01
    1      -45.853977    -45.853968   1.000000   1.000000
    2        0.915832      0.915834  -0.027745  -0.027746
    3        4.904477      4.904476  -0.000000  -0.000000
    4        8.308745      8.308745   0.000000   0.000000
    5       10.360072     10.360067   0.000000   0.000000
    6       19.345223     19.345224   0.000000   0.000000
    7       20.186798     20.186803   0.000000   0.000000
    8       23.533549     23.533572   0.000000   0.000000
 
  0.3846154E+00  0.1538462E+00  0.7692308E-01  0.1092399E-01
    1      -45.853085    -45.853076   1.000000   1.000000
    2        1.599167      1.599170  -0.000000  -0.000000
    3        3.960437      3.960437  -0.000000  -0.000000
    4        8.161462      8.161462   0.000000   0.000000
    5       10.260243     10.260237   0.000000   0.000000
    6       19.313463     19.313464   0.000000   0.000000
    7       20.388837     20.388842   0.000000   0.000000
    8       24.278117     24.277922   0.000000   0.000000
 
 -0.1538462E+00  0.1538462E+00  0.7692308E-01  0.1092399E-01
    1      -45.868564    -45.868555   1.000000   1.000000
    2       -2.360125     -2.360125   1.000000   1.000000
    3       12.412868     12.412866   0.000000   0.000000
    4       13.047882     13.047882   0.000000   0.000000
    5       14.429523     14.429529   0.000000   0.000000
    6       16.472695     16.472704   0.000000   0.000000
    7       18.313015     18.313016   0.000000   0.000000
    8       19.497578     19.497588   0.000000   0.000000
 
  0.2307692E+00  0.2307692E+00  0.7692308E-01  0.1092399E-01
    1      -45.854025    -45.854017   1.000000   1.000000
    2        0.873718      0.873720   0.005763   0.005760
    3        5.459455      5.459455  -0.000000  -0.000000
    4        7.452207      7.452206   0.000000   0.000000
    5       10.315579     10.315574   0.000000   0.000000
    6       20.345055     20.345058   0.000000   0.000000
    7       20.508519     20.508526   0.000000   0.000000
    8       23.836613     23.836612   0.000000   0.000000
 
  0.3076923E+00  0.2307692E+00  0.7692308E-01  0.2184797E-01
    1      -45.852670    -45.852661   1.000000   1.000000
    2        1.956580      1.956584  -0.000000  -0.000000
    3        4.104074      4.104074  -0.000000  -0.000000
    4        6.930841      6.930839   0.000000   0.000000
    5       10.144578     10.144572   0.000000   0.000000
    6       20.641227     20.641230   0.000000   0.000000
    7       21.400346     21.400352   0.000000   0.000000
    8       23.683428     23.683419   0.000000   0.000000
 
 -0.2307692E+00  0.2307692E+00  0.7692308E-01  0.1092399E-01
    1      -45.864171    -45.864162   1.000000   1.000000
    2       -1.796741     -1.796739   1.000000   1.000000
    3       10.028470     10.028473   0.000000   0.000000
    4       12.003586     12.003585   0.000000   0.000000
    5       13.840077     13.840089   0.000000   0.000000
    6       16.301217     16.301225   0.000000   0.000000
    7       17.191797     17.191797   0.000000   0.000000
    8       20.031679     20.031694   0.000000   0.000000
 
 -0.1538462E+00  0.2307692E+00  0.7692308E-01  0.1092399E-01
    1      -45.864895    -45.864886   1.000000   1.000000
    2       -1.907284     -1.907284   1.000000   1.000000
    3       11.046181     11.046184   0.000000   0.000000
    4       11.505943     11.505947   0.000000   0.000000
    5       14.024370     14.024387   0.000000   0.000000
    6       15.629545     15.629554   0.000000   0.000000
    7       18.229378     18.229409   0.000000   0.000000
    8       19.964004     19.964017   0.000000   0.000000
 
  0.3076923E+00  0.3076923E+00  0.7692308E-01  0.3641329E-02
    1      -45.852169    -45.852160   1.000000   1.000000
    2        3.089122      3.089122  -0.000000  -0.000000
    3        3.089127      3.089131  -0.000000  -0.000000
    4        6.427858      6.427855   0.000000   0.000000
    5       10.074135     10.074127   0.000000   0.000000
    6       21.410101     21.410105   0.000000   0.000000
    7       22.302358     22.302364   0.000000   0.000000
    8       22.302379     22.302391   0.000000   0.000000
 
 -0.3076923E+00  0.3076923E+00  0.7692308E-01  0.1092399E-01
    1      -45.859472    -45.859463   1.000000   1.000000
    2       -1.015736     -1.015735   1.000000   1.000000
    3        7.709940      7.709939   0.000000   0.000000
    4       11.179475     11.179473   0.000000   0.000000
    5       13.243855     13.243861   0.000000   0.000000
    6       16.319857     16.319857   0.000000   0.000000
    7       16.581552     16.581558   0.000000   0.000000
    8       20.752147     20.752159   0.000000   0.000000
 
 -0.2307692E+00  0.3076923E+00  0.7692308E-01  0.2184797E-01
    1      -45.860413    -45.860404   1.000000   1.000000
    2       -1.229370     -1.229370   1.000000   1.000000
    3        8.870372      8.870372   0.000000   0.000000
    4       10.486692     10.486690   0.000000   0.000000
    5       13.495465     13.495467   0.000000   0.000000
    6       15.599757     15.599765   0.000000   0.000000
    7       17.796398     17.796397   0.000000   0.000000
    8       20.648480     20.648464   0.000000   0.000000
 
 -0.3846154E+00  0.3846154E+00  0.7692308E-01  0.1092399E-01
    1      -45.855604    -45.855595   1.000000   1.000000
    2       -0.058036     -0.058036   1.000000   1.000000
    3        5.684596      5.684595  -0.000000  -0.000000
    4       10.618114     10.618112   0.000000   0.000000
    5       12.798061     12.798068   0.000000   0.000000
    6       15.731812     15.731811   0.000000   0.000000
    7       17.024412     17.024416   0.000000   0.000000
    8       21.552060     21.552137   0.000000   0.000000
 
 -0.3076923E+00  0.3846154E+00  0.7692308E-01  0.2184797E-01
    1      -45.856243    -45.856234   1.000000   1.000000
    2       -0.342589     -0.342589   1.000000   1.000000
    3        6.723338      6.723338   0.000000   0.000000
    4        9.805715      9.805713   0.000000   0.000000
    5       12.968144     12.968146   0.000000   0.000000
    6       15.948352     15.948357   0.000000   0.000000
    7       17.457469     17.457473   0.000000   0.000000
    8       21.225716     21.225713   0.000000   0.000000
 
 -0.2307692E+00  0.3846154E+00  0.7692308E-01  0.1092399E-01
    1      -45.856464    -45.856456   1.000000   1.000000
    2       -0.438275     -0.438274   1.000000   1.000000
    3        7.465274      7.465277   0.000000   0.000000
    4        9.025141      9.025135   0.000000   0.000000
    5       13.190010     13.190010   0.000000   0.000000
    6       15.512282     15.512289   0.000000   0.000000
    7       18.180417     18.180413   0.000000   0.000000
    8       21.745046     21.745041   0.000000   0.000000
 
 -0.4615385E+00  0.4615385E+00  0.7692308E-01  0.1092399E-01
    1      -45.853402    -45.853393   1.000000   1.000000
    2        0.857318      0.857319   0.028542   0.028541
    3        4.226663      4.226661  -0.000000  -0.000000
    4       10.334751     10.334749   0.000000   0.000000
    5       12.564658     12.564665   0.000000   0.000000
    6       15.436433     15.436433   0.000000   0.000000
    7       17.377983     17.377985   0.000000   0.000000
    8       22.313416     22.313405   0.000000   0.000000
 
 -0.3846154E+00  0.4615385E+00  0.7692308E-01  0.2184797E-01
    1      -45.853244    -45.853235   1.000000   1.000000
    2        0.668690      0.668691   0.672088   0.672086
    3        4.924074      4.924073  -0.000000  -0.000000
    4        9.395624      9.395622   0.000000   0.000000
    5       12.615729     12.615731   0.000000   0.000000
    6       16.202836     16.202837   0.000000   0.000000
    7       17.536073     17.536080   0.000000   0.000000
    8       21.213069     21.213079   0.000000   0.000000
 
 -0.3076923E+00  0.4615385E+00  0.7692308E-01  0.2184797E-01
    1      -45.853150    -45.853141   1.000000   1.000000
    2        0.549937      0.549938   0.990568   0.990567
    3        5.733343      5.733345  -0.000000  -0.000000
    4        8.274176      8.274171   0.000000   0.000000
    5       12.859424     12.859424   0.000000   0.000000
    6       15.909604     15.909611   0.000000   0.000000
    7       18.369297     18.369303   0.000000   0.000000
    8       21.421500     21.421510   0.000000   0.000000
 
 -0.4615385E+00 -0.4615385E+00  0.7692308E-01  0.1092399E-01
    1      -45.852163    -45.852154   1.000000   1.000000
    2        1.297303      1.297303  -0.000134  -0.000134
    3        4.028997      4.028994  -0.000000  -0.000000
    4        9.258416      9.258413   0.000000   0.000000
    5       12.494051     12.494052   0.000000   0.000000
    6       16.237668     16.237658   0.000000   0.000000
    7       17.755126     17.755132   0.000000   0.000000
    8       20.889792     20.889792   0.000000   0.000000
 
 -0.3846154E+00 -0.4615385E+00  0.7692308E-01  0.2184797E-01
    1      -45.851280    -45.851271   1.000000   1.000000
    2        1.558109      1.558109  -0.000000  -0.000000
    3        4.275918      4.275920  -0.000000  -0.000000
    4        7.955378      7.955373   0.000000   0.000000
    5       12.656944     12.656944   0.000000   0.000000
    6       16.340012     16.340017   0.000000   0.000000
    7       18.799474     18.799475   0.000000   0.000000
    8       19.900645     19.900650   0.000000   0.000000
 
 -0.3076923E+00 -0.4615385E+00  0.7692308E-01  0.1092399E-01
    1      -45.851000    -45.850991   1.000000   1.000000
    2        1.626413      1.626414  -0.000000  -0.000000
    3        4.553867      4.553870  -0.000000  -0.000000
    4        7.310885      7.310878   0.000000   0.000000
    5       12.758617     12.758617   0.000000   0.000000
    6       16.411660     16.411666   0.000000   0.000000
    7       18.550881     18.550887   0.000000   0.000000
    8       20.206034     20.206034   0.000000   0.000000
 
 -0.3846154E+00 -0.3846154E+00  0.7692308E-01  0.1092399E-01
    1      -45.850197    -45.850188   1.000000   1.000000
    2        2.485381      2.485381  -0.000000  -0.000000
    3        3.621194      3.621198  -0.000000  -0.000000
    4        7.020035      7.020029   0.000000   0.000000
    5       12.710621     12.710620   0.000000   0.000000
    6       16.928097     16.928104   0.000000   0.000000
    7       18.215120     18.215124   0.000000   0.000000
    8       19.751148     19.751239   0.000000   0.000000
 
  0.1538462E+00  0.1538462E+00  0.1538462E+00  0.3641329E-02
    1      -45.856931    -45.856922   1.000000   1.000000
    2       -0.225144     -0.225142   1.000000   1.000000
    3        7.816455      7.816456   0.000000   0.000000
    4        7.816455      7.816456   0.000000   0.000000
    5       10.261244     10.261241   0.000000   0.000000
    6       20.303031     20.303039   0.000000   0.000000
    7       20.303031     20.303039   0.000000   0.000000
    8       24.213920     24.213927   0.000000   0.000000
 
  0.2307692E+00  0.1538462E+00  0.1538462E+00  0.1092399E-01
    1      -45.854422    -45.854413   1.000000   1.000000
    2        0.772437      0.772439   0.250781   0.250771
    3        5.880719      5.880720  -0.000000  -0.000000
    4        7.239338      7.239338   0.000000   0.000000
    5        9.846491      9.846485   0.000000   0.000000
    6       21.002327     21.002333   0.000000   0.000000
    7       21.253432     21.253444   0.000000   0.000000
    8       24.641755     24.641868   0.000000   0.000000
 
  0.3076923E+00  0.1538462E+00  0.1538462E+00  0.1092399E-01
    1      -45.853001    -45.852993   1.000000   1.000000
    2        1.832653      1.832657  -0.000000  -0.000000
    3        4.319713      4.319713  -0.000000  -0.000000
    4        6.949188      6.949189   0.000000   0.000000
    5        9.659066      9.659057   0.000000   0.000000
    6       21.279571     21.279576   0.000000   0.000000
    7       21.771634     21.771641   0.000000   0.000000
    8       25.281846     25.282362   0.000000   0.000000
 
 -0.1538462E+00  0.1538462E+00  0.1538462E+00  0.2730997E-02
    1      -45.865626    -45.865617   1.000000   1.000000
    2       -2.018233     -2.018233   1.000000   1.000000
    3       11.866761     11.866757   0.000000   0.000000
    4       11.866776     11.866777   0.000000   0.000000
    5       14.056300     14.056302   0.000000   0.000000
    6       14.585725     14.585734   0.000000   0.000000
    7       19.763710     19.763717   0.000000   0.000000
    8       19.763723     19.763733   0.000000   0.000000
 
  0.2307692E+00  0.2307692E+00  0.1538462E+00  0.1092399E-01
    1      -45.852983    -45.852974   1.000000   1.000000
    2        1.872271      1.872275  -0.000000  -0.000000
    3        4.874495      4.874496  -0.000000  -0.000000
    4        6.086887      6.086888  -0.000000  -0.000000
    5        9.509190      9.509183   0.000000   0.000000
    6       22.120141     22.120151   0.000000   0.000000
    7       22.590074     22.590085   0.000000   0.000000
    8       25.598422     25.643338   0.000000   0.000000
 
  0.3076923E+00  0.2307692E+00  0.1538462E+00  0.1092399E-01
    1      -45.852487    -45.852478   1.000000   1.000000
    2        2.793908      2.793912  -0.000000  -0.000000
    3        3.867060      3.867061  -0.000000  -0.000000
    4        5.800556      5.800556  -0.000000  -0.000000
    5        9.410329      9.410317   0.000000   0.000000
    6       22.504025     22.504032   0.000000   0.000000
    7       23.331140     23.331148   0.000000   0.000000
    8       24.942363     24.942386   0.000000   0.000000
 
 -0.2307692E+00  0.2307692E+00  0.1538462E+00  0.1092399E-01
    1      -45.861426    -45.861418   1.000000   1.000000
    2       -1.448027     -1.448027   1.000000   1.000000
    3       10.077479     10.077478   0.000000   0.000000
    4       10.791409     10.791407   0.000000   0.000000
    5       13.580538     13.580542   0.000000   0.000000
    6       14.120067     14.120074   0.000000   0.000000
    7       19.218967     19.218969   0.000000   0.000000
    8       20.362733     20.362740   0.000000   0.000000
 
 -0.3076923E+00  0.3076923E+00  0.1538462E+00  0.1092399E-01
    1      -45.857014    -45.857005   1.000000   1.000000
    2       -0.656133     -0.656132   1.000000   1.000000
    3        7.887877      7.887876   0.000000   0.000000
    4        9.951120      9.951118   0.000000   0.000000