Automatically generated mesh
      84
Reciprocal lattice
    0.00000000000000    0.00000000000000    0.00000000000000             1
    0.07692307692308    0.00000000000000    0.00000000000000            12
    0.15384615384615    0.00000000000000    0.00000000000000            12
    0.23076923076923    0.00000000000000    0.00000000000000            12
    0.30769230769231    0.00000000000000    0.00000000000000            12
    0.38461538461539    0.00000000000000    0.00000000000000            12
    0.46153846153846    0.00000000000000    0.00000000000000            12
    0.07692307692308    0.07692307692308    0.00000000000000            24
    0.15384615384615    0.07692307692308    0.00000000000000            48
    0.23076923076923    0.07692307692308    0.00000000000000            48
    0.30769230769231    0.07692307692308    0.00000000000000            48
    0.38461538461539    0.07692307692308    0.00000000000000            48
    0.46153846153846    0.07692307692308    0.00000000000000            24
    0.15384615384615    0.15384615384615    0.00000000000000            24
    0.23076923076923    0.15384615384615    0.00000000000000            48
    0.30769230769231    0.15384615384615    0.00000000000000            48
    0.38461538461539    0.15384615384615    0.00000000000000            48
    0.23076923076923    0.23076923076923    0.00000000000000            24
    0.30769230769231    0.23076923076923    0.00000000000000            48
    0.38461538461539    0.23076923076923    0.00000000000000            24
    0.30769230769231    0.30769230769231    0.00000000000000            24
    0.07692307692308    0.07692307692308    0.07692307692308             8
    0.15384615384615    0.07692307692308    0.07692307692308            24
    0.23076923076923    0.07692307692308    0.07692307692308            24
    0.30769230769231    0.07692307692308    0.07692307692308            24
    0.38461538461538    0.07692307692308    0.07692307692308            24
   -0.07692307692308    0.07692307692308    0.07692307692308             6
    0.15384615384615    0.15384615384615    0.07692307692308            24
    0.23076923076923    0.15384615384615    0.07692307692308            48
    0.30769230769231    0.15384615384615    0.07692307692308            48
    0.38461538461539    0.15384615384615    0.07692307692308            24
   -0.15384615384615    0.15384615384615    0.07692307692308            24
    0.23076923076923    0.23076923076923    0.07692307692308            24
    0.30769230769231    0.23076923076923    0.07692307692308            48
   -0.23076923076923    0.23076923076923    0.07692307692308            24
   -0.15384615384615    0.23076923076923    0.07692307692308            24
    0.30769230769231    0.30769230769231    0.07692307692308             8
   -0.30769230769231    0.30769230769231    0.07692307692308            24
   -0.23076923076923    0.30769230769231    0.07692307692308            48
   -0.38461538461539    0.38461538461539    0.07692307692308            24
   -0.30769230769231    0.38461538461539    0.07692307692308            48
   -0.23076923076923    0.38461538461539    0.07692307692308            24
   -0.46153846153846    0.46153846153846    0.07692307692308            24
   -0.38461538461539    0.46153846153846    0.07692307692308            48
   -0.30769230769231    0.46153846153846    0.07692307692308            48
   -0.46153846153846   -0.46153846153846    0.07692307692308            24
   -0.38461538461539   -0.46153846153846    0.07692307692308            48
   -0.30769230769231   -0.46153846153846    0.07692307692308            24
   -0.38461538461539   -0.38461538461539    0.07692307692308            24
    0.15384615384615    0.15384615384615    0.15384615384615             8
    0.23076923076923    0.15384615384615    0.15384615384615            24
    0.30769230769231    0.15384615384615    0.15384615384615            24
   -0.15384615384615    0.15384615384615    0.15384615384615             6
    0.23076923076923    0.23076923076923    0.15384615384615            24
    0.30769230769231    0.23076923076923    0.15384615384615            24
   -0.23076923076923    0.23076923076923    0.15384615384615            24
   -0.30769230769231    0.30769230769231    0.15384615384615            24
   -0.23076923076923    0.30769230769231    0.15384615384615            24
   -0.38461538461539    0.38461538461539    0.15384615384615            24
   -0.30769230769231    0.38461538461538    0.15384615384615            48
   -0.46153846153846    0.46153846153846    0.15384615384615            24
   -0.38461538461539    0.46153846153846    0.15384615384615            48
   -0.30769230769231    0.46153846153846    0.15384615384615            24
   -0.46153846153846   -0.46153846153846    0.15384615384615            24
   -0.38461538461538   -0.46153846153846    0.15384615384615            48
   -0.38461538461539   -0.38461538461539    0.15384615384615             8
    0.23076923076923    0.23076923076923    0.23076923076923             8
   -0.23076923076923    0.23076923076923    0.23076923076923             6
   -0.30769230769231    0.30769230769231    0.23076923076923            24
   -0.38461538461539    0.38461538461539    0.23076923076923            24
   -0.30769230769231    0.38461538461538    0.23076923076923            24
   -0.46153846153846    0.46153846153846    0.23076923076923            24
   -0.38461538461539    0.46153846153846    0.23076923076923            48
   -0.46153846153846   -0.46153846153846    0.23076923076923            24
   -0.38461538461538   -0.46153846153846    0.23076923076923            24
   -0.30769230769231    0.30769230769231    0.30769230769231             6
   -0.38461538461539    0.38461538461539    0.30769230769231            24
   -0.46153846153846    0.46153846153846    0.30769230769231            24
   -0.38461538461539    0.46153846153846    0.30769230769231            24
   -0.46153846153846   -0.46153846153846    0.30769230769231            24
   -0.38461538461539    0.38461538461539    0.38461538461539             6
   -0.46153846153846    0.46153846153846    0.38461538461538            24
   -0.46153846153846   -0.46153846153846    0.38461538461539             8
   -0.46153846153846    0.46153846153846    0.46153846153846             6
