 running on   24 total cores
 distrk:  each k-point on   24 cores,    1 groups
 distr:  one band on    6 cores,    4 groups
 using from now: INCAR     
 vasp.5.4.4.18Apr17-6-g9f103f2a35 (build Aug 12 2020 11:57:02) complex          
  
 POSCAR found type information on POSCAR  Li
 POSCAR found :  1 types and       1 ions
 scaLAPACK will be used

 ----------------------------------------------------------------------------- 
|                                                                             |
|  ADVICE TO THIS USER RUNNING 'VASP/VAMP'   (HEAR YOUR MASTER'S VOICE ...):  |
|                                                                             |
|      You have a (more or less) 'small supercell' and for smaller cells      |
|      it is recommended  to use the reciprocal-space projection scheme!      |
|      The real space optimization is not  efficient for small cells and it   |
|      is also less accurate ...                                              |
|      Therefore set LREAL=.FALSE. in the  INCAR file                         |
|                                                                             |
 ----------------------------------------------------------------------------- 

 LDA part: xc-table for Pade appr. of Perdew
 generate k-points for:   13   13   13
 POSCAR, INCAR and KPOINTS ok, starting setup
 FFT: planning ...
 WAVECAR not read
 entering main loop
       N       E                     dE             d eps       ncg     rms          rms(c)
DAV:   1    -0.205273591324E+00   -0.20527E+00   -0.72169E+02  2736   0.262E+02
DAV:   2    -0.188688828539E+01   -0.16816E+01   -0.16341E+01  3968   0.340E+01
DAV:   3    -0.190596326284E+01   -0.19075E-01   -0.19066E-01  3008   0.278E+00
DAV:   4    -0.190644396608E+01   -0.48070E-03   -0.48070E-03  4000   0.289E-01
DAV:   5    -0.190646154351E+01   -0.17577E-04   -0.17577E-04  3224   0.176E-02    0.210E-01
RMM:   6    -0.190535825548E+01    0.11033E-02   -0.16089E-04  2807   0.626E-02    0.125E-01
RMM:   7    -0.190484613579E+01    0.51212E-03   -0.65524E-04  2810   0.126E-01    0.236E-02
RMM:   8    -0.190485955427E+01   -0.13418E-04   -0.11010E-04  2479   0.497E-02    0.272E-03
RMM:   9    -0.190486042589E+01   -0.87162E-06   -0.28278E-05  2178   0.268E-02
   1 F= -.19048604E+01 E0= -.19050267E+01  d E =-.190486E+01  mag=     0.0000
 curvature:   0.00 expect dE= 0.000E+00 dE for cont linesearch  0.000E+00
 trial: gam= 0.00000 g(F)=  0.374E-63 g(S)=  0.873E-07 ort = 0.000E+00 (trialstep = 0.100E+01)
 search vector abs. value=  0.874E-07
 reached required accuracy - stopping structural energy minimisation
