PROCAR lm decomposed
# of k-points:   84         # of bands:    8         # of ions:    1

 k-point     1 :    0.00000000 0.00000000 0.00000000     weight = 0.00045517

band     1 # energy  -45.87394596 # occ.  1.00000000
 
ion      s     py     pz     px    dxy    dyz    dz2    dxz  x2-y2    tot
    1  0.988  0.000  0.000  0.000  0.000  0.000  0.000  0.000  0.000  0.988
 
band     2 # energy   -2.92339462 # occ.  1.00000000
 
ion      s     py     pz     px    dxy    dyz    dz2    dxz  x2-y2    tot
    1  0.092  0.000  0.000  0.000  0.000  0.000  0.000  0.000  0.000  0.092
 
band     3 # energy   15.32833743 # occ.  0.00000000
 
ion      s     py     pz     px    dxy    dyz    dz2    dxz  x2-y2    tot
    1  0.000  0.344  0.463  0.020  0.000  0.000  0.000  0.000  0.000  0.827
 
band     4 # energy   15.32833743 # occ.  0.00000000
 
ion      s     py     pz     px    dxy    dyz    dz2    dxz  x2-y2    tot
    1  0.000  0.207  0.088  0.532  0.000  0.000  0.000  0.000  0.000  0.827
 
band     5 # energy   15.32839199 # occ.  0.00000000
 
ion      s     py     pz     px    dxy    dyz    dz2    dxz  x2-y2    tot
    1  0.000  0.276  0.276  0.276  0.000  0.000  0.000  0.000  0.000  0.827
 
band     6 # energy   20.11506958 # occ.  0.00000000
 
ion      s     py     pz     px    dxy    dyz    dz2    dxz  x2-y2    tot
    1  0.000  0.000  0.000  0.000  0.000  0.000  0.000  0.000  0.000  0.000
 
band     7 # energy   20.11508430 # occ.  0.00000000
 
ion      s     py     pz     px    dxy    dyz    dz2    dxz  x2-y2    tot
    1  0.000  0.000  0.000  0.000  0.000  0.000  0.000  0.000  0.000  0.000
 
band     8 # energy   20.11508444 # occ.  0.00000000
 
ion      s     py     pz     px    dxy    dyz    dz2    dxz  x2-y2    tot
    1  0.000  0.000  0.000  0.000  0.000  0.000  0.000  0.000  0.000  0.000
 

 k-point     2 :    0.07692308 0.00000000 0.00000000     weight = 0.00546199

band     1 # energy  -45.87276221 # occ.  1.00000000
 
ion      s     py     pz     px    dxy    dyz    dz2    dxz  x2-y2    tot
    1  0.988  0.000  0.000  0.000  0.000  0.000  0.000  0.000  0.000  0.988
 
band     2 # energy   -2.81093151 # occ.  1.00000000
 
ion      s     py     pz     px    dxy    dyz    dz2    dxz  x2-y2    tot
    1  0.090  0.001  0.001  0.000  0.000  0.000  0.000  0.000  0.000  0.092
 
band     3 # energy   14.55869993 # occ.  0.00000000
 
ion      s     py     pz     px    dxy    dyz    dz2    dxz  x2-y2    tot
    1  0.010  0.319  0.319  0.000  0.000  0.000  0.000  0.000  0.000  0.648
 
band     4 # energy   14.78170375 # occ.  0.00000000
 
ion      s     py     pz     px    dxy    dyz    dz2    dxz  x2-y2    tot
    1  0.000  0.000  0.000  0.723  0.000  0.000  0.000  0.000  0.000  0.723
 
band     5 # energy   15.13122673 # occ.  0.00000000
 
ion      s     py     pz     px    dxy    dyz    dz2    dxz  x2-y2    tot
    1  0.000  0.389  0.389  0.000  0.000  0.000  0.000  0.000  0.000  0.778
 
band     6 # energy   18.63182333 # occ.  0.00000000
 
ion      s     py     pz     px    dxy    dyz    dz2    dxz  x2-y2    tot
    1  0.002  0.059  0.059  0.000  0.000  0.000  0.000  0.000  0.000  0.119
 
band     7 # energy   18.84318581 # occ.  0.00000000
 
ion      s     py     pz     px    dxy    dyz    dz2    dxz  x2-y2    tot
    1  0.000  0.000  0.000  0.000  0.000  0.000  0.000  0.000  0.000  0.000
 
band     8 # energy   20.21518692 # occ.  0.00000000
 
ion      s     py     pz     px    dxy    dyz    dz2    dxz  x2-y2    tot
    1  0.000  0.019  0.019  0.000  0.000  0.000  0.000  0.000  0.000  0.038
 

 k-point     3 :    0.15384615 0.00000000 0.00000000     weight = 0.00546199

band     1 # energy  -45.86964486 # occ.  1.00000000
 
ion      s     py     pz     px    dxy    dyz    dz2    dxz  x2-y2    tot
    1  0.989  0.000  0.000  0.000  0.000  0.000  0.000  0.000  0.000  0.989
 
band     2 # energy   -2.47406621 # occ.  1.00000000
 
ion      s     py     pz     px    dxy    dyz    dz2    dxz  x2-y2    tot
    1  0.084  0.004  0.004  0.000  0.000  0.000  0.000  0.000  0.000  0.092
 
band     3 # energy   12.46905064 # occ.  0.00000000
 
ion      s     py     pz     px    dxy    dyz    dz2    dxz  x2-y2    tot
    1  0.023  0.170  0.170  0.000  0.000  0.000  0.000  0.000  0.000  0.364
 
band     4 # energy   13.73550514 # occ.  0.00000000
 
ion      s     py     pz     px    dxy    dyz    dz2    dxz  x2-y2    tot
    1  0.000  0.000  0.000  0.603  0.000  0.000  0.000  0.000  0.000  0.603
 
band     5 # energy   14.59548520 # occ.  0.00000000
 
ion      s     py     pz     px    dxy    dyz    dz2    dxz  x2-y2    tot
    1  0.000  0.332  0.332  0.000  0.000  0.000  0.000  0.000  0.000  0.663
 
band     6 # energy   17.37867108 # occ.  0.00000000
 
ion      s     py     pz     px    dxy    dyz    dz2    dxz  x2-y2    tot
    1  0.000  0.000  0.000  0.000  0.000  0.000  0.000  0.000  0.000  0.000
 
band     7 # energy   17.68387853 # occ.  0.00000000
 
ion      s     py     pz     px    dxy    dyz    dz2    dxz  x2-y2    tot
    1  0.019  0.131  0.131  0.000  0.000  0.000  0.000  0.000  0.000  0.282
 
band     8 # energy   19.92415193 # occ.  0.00000000
 
ion      s     py     pz     px    dxy    dyz    dz2    dxz  x2-y2    tot
    1  0.000  0.070  0.070  0.000  0.000  0.000  0.000  0.000  0.000  0.140
 

 k-point     4 :    0.23076923 0.00000000 0.00000000     weight = 0.00546199

band     1 # energy  -45.86515347 # occ.  1.00000000
 
ion      s     py     pz     px    dxy    dyz    dz2    dxz  x2-y2    tot
    1  0.989  0.000  0.000  0.000  0.000  0.000  0.000  0.000  0.000  0.989
 
band     2 # energy   -1.91289371 # occ.  1.00000000
 
ion      s     py     pz     px    dxy    dyz    dz2    dxz  x2-y2    tot
    1  0.074  0.009  0.009  0.000  0.000  0.000  0.000  0.000  0.000  0.092
 
band     3 # energy    9.99373114 # occ.  0.00000000
 
ion      s     py     pz     px    dxy    dyz    dz2    dxz  x2-y2    tot
    1  0.035  0.096  0.096  0.000  0.000  0.000  0.000  0.000  0.000  0.226
 
band     4 # energy   12.72925024 # occ.  0.00000000
 
ion      s     py     pz     px    dxy    dyz    dz2    dxz  x2-y2    tot
    1  0.000  0.000  0.000  0.534  0.000  0.000  0.000  0.000  0.000  0.534
 
band     5 # energy   13.91015103 # occ.  0.00000000
 
ion      s     py     pz     px    dxy    dyz    dz2    dxz  x2-y2    tot
    1  0.000  0.276  0.276  0.000  0.000  0.000  0.000  0.000  0.000  0.553
 
band     6 # energy   16.18322974 # occ.  0.00000000
 
ion      s     py     pz     px    dxy    dyz    dz2    dxz  x2-y2    tot
    1  0.000  0.000  0.000  0.000  0.000  0.000  0.000  0.000  0.000  0.000
 
band     7 # energy   17.44463736 # occ.  0.00000000
 
ion      s     py     pz     px    dxy    dyz    dz2    dxz  x2-y2    tot
    1  0.051  0.126  0.126  0.000  0.000  0.000  0.000  0.000  0.000  0.304
 
band     8 # energy   20.25402654 # occ.  0.00000000
 
ion      s     py     pz     px    dxy    dyz    dz2    dxz  x2-y2    tot
    1  0.000  0.127  0.127  0.000  0.000  0.000  0.000  0.000  0.000  0.254
 

 k-point     5 :    0.30769231 0.00000000 0.00000000     weight = 0.00546199

band     1 # energy  -45.86037370 # occ.  1.00000000
 
ion      s     py     pz     px    dxy    dyz    dz2    dxz  x2-y2    tot
    1  0.989  0.000  0.000  0.000  0.000  0.000  0.000  0.000  0.000  0.989
 
band     2 # energy   -1.13571767 # occ.  1.00000000
 
ion      s     py     pz     px    dxy    dyz    dz2    dxz  x2-y2    tot
    1  0.060  0.017  0.017  0.000  0.000  0.000  0.000  0.000  0.000  0.094
 
band     3 # energy    7.64959927 # occ.  0.00000000
 
ion      s     py     pz     px    dxy    dyz    dz2    dxz  x2-y2    tot
    1  0.049  0.057  0.057  0.000  0.000  0.000  0.000  0.000  0.000  0.164
 
band     4 # energy   11.92568255 # occ.  0.00000000
 
ion      s     py     pz     px    dxy    dyz    dz2    dxz  x2-y2    tot
    1  0.000  0.000  0.000  0.494  0.000  0.000  0.000  0.000  0.000  0.494
 
band     5 # energy   13.27730352 # occ.  0.00000000
 
ion      s     py     pz     px    dxy    dyz    dz2    dxz  x2-y2    tot
    1  0.000  0.239  0.239  0.000  0.000  0.000  0.000  0.000  0.000  0.479
 
band     6 # energy   15.28180836 # occ.  0.00000000
 
ion      s     py     pz     px    dxy    dyz    dz2    dxz  x2-y2    tot
    1  0.000  0.000  0.000  0.000  0.000  0.000  0.000  0.000  0.000  0.000
 
band     7 # energy   17.50393319 # occ.  0.00000000
 
ion      s     py     pz     px    dxy    dyz    dz2    dxz  x2-y2    tot
    1  0.092  0.088  0.088  0.000  0.000  0.000  0.000  0.000  0.000  0.268
 
band     8 # energy   21.03146041 # occ.  0.00000000
 
ion      s     py     pz     px    dxy    dyz    dz2    dxz  x2-y2    tot
    1  0.000  0.178  0.178  0.000  0.000  0.000  0.000  0.000  0.000  0.356
 

 k-point     6 :    0.38461538 0.00000000 0.00000000     weight = 0.00546199

band     1 # energy  -45.85640830 # occ.  1.00000000
 
ion      s     py     pz     px    dxy    dyz    dz2    dxz  x2-y2    tot
    1  0.989  0.000  0.000  0.000  0.000  0.000  0.000  0.000  0.000  0.989
 
band     2 # energy   -0.18534251 # occ.  1.00000000
 
ion      s     py     pz     px    dxy    dyz    dz2    dxz  x2-y2    tot
    1  0.040  0.029  0.029  0.000  0.000  0.000  0.000  0.000  0.000  0.097
 
band     3 # energy    5.61983699 # occ. -0.00000000
 
ion      s     py     pz     px    dxy    dyz    dz2    dxz  x2-y2    tot
    1  0.069  0.031  0.031  0.000  0.000  0.000  0.000  0.000  0.000  0.130
 
band     4 # energy   11.37541835 # occ.  0.00000000
 
ion      s     py     pz     px    dxy    dyz    dz2    dxz  x2-y2    tot
    1  0.000  0.000  0.000  0.472  0.000  0.000  0.000  0.000  0.000  0.472
 
band     5 # energy   12.81362193 # occ.  0.00000000
 
ion      s     py     pz     px    dxy    dyz    dz2    dxz  x2-y2    tot
    1  0.000  0.218  0.218  0.000  0.000  0.000  0.000  0.000  0.000  0.436
 
band     6 # energy   14.67958827 # occ.  0.00000000
 
ion      s     py     pz     px    dxy    dyz    dz2    dxz  x2-y2    tot
    1  0.000  0.000  0.000  0.000  0.000  0.000  0.000  0.000  0.000  0.000
 
band     7 # energy   17.68794470 # occ.  0.00000000
 
ion      s     py     pz     px    dxy    dyz    dz2    dxz  x2-y2    tot
    1  0.134  0.040  0.040  0.000  0.000  0.000  0.000  0.000  0.000  0.215
 
band     8 # energy   22.10095624 # occ.  0.00000000
 
ion      s     py     pz     px    dxy    dyz    dz2    dxz  x2-y2    tot
    1  0.000  0.234  0.234  0.000  0.000  0.000  0.000  0.000  0.000  0.469
 

 k-point     7 :    0.46153846 0.00000000 0.00000000     weight = 0.00546199

band     1 # energy  -45.85417623 # occ.  1.00000000
 
ion      s     py     pz     px    dxy    dyz    dz2    dxz  x2-y2    tot
    1  0.990  0.000  0.000  0.000  0.000  0.000  0.000  0.000  0.000  0.990
 
band     2 # energy    0.71450961 # occ.  0.48238355
 
ion      s     py     pz     px    dxy    dyz    dz2    dxz  x2-y2    tot
    1  0.009  0.047  0.047  0.000  0.000  0.000  0.000  0.000  0.000  0.103
 
band     3 # energy    4.17251867 # occ. -0.00000000
 
ion      s     py     pz     px    dxy    dyz    dz2    dxz  x2-y2    tot
    1  0.099  0.006  0.006  0.000  0.000  0.000  0.000  0.000  0.000  0.112
 
band     4 # energy   11.09697758 # occ.  0.00000000
 
ion      s     py     pz     px    dxy    dyz    dz2    dxz  x2-y2    tot
    1  0.000  0.000  0.000  0.461  0.000  0.000  0.000  0.000  0.000  0.461
 
band     5 # energy   12.57184001 # occ.  0.00000000
 
ion      s     py     pz     px    dxy    dyz    dz2    dxz  x2-y2    tot
    1  0.000  0.209  0.209  0.000  0.000  0.000  0.000  0.000  0.000  0.417
 
band     6 # energy   14.37819760 # occ.  0.00000000
 
ion      s     py     pz     px    dxy    dyz    dz2    dxz  x2-y2    tot
    1  0.000  0.000  0.000  0.000  0.000  0.000  0.000  0.000  0.000  0.000
 
band     7 # energy   17.84211330 # occ.  0.00000000
 
ion      s     py     pz     px    dxy    dyz    dz2    dxz  x2-y2    tot
    1  0.164  0.005  0.005  0.000  0.000  0.000  0.000  0.000  0.000  0.175
 
band     8 # energy   23.14831642 # occ.  0.00000000
 
ion      s     py     pz     px    dxy    dyz    dz2    dxz  x2-y2    tot
    1  0.000  0.317  0.317  0.000  0.000  0.000  0.000  0.000  0.000  0.634
 

 k-point     8 :    0.07692308 0.07692308 0.00000000     weight = 0.01092399

band     1 # energy  -45.87065380 # occ.  1.00000000
 
ion      s     py     pz     px    dxy    dyz    dz2    dxz  x2-y2    tot
    1  0.989  0.000  0.000  0.000  0.000  0.000  0.000  0.000  0.000  0.989
 
band     2 # energy   -2.58641057 # occ.  1.00000000
 
ion      s     py     pz     px    dxy    dyz    dz2    dxz  x2-y2    tot
    1  0.086  0.001  0.004  0.001  0.000  0.000  0.000  0.000  0.000  0.092
 
band     3 # energy   13.56615085 # occ.  0.00000000
 
ion      s     py     pz     px    dxy    dyz    dz2    dxz  x2-y2    tot
    1  0.024  0.150  0.213  0.150  0.000  0.000  0.000  0.000  0.000  0.536
 
band     4 # energy   13.59653408 # occ.  0.00000000
 
ion      s     py     pz     px    dxy    dyz    dz2    dxz  x2-y2    tot
    1  0.000  0.237  0.000  0.237  0.000  0.000  0.000  0.000  0.000  0.474
 
band     5 # energy   14.51631857 # occ.  0.00000000
 
ion      s     py     pz     px    dxy    dyz    dz2    dxz  x2-y2    tot
    1  0.001  0.158  0.323  0.158  0.000  0.000  0.000  0.000  0.000  0.640
 
band     6 # energy   17.83980240 # occ.  0.00000000
 
ion      s     py     pz     px    dxy    dyz    dz2    dxz  x2-y2    tot
    1  0.000  0.134  0.000  0.134  0.000  0.000  0.000  0.000  0.000  0.268
 
band     7 # energy   18.11288254 # occ.  0.00000000
 
ion      s     py     pz     px    dxy    dyz    dz2    dxz  x2-y2    tot
    1  0.006  0.000  0.168  0.000  0.000  0.000  0.000  0.000  0.000  0.174
 
band     8 # energy   19.99370622 # occ.  0.00000000
 
ion      s     py     pz     px    dxy    dyz    dz2    dxz  x2-y2    tot
    1  0.000  0.029  0.000  0.029  0.000  0.000  0.000  0.000  0.000  0.059
 

 k-point     9 :    0.15384615 0.07692308 0.00000000     weight = 0.02184797

band     1 # energy  -45.86679916 # occ.  1.00000000
 
ion      s     py     pz     px    dxy    dyz    dz2    dxz  x2-y2    tot
    1  0.989  0.000  0.000  0.000  0.000  0.000  0.000  0.000  0.000  0.989
 
band     2 # energy   -2.13646135 # occ.  1.00000000
 
ion      s     py     pz     px    dxy    dyz    dz2    dxz  x2-y2    tot
    1  0.078  0.004  0.009  0.001  0.000  0.000  0.000  0.000  0.000  0.092
 
band     3 # energy   11.25318787 # occ.  0.00000000
 
ion      s     py     pz     px    dxy    dyz    dz2    dxz  x2-y2    tot
    1  0.021  0.170  0.073  0.018  0.000  0.000  0.000  0.000  0.000  0.283
 
band     4 # energy   12.54525043 # occ.  0.00000000
 
ion      s     py     pz     px    dxy    dyz    dz2    dxz  x2-y2    tot
    1  0.020  0.000  0.085  0.334  0.000  0.000  0.000  0.000  0.000  0.439
 
band     5 # energy   13.69495010 # occ.  0.00000000
 
ion      s     py     pz     px    dxy    dyz    dz2    dxz  x2-y2    tot
    1  0.000  0.197  0.196  0.119  0.000  0.000  0.000  0.000  0.000  0.512
 
band     6 # energy   17.46469887 # occ.  0.00000000
 
ion      s     py     pz     px    dxy    dyz    dz2    dxz  x2-y2    tot
    1  0.019  0.048  0.141  0.035  0.000  0.000  0.000  0.000  0.000  0.244
 
band     7 # energy   17.53223166 # occ.  0.00000000
 
ion      s     py     pz     px    dxy    dyz    dz2    dxz  x2-y2    tot
    1  0.000  0.207  0.054  0.068  0.000  0.000  0.000  0.000  0.000  0.329
 
band     8 # energy   20.11321738 # occ.  0.00000000
 
ion      s     py     pz     px    dxy    dyz    dz2    dxz  x2-y2    tot
    1  0.010  0.008  0.099  0.036  0.000  0.000  0.000  0.000  0.000  0.153
 

 k-point    10 :    0.23076923 0.07692308 0.00000000     weight = 0.02184797

band     1 # energy  -45.86219294 # occ.  1.00000000
 
ion      s     py     pz     px    dxy    dyz    dz2    dxz  x2-y2    tot
    1  0.989  0.000  0.000  0.000  0.000  0.000  0.000  0.000  0.000  0.989
 
band     2 # energy   -1.46399389 # occ.  1.00000000
 
ion      s     py     pz     px    dxy    dyz    dz2    dxz  x2-y2    tot
    1  0.066  0.009  0.016  0.001  0.000  0.000  0.000  0.000  0.000  0.093
 
band     3 # energy    8.82285095 # occ.  0.00000000
 
ion      s     py     pz     px    dxy    dyz    dz2    dxz  x2-y2    tot
    1  0.035  0.098  0.049  0.010  0.000  0.000  0.000  0.000  0.000  0.192
 
band     4 # energy   11.67049612 # occ.  0.00000000
 
ion      s     py     pz     px    dxy    dyz    dz2    dxz  x2-y2    tot
    1  0.021  0.002  0.056  0.316  0.000  0.000  0.000  0.000  0.000  0.395
 
band     5 # energy   12.90724060 # occ.  0.00000000
 
ion      s     py     pz     px    dxy    dyz    dz2    dxz  x2-y2    tot
    1  0.000  0.166  0.150  0.115  0.000  0.000  0.000  0.000  0.000  0.431
 
band     6 # energy   16.78832634 # occ.  0.00000000
 
ion      s     py     pz     px    dxy    dyz    dz2    dxz  x2-y2    tot
    1  0.014  0.024  0.138  0.002  0.000  0.000  0.000  0.000  0.000  0.179
 
band     7 # energy   17.52747140 # occ.  0.00000000
 
ion      s     py     pz     px    dxy    dyz    dz2    dxz  x2-y2    tot
    1  0.029  0.253  0.003  0.076  0.000  0.000  0.000  0.000  0.000  0.361
 
band     8 # energy   20.64387589 # occ.  0.00000000
 
ion      s     py     pz     px    dxy    dyz    dz2    dxz  x2-y2    tot
    1  0.029  0.009  0.179  0.020  0.000  0.000  0.000  0.000  0.000  0.237
 

 k-point    11 :    0.30769231 0.07692308 0.00000000     weight = 0.02184797

band     1 # energy  -45.85785702 # occ.  1.00000000
 
ion      s     py     pz     px    dxy    dyz    dz2    dxz  x2-y2    tot
    1  0.989  0.000  0.000  0.000  0.000  0.000  0.000  0.000  0.000  0.989
 
band     2 # energy   -0.58676095 # occ.  1.00000000
 
ion      s     py     pz     px    dxy    dyz    dz2    dxz  x2-y2    tot
    1  0.050  0.018  0.026  0.001  0.000  0.000  0.000  0.000  0.000  0.096
 
band     3 # energy    6.61970661 # occ.  0.00000000
 
ion      s     py     pz     px    dxy    dyz    dz2    dxz  x2-y2    tot
    1  0.052  0.059  0.029  0.007  0.000  0.000  0.000  0.000  0.000  0.147
 
band     4 # energy   11.01984481 # occ.  0.00000000
 
ion      s     py     pz     px    dxy    dyz    dz2    dxz  x2-y2    tot
    1  0.022  0.006  0.038  0.303  0.000  0.000  0.000  0.000  0.000  0.370
 
band     5 # energy   12.28846511 # occ.  0.00000000
 
ion      s     py     pz     px    dxy    dyz    dz2    dxz  x2-y2    tot
    1  0.000  0.142  0.130  0.114  0.000  0.000  0.000  0.000  0.000  0.386
 
band     6 # energy   16.19561312 # occ.  0.00000000
 
ion      s     py     pz     px    dxy    dyz    dz2    dxz  x2-y2    tot
    1  0.012  0.041  0.100  0.005  0.000  0.000  0.000  0.000  0.000  0.157
 
band     7 # energy   17.74006152 # occ.  0.00000000
 
ion      s     py     pz     px    dxy    dyz    dz2    dxz  x2-y2    tot
    1  0.068  0.191  0.001  0.061  0.000  0.000  0.000  0.000  0.000  0.321
 
band     8 # energy   21.51175972 # occ.  0.00000000
 
ion      s     py     pz     px    dxy    dyz    dz2    dxz  x2-y2    tot
    1  0.041  0.077  0.179  0.011  0.000  0.000  0.000  0.000  0.000  0.307
 

 k-point    12 :    0.38461538 0.07692308 0.00000000     weight = 0.02184797

band     1 # energy  -45.85472374 # occ.  1.00000000
 
ion      s     py     pz     px    dxy    dyz    dz2    dxz  x2-y2    tot
    1  0.990  0.000  0.000  0.000  0.000  0.000  0.000  0.000  0.000  0.990
 
band     2 # energy    0.40304024 # occ.  1.02599771
 
ion      s     py     pz     px    dxy    dyz    dz2    dxz  x2-y2    tot
    1  0.025  0.033  0.042  0.001  0.000  0.000  0.000  0.000  0.000  0.101
 
band     3 # energy    4.81670885 # occ. -0.00000000
 
ion      s     py     pz     px    dxy    dyz    dz2    dxz  x2-y2    tot
    1  0.076  0.028  0.010  0.006  0.000  0.000  0.000  0.000  0.000  0.121
 
band     4 # energy   10.62164719 # occ.  0.00000000
 
ion      s     py     pz     px    dxy    dyz    dz2    dxz  x2-y2    tot
    1  0.022  0.012  0.027  0.296  0.000  0.000  0.000  0.000  0.000  0.356
 
band     5 # energy   11.90116961 # occ.  0.00000000
 
ion      s     py     pz     px    dxy    dyz    dz2    dxz  x2-y2    tot
    1  0.000  0.128  0.122  0.113  0.000  0.000  0.000  0.000  0.000  0.364
 
band     6 # energy   15.81540729 # occ.  0.00000000
 
ion      s     py     pz     px    dxy    dyz    dz2    dxz  x2-y2    tot
    1  0.011  0.052  0.077  0.006  0.000  0.000  0.000  0.000  0.000  0.146
 
band     7 # energy   17.99364429 # occ.  0.00000000
 
ion      s     py     pz     px    dxy    dyz    dz2    dxz  x2-y2    tot
    1  0.108  0.105  0.002  0.055  0.000  0.000  0.000  0.000  0.000  0.270
 
band     8 # energy   22.57274092 # occ.  0.00000000
 
ion      s     py     pz     px    dxy    dyz    dz2    dxz  x2-y2    tot
    1  0.041  0.217  0.147  0.007  0.000  0.000  0.000  0.000  0.000  0.412
 

 k-point    13 :    0.46153846 0.07692308 0.00000000     weight = 0.01092399

band     1 # energy  -45.85361318 # occ.  1.00000000
 
ion      s     py     pz     px    dxy    dyz    dz2    dxz  x2-y2    tot
    1  0.990  0.000  0.000  0.000  0.000  0.000  0.000  0.000  0.000  0.990
 
band     2 # energy    1.00098048 # occ. -0.02967946
 
ion      s     py     pz     px    dxy    dyz    dz2    dxz  x2-y2    tot
    1  0.000  0.053  0.053  0.000  0.000  0.000  0.000  0.000  0.000  0.105
 
band     3 # energy    3.94513840 # occ. -0.00000000
 
ion      s     py     pz     px    dxy    dyz    dz2    dxz  x2-y2    tot
    1  0.101  0.001  0.001  0.006  0.000  0.000  0.000  0.000  0.000  0.110
 
band     4 # energy   10.48773329 # occ.  0.00000000
 
ion      s     py     pz     px    dxy    dyz    dz2    dxz  x2-y2    tot
    1  0.022  0.018  0.018  0.293  0.000  0.000  0.000  0.000  0.000  0.352
 
band     5 # energy   11.76989367 # occ.  0.00000000
 
ion      s     py     pz     px    dxy    dyz    dz2    dxz  x2-y2    tot
    1  0.000  0.122  0.122  0.113  0.000  0.000  0.000  0.000  0.000  0.357
 
band     6 # energy   15.68553788 # occ.  0.00000000
 
ion      s     py     pz     px    dxy    dyz    dz2    dxz  x2-y2    tot
    1  0.011  0.063  0.063  0.006  0.000  0.000  0.000  0.000  0.000  0.143
 
band     7 # energy   18.10873720 # occ.  0.00000000
 
ion      s     py     pz     px    dxy    dyz    dz2    dxz  x2-y2    tot
    1  0.127  0.033  0.033  0.053  0.000  0.000  0.000  0.000  0.000  0.246
 
band     8 # energy   23.37588989 # occ.  0.00000000
 
ion      s     py     pz     px    dxy    dyz    dz2    dxz  x2-y2    tot
    1  0.034  0.281  0.282  0.005  0.000  0.000  0.000  0.000  0.000  0.602
 

 k-point    14 :    0.15384615 0.15384615 0.00000000     weight = 0.01092399

band     1 # energy  -45.86282117 # occ.  1.00000000
 
ion      s     py     pz     px    dxy    dyz    dz2    dxz  x2-y2    tot
    1  0.989  0.000  0.000  0.000  0.000  0.000  0.000  0.000  0.000  0.989
 
band     2 # energy   -1.57305350 # occ.  1.00000000
 
ion      s     py     pz     px    dxy    dyz    dz2    dxz  x2-y2    tot
    1  0.069  0.004  0.016  0.004  0.000  0.000  0.000  0.000  0.000  0.093
 
band     3 # energy    9.78009595 # occ.  0.00000000
 
ion      s     py     pz     px    dxy    dyz    dz2    dxz  x2-y2    tot
    1  0.000  0.110  0.000  0.110  0.000  0.000  0.000  0.000  0.000  0.220
 
band     4 # energy   10.76413060 # occ.  0.00000000
 
ion      s     py     pz     px    dxy    dyz    dz2    dxz  x2-y2    tot
    1  0.061  0.044  0.145  0.044  0.000  0.000  0.000  0.000  0.000  0.295
 
band     5 # energy   12.86461643 # occ.  0.00000000
 
ion      s     py     pz     px    dxy    dyz    dz2    dxz  x2-y2    tot
    1  0.003  0.183  0.093  0.183  0.000  0.000  0.000  0.000  0.000  0.463
 
band     6 # energy   17.47093077 # occ.  0.00000000
 
ion      s     py     pz     px    dxy    dyz    dz2    dxz  x2-y2    tot
    1  0.000  0.169  0.000  0.169  0.000  0.000  0.000  0.000  0.000  0.339
 
band     7 # energy   17.95261635 # occ.  0.00000000
 
ion      s     py     pz     px    dxy    dyz    dz2    dxz  x2-y2    tot
    1  0.037  0.012  0.288  0.012  0.000  0.000  0.000  0.000  0.000  0.349
 
band     8 # energy   20.64664804 # occ.  0.00000000
 
ion      s     py     pz     px    dxy    dyz    dz2    dxz  x2-y2    tot
    1  0.000  0.117  0.000  0.117  0.000  0.000  0.000  0.000  0.000  0.234
 

 k-point    15 :    0.23076923 0.15384615 0.00000000     weight = 0.02184797

band     1 # energy  -45.85864084 # occ.  1.00000000
 
ion      s     py     pz     px    dxy    dyz    dz2    dxz  x2-y2    tot
    1  0.989  0.000  0.000  0.000  0.000  0.000  0.000  0.000  0.000  0.989
 
band     2 # energy   -0.78899745 # occ.  1.00000000
 
ion      s     py     pz     px    dxy    dyz    dz2    dxz  x2-y2    tot
    1  0.055  0.010  0.025  0.004  0.000  0.000  0.000  0.000  0.000  0.095
 
band     3 # energy    7.69234505 # occ.  0.00000000
 
ion      s     py     pz     px    dxy    dyz    dz2    dxz  x2-y2    tot
    1  0.018  0.096  0.013  0.043  0.000  0.000  0.000  0.000  0.000  0.170
 
band     4 # energy    9.79361894 # occ.  0.00000000
 
ion      s     py     pz     px    dxy    dyz    dz2    dxz  x2-y2    tot
    1  0.061  0.000  0.090  0.097  0.000  0.000  0.000  0.000  0.000  0.248
 
band     5 # energy   12.21303709 # occ.  0.00000000
 
ion      s     py     pz     px    dxy    dyz    dz2    dxz  x2-y2    tot
    1  0.008  0.152  0.073  0.195  0.000  0.000  0.000  0.000  0.000  0.428
 
band     6 # energy   17.52586703 # occ.  0.00000000
 
ion      s     py     pz     px    dxy    dyz    dz2    dxz  x2-y2    tot
    1  0.029  0.068  0.049  0.102  0.000  0.000  0.000  0.000  0.000  0.247
 
band     7 # energy   18.15547366 # occ.  0.00000000
 
ion      s     py     pz     px    dxy    dyz    dz2    dxz  x2-y2    tot
    1  0.020  0.199  0.177  0.027  0.000  0.000  0.000  0.000  0.000  0.422
 
band     8 # energy   21.37552249 # occ.  0.00000000
 
ion      s     py     pz     px    dxy    dyz    dz2    dxz  x2-y2    tot
    1  0.031  0.044  0.040  0.145  0.000  0.000  0.000  0.000  0.000  0.261
 

 k-point    16 :    0.30769231 0.15384615 0.00000000     weight = 0.02184797

band     1 # energy  -45.85514615 # occ.  1.00000000
 
ion      s     py     pz     px    dxy    dyz    dz2    dxz  x2-y2    tot
    1  0.989  0.000  0.000  0.000  0.000  0.000  0.000  0.000  0.000  0.989
 
band     2 # energy    0.18234268 # occ.  1.00060562
 
ion      s     py     pz     px    dxy    dyz    dz2    dxz  x2-y2    tot
    1  0.037  0.020  0.038  0.004  0.000  0.000  0.000  0.000  0.000  0.099
 
band     3 # energy    5.70721031 # occ. -0.00000000
 
ion      s     py     pz     px    dxy    dyz    dz2    dxz  x2-y2    tot
    1  0.040  0.060  0.009  0.028  0.000  0.000  0.000  0.000  0.000  0.137
 
band     4 # energy    9.23306239 # occ.  0.00000000
 
ion      s     py     pz     px    dxy    dyz    dz2    dxz  x2-y2    tot
    1  0.059  0.008  0.058  0.105  0.000  0.000  0.000  0.000  0.000  0.230
 
band     5 # energy   11.75303521 # occ.  0.00000000
 
ion      s     py     pz     px    dxy    dyz    dz2    dxz  x2-y2    tot
    1  0.011  0.120  0.073  0.203  0.000  0.000  0.000  0.000  0.000  0.406
 
band     6 # energy   17.42450897 # occ.  0.00000000
 
ion      s     py     pz     px    dxy    dyz    dz2    dxz  x2-y2    tot
    1  0.060  0.000  0.073  0.034  0.000  0.000  0.000  0.000  0.000  0.167
 
band     7 # energy   18.53398992 # occ.  0.00000000
 
ion      s     py     pz     px    dxy    dyz    dz2    dxz  x2-y2    tot
    1  0.000  0.302  0.090  0.090  0.000  0.000  0.000  0.000  0.000  0.483
 
band     8 # energy   22.11366551 # occ.  0.00000000
 
ion      s     py     pz     px    dxy    dyz    dz2    dxz  x2-y2    tot
    1  0.078  0.005  0.019  0.108  0.000  0.000  0.000  0.000  0.000  0.211
 

 k-point    17 :    0.38461538 0.15384615 0.00000000     weight = 0.02184797

band     1 # energy  -45.85314622 # occ.  1.00000000
 
ion      s     py     pz     px    dxy    dyz    dz2    dxz  x2-y2    tot
    1  0.990  0.000  0.000  0.000  0.000  0.000  0.000  0.000  0.000  0.990
 
band     2 # energy    1.13920390 # occ. -0.00487979
 
ion      s     py     pz     px    dxy    dyz    dz2    dxz  x2-y2    tot
    1  0.009  0.041  0.054  0.001  0.000  0.000  0.000  0.000  0.000  0.105
 
band     3 # energy    4.22507239 # occ. -0.00000000
 
ion      s     py     pz     px    dxy    dyz    dz2    dxz  x2-y2    tot
    1  0.069  0.023  0.000  0.025  0.000  0.000  0.000  0.000  0.000  0.118
 
band     4 # energy    8.95887773 # occ.  0.00000000
 
ion      s     py     pz     px    dxy    dyz    dz2    dxz  x2-y2    tot
    1  0.058  0.021  0.037  0.106  0.000  0.000  0.000  0.000  0.000  0.222
 
band     5 # energy   11.51586134 # occ.  0.00000000
 
ion      s     py     pz     px    dxy    dyz    dz2    dxz  x2-y2    tot
    1  0.013  0.096  0.081  0.206  0.000  0.000  0.000  0.000  0.000  0.396
 
band     6 # energy   17.31194861 # occ.  0.00000000
 
ion      s     py     pz     px    dxy    dyz    dz2    dxz  x2-y2    tot
    1  0.065  0.017  0.047  0.016  0.000  0.000  0.000  0.000  0.000  0.145
 
band     7 # energy   18.93035318 # occ.  0.00000000
 
ion      s     py     pz     px    dxy    dyz    dz2    dxz  x2-y2    tot
    1  0.015  0.230  0.119  0.121  0.000  0.000  0.000  0.000  0.000  0.485
 
band     8 # energy   22.67722397 # occ.  0.00000000
 
ion      s     py     pz     px    dxy    dyz    dz2    dxz  x2-y2    tot
    1  0.039  0.157  0.041  0.032  0.000  0.000  0.000  0.000  0.000  0.269
 

 k-point    18 :    0.23076923 0.23076923 0.00000000     weight = 0.01092399

band     1 # energy  -45.85525828 # occ.  1.00000000
 
ion      s     py     pz     px    dxy    dyz    dz2    dxz  x2-y2    tot
    1  0.989  0.000  0.000  0.000  0.000  0.000  0.000  0.000  0.000  0.989
 
band     2 # energy    0.10439532 # occ.  1.00007901
 
ion      s     py     pz     px    dxy    dyz    dz2    dxz  x2-y2    tot