<?xml version="1.0" encoding="ISO-8859-1"?>
<modeling>
 <generator>
  <i name="program" type="string">vasp </i>
  <i name="version" type="string">5.4.4.18Apr17-6-g9f103f2a35  </i>
  <i name="subversion" type="string">(build Aug 12 2020 11:57:02) complex            parallel </i>
  <i name="platform" type="string">LinuxIFC </i>
  <i name="date" type="string">2021 02 02 </i>
  <i name="time" type="string">18:27:48 </i>
 </generator>
 <incar>
  <i type="string" name="PREC">accurate</i>
  <i type="string" name="ALGO"> Fast</i>
  <i type="int" name="NSIM">     4</i>
  <i type="int" name="ISPIN">     2</i>
  <i type="int" name="NELM">   100</i>
  <i type="int" name="IBRION">     2</i>
  <i name="EDIFF">      0.00001000</i>
  <i type="int" name="NSW">    99</i>
  <i type="int" name="ISIF">     3</i>
  <i name="ENCUT">    520.00000000</i>
  <v name="MAGMOM">      0.00000000</v>
  <i type="string" name="LREAL"> Auto</i>
  <i type="logical" name="LPLANE"> T  </i>
  <i type="int" name="ISMEAR">     1</i>
  <i name="SIGMA">      0.20000000</i>
  <i type="logical" name="LWAVE"> F  </i>
  <i type="logical" name="LCHARG"> F  </i>
  <i type="int" name="LORBIT">    11</i>
  <i type="logical" name="LASPH"> T  </i>
  <v type="int" name="KPOINT_BSE">    -1     0     0     0</v>
  <i type="int" name="NELM">   100</i>
  <i type="logical" name="LASPH"> T  </i>
 </incar>
 <structure name="primitive_cell" >
  <crystal>
   <varray name="basis" >
    <v>      -1.71340900       1.71340900       1.71340900 </v>
    <v>       1.71340900      -1.71340900       1.71340900 </v>
    <v>       1.71340900       1.71340900      -1.71340900 </v>
   </varray>
   <i name="volume">     20.12070171 </i>
   <varray name="rec_basis" >
    <v>       0.00000000       0.29181591       0.29181591 </v>
    <v>       0.29181591       0.00000000       0.29181591 </v>
    <v>       0.29181591       0.29181591       0.00000000 </v>
   </varray>
  </crystal>
  <varray name="positions" >
   <v>       0.00000000       0.00000000       0.00000000 </v>
  </varray>
 </structure>
 <varray name="primitive_index" >
  <v type="int" >        1 </v>
 </varray>
 <kpoints>
  <generation param="Auto">
   <i name="subdivisionlength">     32.00000000 </i>
   <v type="int" name="divisions">      13       13       13 </v>
   <v name="usershift">      0.00000000       0.00000000       0.00000000 </v>
   <v name="genvec1">      0.07692308       0.00000000       0.00000000 </v>
   <v name="genvec2">      0.00000000       0.07692308       0.00000000 </v>
   <v name="genvec3">      0.00000000       0.00000000       0.07692308 </v>
   <v name="shift">      0.00000000       0.00000000       0.00000000 </v>
  </generation>
  <varray name="kpointlist" >
   <v>       0.00000000       0.00000000       0.00000000 </v>
   <v>       0.07692308       0.00000000       0.00000000 </v>
   <v>       0.15384615       0.00000000       0.00000000 </v>
   <v>       0.23076923       0.00000000       0.00000000 </v>
   <v>       0.30769231       0.00000000       0.00000000 </v>
   <v>       0.38461538       0.00000000       0.00000000 </v>
   <v>       0.46153846       0.00000000       0.00000000 </v>
   <v>       0.07692308       0.07692308       0.00000000 </v>
   <v>       0.15384615       0.07692308       0.00000000 </v>
   <v>       0.23076923       0.07692308       0.00000000 </v>
   <v>       0.30769231       0.07692308       0.00000000 </v>
   <v>       0.38461538       0.07692308       0.00000000 </v>
   <v>       0.46153846       0.07692308       0.00000000 </v>
   <v>       0.15384615       0.15384615       0.00000000 </v>
   <v>       0.23076923       0.15384615       0.00000000 </v>
   <v>       0.30769231       0.15384615       0.00000000 </v>
   <v>       0.38461538       0.15384615       0.00000000 </v>
   <v>       0.23076923       0.23076923       0.00000000 </v>
   <v>       0.30769231       0.23076923       0.00000000 </v>
   <v>       0.38461538       0.23076923       0.00000000 </v>
   <v>       0.30769231       0.30769231       0.00000000 </v>
   <v>       0.07692308       0.07692308       0.07692308 </v>
   <v>       0.15384615       0.07692308       0.07692308 </v>
   <v>       0.23076923       0.07692308       0.07692308 </v>
   <v>       0.30769231       0.07692308       0.07692308 </v>
   <v>       0.38461538       0.07692308       0.07692308 </v>
   <v>      -0.07692308       0.07692308       0.07692308 </v>
   <v>       0.15384615       0.15384615       0.07692308 </v>
   <v>       0.23076923       0.15384615       0.07692308 </v>
   <v>       0.30769231       0.15384615       0.07692308 </v>
   <v>       0.38461538       0.15384615       0.07692308 </v>
   <v>      -0.15384615       0.15384615       0.07692308 </v>
   <v>       0.23076923       0.23076923       0.07692308 </v>
   <v>       0.30769231       0.23076923       0.07692308 </v>
   <v>      -0.23076923       0.23076923       0.07692308 </v>
   <v>      -0.15384615       0.23076923       0.07692308 </v>
   <v>       0.30769231       0.30769231       0.07692308 </v>
   <v>      -0.30769231       0.30769231       0.07692308 </v>
   <v>      -0.23076923       0.30769231       0.07692308 </v>
   <v>      -0.38461538       0.38461538       0.07692308 </v>
   <v>      -0.30769231       0.38461538       0.07692308 </v>
   <v>      -0.23076923       0.38461538       0.07692308 </v>
   <v>      -0.46153846       0.46153846       0.07692308 </v>
   <v>      -0.38461538       0.46153846       0.07692308 </v>
   <v>      -0.30769231       0.46153846       0.07692308 </v>
   <v>      -0.46153846      -0.46153846       0.07692308 </v>
   <v>      -0.38461538      -0.46153846       0.07692308 </v>
   <v>      -0.30769231      -0.46153846       0.07692308 </v>
   <v>      -0.38461538      -0.38461538       0.07692308 </v>
   <v>       0.15384615       0.15384615       0.15384615 </v>
   <v>       0.23076923       0.15384615       0.15384615 </v>
   <v>       0.30769231       0.15384615       0.15384615 </v>
   <v>      -0.15384615       0.15384615       0.15384615 </v>
   <v>       0.23076923       0.23076923       0.15384615 </v>
   <v>       0.30769231       0.23076923       0.15384615 </v>
   <v>      -0.23076923       0.23076923       0.15384615 </v>
   <v>      -0.30769231       0.30769231       0.15384615 </v>
   <v>      -0.23076923       0.30769231       0.15384615 </v>
   <v>      -0.38461538       0.38461538       0.15384615 </v>
   <v>      -0.30769231       0.38461538       0.15384615 </v>
   <v>      -0.46153846       0.46153846       0.15384615 </v>
   <v>      -0.38461538       0.46153846       0.15384615 </v>
   <v>      -0.30769231       0.46153846       0.15384615 </v>
   <v>      -0.46153846      -0.46153846       0.15384615 </v>
   <v>      -0.38461538      -0.46153846       0.15384615 </v>
   <v>      -0.38461538      -0.38461538       0.15384615 </v>
   <v>       0.23076923       0.23076923       0.23076923 </v>
   <v>      -0.23076923       0.23076923       0.23076923 </v>
   <v>      -0.30769231       0.30769231       0.23076923 </v>
   <v>      -0.38461538       0.38461538       0.23076923 </v>
   <v>      -0.30769231       0.38461538       0.23076923 </v>
   <v>      -0.46153846       0.46153846       0.23076923 </v>
   <v>      -0.38461538       0.46153846       0.23076923 </v>
   <v>      -0.46153846      -0.46153846       0.23076923 </v>
   <v>      -0.38461538      -0.46153846       0.23076923 </v>
   <v>      -0.30769231       0.30769231       0.30769231 </v>
   <v>      -0.38461538       0.38461538       0.30769231 </v>
   <v>      -0.46153846       0.46153846       0.30769231 </v>
   <v>      -0.38461538       0.46153846       0.30769231 </v>
   <v>      -0.46153846      -0.46153846       0.30769231 </v>
   <v>      -0.38461538       0.38461538       0.38461538 </v>
   <v>      -0.46153846       0.46153846       0.38461538 </v>
   <v>      -0.46153846      -0.46153846       0.38461538 </v>
   <v>      -0.46153846       0.46153846       0.46153846 </v>
  </varray>
  <varray name="weights" >
   <v>       0.00045517 </v>
   <v>       0.00546199 </v>
   <v>       0.00546199 </v>
   <v>       0.00546199 </v>
   <v>       0.00546199 </v>
   <v>       0.00546199 </v>
   <v>       0.00546199 </v>
   <v>       0.01092399 </v>
   <v>       0.02184797 </v>
   <v>       0.02184797 </v>
   <v>       0.02184797 </v>
   <v>       0.02184797 </v>
   <v>       0.01092399 </v>
   <v>       0.01092399 </v>
   <v>       0.02184797 </v>
   <v>       0.02184797 </v>
   <v>       0.02184797 </v>
   <v>       0.01092399 </v>
   <v>       0.02184797 </v>
   <v>       0.01092399 </v>
   <v>       0.01092399 </v>
   <v>       0.00364133 </v>
   <v>       0.01092399 </v>
   <v>       0.01092399 </v>
   <v>       0.01092399 </v>
   <v>       0.01092399 </v>
   <v>       0.00273100 </v>
   <v>       0.01092399 </v>
   <v>       0.02184797 </v>
   <v>       0.02184797 </v>
   <v>       0.01092399 </v>
   <v>       0.01092399 </v>
   <v>       0.01092399 </v>
   <v>       0.02184797 </v>
   <v>       0.01092399 </v>
   <v>       0.01092399 </v>
   <v>       0.00364133 </v>
   <v>       0.01092399 </v>
   <v>       0.02184797 </v>
   <v>       0.01092399 </v>
   <v>       0.02184797 </v>
   <v>       0.01092399 </v>
   <v>       0.01092399 </v>
   <v>       0.02184797 </v>
   <v>       0.02184797 </v>
   <v>       0.01092399 </v>
   <v>       0.02184797 </v>
   <v>       0.01092399 </v>
   <v>       0.01092399 </v>
   <v>       0.00364133 </v>
   <v>       0.01092399 </v>
   <v>       0.01092399 </v>
   <v>       0.00273100 </v>
   <v>       0.01092399 </v>
   <v>       0.01092399 </v>
   <v>       0.01092399 </v>
   <v>       0.01092399 </v>
   <v>       0.01092399 </v>
   <v>       0.01092399 </v>
   <v>       0.02184797 </v>
   <v>       0.01092399 </v>
   <v>       0.02184797 </v>
   <v>       0.01092399 </v>
   <v>       0.01092399 </v>
   <v>       0.02184797 </v>
   <v>       0.00364133 </v>
   <v>       0.00364133 </v>
   <v>       0.00273100 </v>
   <v>       0.01092399 </v>
   <v>       0.01092399 </v>
   <v>       0.01092399 </v>
   <v>       0.01092399 </v>
   <v>       0.02184797 </v>
   <v>       0.01092399 </v>
   <v>       0.01092399 </v>
   <v>       0.00273100 </v>
   <v>       0.01092399 </v>
   <v>       0.01092399 </v>
   <v>       0.01092399 </v>
   <v>       0.01092399 </v>
   <v>       0.00273100 </v>
   <v>       0.01092399 </v>
   <v>       0.00364133 </v>
   <v>       0.00273100 </v>
  </varray>
 </kpoints>
 <parameters>
  <separator name="general" >
   <i type="string" name="SYSTEM">unknown system</i>
   <i type="logical" name="LCOMPAT"> F  </i>
  </separator>
  <separator name="electronic" >
   <i type="string" name="PREC">accura</i>
   <i name="ENMAX">    520.00000000</i>
   <i name="ENAUG">    628.94500000</i>
   <i name="EDIFF">      0.00001000</i>
   <i type="int" name="IALGO">    68</i>
   <i type="int" name="IWAVPR">    11</i>
   <i type="int" name="NBANDS">     8</i>
   <i name="NELECT">      3.00000000</i>
   <i type="int" name="TURBO">     0</i>
   <i type="int" name="IRESTART">     0</i>
   <i type="int" name="NREBOOT">     0</i>
   <i type="int" name="NMIN">     0</i>
   <i name="EREF">      0.00000000</i>
   <separator name="electronic smearing" >
    <i type="int" name="ISMEAR">     1</i>
    <i name="SIGMA">      0.20000000</i>
    <i name="KSPACING">      0.50000000</i>
    <i type="logical" name="KGAMMA"> T  </i>
   </separator>
   <separator name="electronic projectors" >
    <i type="logical" name="LREAL"> T  </i>
    <v name="ROPT">     -0.00025000</v>
    <i type="int" name="LMAXPAW">  -100</i>
    <i type="int" name="LMAXMIX">     2</i>
    <i type="logical" name="NLSPLINE"> F  </i>
   </separator>
   <separator name="electronic startup" >
    <i type="int" name="ISTART">     0</i>
    <i type="int" name="ICHARG">     2</i>
    <i type="int" name="INIWAV">     1</i>
   </separator>
   <separator name="electronic spin" >
    <i type="int" name="ISPIN">     2</i>
    <i type="logical" name="LNONCOLLINEAR"> F  </i>
    <v name="MAGMOM">      0.00000000</v>
    <i name="NUPDOWN">     -1.00000000</i>
    <i type="logical" name="LSORBIT"> F  </i>
    <v name="SAXIS">      0.00000000      0.00000000      1.00000000</v>
    <i type="logical" name="LSPIRAL"> F  </i>
    <v name="QSPIRAL">      0.00000000      0.00000000      0.00000000</v>
    <i type="logical" name="LZEROZ"> F  </i>
   </separator>
   <separator name="electronic exchange-correlation" >
    <i type="logical" name="LASPH"> T  </i>
    <i type="logical" name="LMETAGGA"> F  </i>
   </separator>
   <separator name="electronic convergence" >
    <i type="int" name="NELM">   100</i>
    <i type="int" name="NELMDL">    -5</i>
    <i type="int" name="NELMIN">     2</i>
    <i name="ENINI">    520.00000000</i>
    <separator name="electronic convergence detail" >
     <i type="logical" name="LDIAG"> T  </i>
     <i type="logical" name="LSUBROT"> F  </i>
     <i name="WEIMIN">      0.00100000</i>
     <i name="EBREAK">      0.00000031</i>
     <i name="DEPER">      0.30000000</i>
     <i type="int" name="NRMM">     4</i>
     <i name="TIME">      0.40000000</i>
    </separator>
   </separator>
   <separator name="electronic mixer" >
    <i name="AMIX">      0.40000000</i>
    <i name="BMIX">      1.00000000</i>
    <i name="AMIN">      0.10000000</i>
    <i name="AMIX_MAG">      1.60000000</i>
    <i name="BMIX_MAG">      1.00000000</i>
    <separator name="electronic mixer details" >
     <i type="int" name="IMIX">     4</i>
     <i type="logical" name="MIXFIRST"> F  </i>
     <i type="int" name="MAXMIX">   -45</i>
     <i name="WC">    100.00000000</i>
     <i type="int" name="INIMIX">     1</i>
     <i type="int" name="MIXPRE">     1</i>
     <i type="int" name="MREMOVE">     5</i>
    </separator>
   </separator>
   <separator name="electronic dipolcorrection" >
    <i type="logical" name="LDIPOL"> F  </i>
    <i type="logical" name="LMONO"> F  </i>
    <i type="int" name="IDIPOL">     0</i>
    <i name="EPSILON">      1.00000000</i>
    <v name="DIPOL">   -100.00000000   -100.00000000   -100.00000000</v>
    <i name="EFIELD">      0.00000000</i>
   </separator>
  </separator>
  <separator name="grids" >
   <i type="int" name="NGX">    24</i>
   <i type="int" name="NGY">    24</i>
   <i type="int" name="NGZ">    24</i>
   <i type="int" name="NGXF">    48</i>
   <i type="int" name="NGYF">    48</i>
   <i type="int" name="NGZF">    48</i>
   <i type="logical" name="ADDGRID"> F  </i>
  </separator>
  <separator name="ionic" >
   <i type="int" name="NSW">    99</i>
   <i type="int" name="IBRION">     2</i>
   <i type="int" name="MDALGO">     0</i>
   <i type="int" name="ISIF">     3</i>
   <i name="PSTRESS">      0.00000000</i>
   <i name="EDIFFG">      0.00010000</i>
   <i type="int" name="NFREE">     1</i>
   <i name="POTIM">      0.50000000</i>
   <i name="SMASS">     -3.00000000</i>
   <i name="SCALEE">      1.00000000</i>
  </separator>
  <separator name="ionic md" >
   <i name="TEBEG">      0.00010000</i>
   <i name="TEEND">      0.00010000</i>
   <i type="int" name="NBLOCK">     1</i>
   <i type="int" name="KBLOCK">    99</i>
   <i type="int" name="NPACO">   256</i>
   <i name="APACO">     16.00000000</i>
  </separator>
  <separator name="symmetry" >
   <i type="int" name="ISYM">     2</i>
   <i name="SYMPREC">      0.00001000</i>
  </separator>
  <separator name="dos" >
   <i type="int" name="LORBIT">    11</i>
   <v name="RWIGS">     -1.00000000</v>
   <i type="int" name="NEDOS">   301</i>
   <i name="EMIN">     10.00000000</i>
   <i name="EMAX">    -10.00000000</i>
   <i name="EFERMI">      0.00000000</i>
  </separator>
  <separator name="writing" >
   <i type="int" name="NWRITE">     2</i>
   <i type="logical" name="LWAVE"> F  </i>
   <i type="logical" name="LDOWNSAMPLE"> F  </i>
   <i type="logical" name="LCHARG"> F  </i>
   <i type="logical" name="LPARD"> F  </i>
   <i type="logical" name="LVTOT"> F  </i>
   <i type="logical" name="LVHAR"> F  </i>
   <i type="logical" name="LELF"> F  </i>
   <i type="logical" name="LOPTICS"> F  </i>
   <v name="STM">      0.00000000      0.00000000      0.00000000      0.00000000      0.00000000      0.00000000      0.00000000</v>
  </separator>
  <separator name="performance" >
   <i type="int" name="NPAR">     4</i>
   <i type="int" name="NSIM">     4</i>
   <i type="int" name="NBLK">    -1</i>
   <i type="logical" name="LPLANE"> T  </i>
   <i type="logical" name="LSCALAPACK"> T  </i>
   <i type="logical" name="LSCAAWARE"> F  </i>
   <i type="logical" name="LSCALU"> F  </i>
   <i type="logical" name="LASYNC"> F  </i>
   <i type="logical" name="LORBITALREAL"> F  </i>
  </separator>
  <separator name="miscellaneous" >
   <i type="int" name="IDIOT">     3</i>
   <i type="int" name="ISPECIAL">     0</i>
   <i type="logical" name="LMUSIC"> F  </i>
   <v name="POMASS">      7.01000000</v>
   <v name="DARWINR">      0.00000000</v>
   <v name="DARWINV">      1.00000000</v>
   <i type="logical" name="LCORR"> T  </i>
  </separator>
  <i type="logical" name="GGA_COMPAT"> T  </i>
  <i type="logical" name="LBERRY"> F  </i>
  <i type="int" name="ICORELEVEL">     0</i>
  <i type="logical" name="LDAU"> F  </i>
  <i type="int" name="I_CONSTRAINED_M">     0</i>
  <separator name="electronic exchange-correlation" >
   <i type="string" name="GGA">--</i>
   <i type="int" name="VOSKOWN">     0</i>
   <i type="logical" name="LHFCALC"> F  </i>
   <i type="string" name="PRECFOCK"></i>
   <i type="logical" name="LSYMGRAD"> F  </i>
   <i type="logical" name="LHFONE"> F  </i>
   <i type="logical" name="LRHFCALC"> F  </i>
   <i type="logical" name="LTHOMAS"> F  </i>
   <i type="logical" name="LMODELHF"> F  </i>
   <i name="ENCUT4O">     -1.00000000</i>
   <i type="int" name="EXXOEP">     0</i>
   <i type="int" name="FOURORBIT">     0</i>
   <i name="AEXX">      0.00000000</i>
   <i name="HFALPHA">      0.00000000</i>
   <i name="MCALPHA">      0.00000000</i>
   <i name="ALDAX">      1.00000000</i>
   <i name="AGGAX">      1.00000000</i>
   <i name="ALDAC">      1.00000000</i>
   <i name="AGGAC">      1.00000000</i>
   <i type="int" name="NKREDX">     1</i>
   <i type="int" name="NKREDY">     1</i>
   <i type="int" name="NKREDZ">     1</i>
   <i type="logical" name="SHIFTRED"> F  </i>
   <i type="logical" name="ODDONLY"> F  </i>
   <i type="logical" name="EVENONLY"> F  </i>
   <i type="int" name="LMAXFOCK">     0</i>
   <i type="int" name="NMAXFOCKAE">     0</i>
   <i type="logical" name="LFOCKAEDFT"> F  </i>
   <i name="HFSCREEN">      0.00000000</i>
   <i name="HFSCREENC">      0.00000000</i>
   <i type="int" name="NBANDSGWLOW">     0</i>
  </separator>
  <separator name="vdW DFT" >
   <i type="logical" name="LUSE_VDW"> F  </i>
   <i name="Zab_VDW">     -0.84910000</i>
   <i name="PARAM1">      0.12340000</i>
   <i name="PARAM2">      1.00000000</i>
   <i name="PARAM3">      0.00000000</i>
  </separator>
  <separator name="model GW" >
   <i type="int" name="MODEL_GW">     0</i>
   <i name="MODEL_EPS0">     12.07242103</i>
   <i name="MODEL_ALPHA">      1.00000000</i>
  </separator>
  <separator name="linear response parameters" >
   <i type="logical" name="LEPSILON"> F  </i>
   <i type="logical" name="LRPA"> F  </i>
   <i type="logical" name="LNABLA"> F  </i>
   <i type="logical" name="LVEL"> F  </i>
   <i type="int" name="KINTER">     0</i>
   <i name="CSHIFT">      0.10000000</i>
   <i name="OMEGAMAX">     -1.00000000</i>
   <i name="DEG_THRESHOLD">      0.00200000</i>
   <i name="RTIME">     -0.10000000</i>
   <i name="WPLASMAI">      0.00000000</i>
   <v name="DFIELD">      0.00000000      0.00000000      0.00000000</v>
   <v name="WPLASMA">      0.00000000      0.00000000      0.00000000      0.00000000      0.00000000      0.00000000      0.00000000      0.00000000      0.00000000</v>
  </separator>
  <separator name="orbital magnetization" >
   <i type="logical" name="NUCIND"> F  </i>
   <v name="MAGPOS">      0.00000000      0.00000000      0.00000000</v>
   <i type="logical" name="LNICSALL"> T  </i>
   <i type="logical" name="ORBITALMAG"> F  </i>
   <i type="logical" name="LMAGBLOCH"> F  </i>
   <i type="logical" name="LCHIMAG"> F  </i>
   <i type="logical" name="LGAUGE"> T  </i>
   <i type="int" name="MAGATOM">     0</i>
   <v name="MAGDIPOL">      0.00000000      0.00000000      0.00000000</v>
   <v name="AVECCONST">      0.00000000      0.00000000      0.00000000</v>
  </separator>
  <separator name="response functions" >
   <i type="logical" name="LADDER"> F  </i>
   <i type="logical" name="LRPAFORCE"> F  </i>
   <i type="logical" name="LFXC"> F  </i>
   <i type="logical" name="LHARTREE"> T  </i>
   <i type="int" name="IBSE">     0</i>
   <v type="int" name="KPOINT">    -1     0     0     0</v>
   <i type="logical" name="LTCTE"> F  </i>
   <i type="logical" name="LTETE"> F  </i>
   <i type="logical" name="LTRIPLET"> F  </i>
   <i type="logical" name="LFXCEPS"> F  </i>
   <i type="logical" name="LFXHEG"> F  </i>
   <i type="int" name="NATURALO">     2</i>
   <i type="logical" name="L2ORDER"> F  </i>
   <i type="logical" name="LMP2LT"> F  </i>
   <i type="logical" name="LUSEW"> F  </i>
   <i name="ENCUTGW">     -2.00000000</i>
   <i name="ENCUTGWSOFT">     -2.00000000</i>
   <i name="ENCUTLF">     -1.00000000</i>
   <i type="int" name="LMAXMP2">    -1</i>
   <i name="SCISSOR">      0.00000000</i>
   <i type="int" name="NOMEGA">     0</i>
   <i type="int" name="NOMEGAR">     0</i>
   <i type="int" name="NBANDSGW">    -1</i>
   <i type="int" name="NBANDSO">    -1</i>
   <i type="int" name="NBANDSV">    -1</i>
   <i type="int" name="NELM">   100</i>
   <i type="int" name="NELMHF">     1</i>
   <i type="int" name="DIM">     3</i>
   <i type="int" name="ANTIRES">     0</i>
   <i name="OMEGAMAX">    -30.00000000</i>
   <i name="OMEGAMIN">    -30.00000000</i>
   <i name="OMEGATL">   -200.00000000</i>
   <i type="int" name="OMEGAGRID">   140</i>
   <i name="CSHIFT">     -0.10000000</i>
   <i type="logical" name="SELFENERGY"> F  </i>
   <i type="logical" name="LSPECTRAL"> F  </i>
   <i type="logical" name="LSPECTRALGW"> F  </i>
   <i type="logical" name="LSINGLES"> F  </i>
   <i type="logical" name="LFERMIGW"> F  </i>
   <i type="logical" name="ODDONLYGW"> F  </i>
   <i type="logical" name="EVENONLYGW"> F  </i>
   <i type="int" name="NKREDLFX">     1</i>
   <i type="int" name="NKREDLFY">     1</i>
   <i type="int" name="NKREDLFZ">     1</i>
   <i type="int" name="MAXMEM">  2800</i>
   <i type="int" name="TELESCOPE">     0</i>
   <i type="int" name="TAUPAR">     1</i>
   <i type="int" name="OMEGAPAR">    -1</i>
   <i name="LAMBDA">      1.00000000</i>
  </separator>
  <separator name="External order field" >
   <i name="OFIELD_KAPPA">      0.00000000</i>
   <v name="OFIELD_K">      0.00000000      0.00000000      0.00000000</v>
   <i name="OFIELD_Q6_NEAR">      0.00000000</i>
   <i name="OFIELD_Q6_FAR">      0.00000000</i>
   <i name="OFIELD_A">      0.00000000</i>
  </separator>
 </parameters>
 <atominfo>
  <atoms>       1 </atoms>
  <types>       1 </types>
  <array name="atoms" >
   <dimension dim="1">ion</dimension>
   <field type="string">element</field>
   <field type="int">atomtype</field>
   <set>
    <rc><c>Li</c><c>   1</c></rc>
   </set>
  </array>
  <array name="atomtypes" >
   <dimension dim="1">type</dimension>
   <field type="int">atomspertype</field>
   <field type="string">element</field>
   <field>mass</field>
   <field>valence</field>
   <field type="string">pseudopotential</field>
   <set>
    <rc><c>   1</c><c>Li</c><c>      7.01000000</c><c>      3.00000000</c><c>  PAW_PBE Li_sv 10Sep2004               </c></rc>
   </set>
  </array>
 </atominfo>
 <structure name="initialpos" >
  <crystal>
   <varray name="basis" >
    <v>      -1.71340900       1.71340900       1.71340900 </v>
    <v>       1.71340900      -1.71340900       1.71340900 </v>
    <v>       1.71340900       1.71340900      -1.71340900 </v>
   </varray>
   <i name="volume">     20.12070171 </i>
   <varray name="rec_basis" >
    <v>       0.00000000       0.29181591       0.29181591 </v>
    <v>       0.29181591       0.00000000       0.29181591 </v>
    <v>       0.29181591       0.29181591       0.00000000 </v>
   </varray>
  </crystal>
  <varray name="positions" >
   <v>       0.00000000       0.00000000       0.00000000 </v>
  </varray>
 </structure>
 <calculation>
  <scstep>
   <time name="dav">    0.30    0.33</time>
   <time name="total">    0.57    0.67</time>
   <energy>
    <i name="alphaZ">      1.14408901 </i>
    <i name="ewald">    -68.81568908 </i>
    <i name="hartreedc">    -41.77558993 </i>
    <i name="XCdc">     12.11293580 </i>
    <i name="pawpsdc">     79.76162584 </i>
    <i name="pawaedc">    -95.16706656 </i>
    <i name="eentropy">      0.00035646 </i>
    <i name="bandstr">    -90.23878207 </i>
    <i name="atom">    202.77284695 </i>
    <i name="e_fr_energy">     -0.20527359 </i>
    <i name="e_wo_entrp">     -0.20563005 </i>
    <i name="e_0_energy">     -0.20539241 </i>
   </energy>
  </scstep>
  <scstep>
   <time name="dav">    0.41    0.42</time>
   <time name="total">    0.41    0.42</time>
   <energy>
    <i name="e_fr_energy">     -1.88688829 </i>
    <i name="e_wo_entrp">     -1.88743186 </i>
    <i name="e_0_energy">     -1.88706948 </i>
   </energy>
  </scstep>
  <scstep>
   <time name="dav">    0.32    0.32</time>
   <time name="total">    0.32    0.32</time>
   <energy>
    <i name="e_fr_energy">     -1.90596326 </i>
    <i name="e_wo_entrp">     -1.90647074 </i>
    <i name="e_0_energy">     -1.90613242 </i>
   </energy>
  </scstep>
  <scstep>
   <time name="dav">    0.41    0.41</time>
   <time name="total">    0.41    0.42</time>
   <energy>
    <i name="e_fr_energy">     -1.90644397 </i>
    <i name="e_wo_entrp">     -1.90695138 </i>
    <i name="e_0_energy">     -1.90661310 </i>
   </energy>
  </scstep>
  <scstep>
   <time name="dav">    0.33    0.33</time>
   <time name="total">    0.36    0.38</time>
   <energy>
    <i name="e_fr_energy">     -1.90646154 </i>
    <i name="e_wo_entrp">     -1.90696896 </i>
    <i name="e_0_energy">     -1.90663068 </i>
   </energy>
  </scstep>
  <scstep>
   <time name="diag">    0.15    0.21</time>
   <time name="diis">    0.18    0.18</time>
   <time name="orth">    0.01    0.01</time>
   <time name="total">    0.59    0.66</time>
   <energy>
    <i name="e_fr_energy">     -1.90535826 </i>
    <i name="e_wo_entrp">     -1.90586308 </i>
    <i name="e_0_energy">     -1.90552653 </i>
   </energy>
  </scstep>
  <scstep>
   <time name="diag">    0.11    0.11</time>
   <time name="diis">    0.12    0.12</time>
   <time name="orth">    0.01    0.01</time>
   <time name="total">    0.50    0.50</time>
   <energy>
    <i name="e_fr_energy">     -1.90484614 </i>
    <i name="e_wo_entrp">     -1.90534469 </i>
    <i name="e_0_energy">     -1.90501232 </i>
   </energy>
  </scstep>
  <scstep>
   <time name="diag">    0.11    0.11</time>
   <time name="diis">    0.11    0.11</time>
   <time name="orth">    0.01    0.01</time>
   <time name="total">    0.48    0.49</time>
   <energy>
    <i name="e_fr_energy">     -1.90485955 </i>
    <i name="e_wo_entrp">     -1.90535819 </i>
    <i name="e_0_energy">     -1.90502576 </i>
   </energy>
  </scstep>
  <scstep>
   <time name="diag">    0.11    0.11</time>
   <time name="diis">    0.10    0.10</time>
   <time name="orth">    0.01    0.01</time>
   <time name="total">    0.46    0.46</time>
   <energy>
    <i name="alphaZ">      1.14408901 </i>
    <i name="ewald">    -68.81568908 </i>
    <i name="hartreedc">    -41.16069408 </i>
    <i name="XCdc">     12.06724463 </i>
    <i name="pawpsdc">     81.02162441 </i>
    <i name="pawaedc">    -96.48323220 </i>
    <i name="eentropy">      0.00049890 </i>
    <i name="bandstr">    -92.45154896 </i>
    <i name="atom">    202.77284695 </i>
    <i name="e_fr_energy">     -1.90486043 </i>
    <i name="e_wo_entrp">     -1.90535933 </i>
    <i name="e_0_energy">     -1.90502673 </i>
   </energy>
  </scstep>
  <structure>
   <crystal>
    <varray name="basis" >
     <v>      -1.71340900       1.71340900       1.71340900 </v>
     <v>       1.71340900      -1.71340900       1.71340900 </v>
     <v>       1.71340900       1.71340900      -1.71340900 </v>
    </varray>
    <i name="volume">     20.12070171 </i>
    <varray name="rec_basis" >
     <v>       0.00000000       0.29181591       0.29181591 </v>
     <v>       0.29181591       0.00000000       0.29181591 </v>
     <v>       0.29181591       0.29181591       0.00000000 </v>
    </varray>
   </crystal>
   <varray name="positions" >
    <v>       0.00000000       0.00000000       0.00000000 </v>
   </varray>
  </structure>
  <varray name="forces" >
   <v>      -0.00000000      -0.00000000       0.00000000 </v>
  </varray>
  <varray name="stress" >
   <v>      -0.06184760      -0.00000000      -0.00000000 </v>
   <v>      -0.00000000      -0.06184760      -0.00000000 </v>
   <v>       0.00000000      -0.00000000      -0.06184760 </v>
  </varray>
  <energy>
   <i name="e_fr_energy">     -1.90486043 </i>
   <i name="e_wo_entrp">     -1.90502673 </i>
   <i name="e_0_energy">      0.00049890 </i>
  </energy>
  <time name="totalsc">    4.85    5.10</time>
  <eigenvalues>
   <array>
    <dimension dim="1">band</dimension>
    <dimension dim="2">kpoint</dimension>
    <dimension dim="3">spin</dimension>
    <field>eigene</field>
    <field>occ</field>
    <set>
     <set comment="spin 1">
      <set comment="kpoint 1">
       <r>  -45.8739    1.0000 </r>
       <r>   -2.9234    1.0000 </r>
       <r>   15.3283    0.0000 </r>
       <r>   15.3283    0.0000 </r>
       <r>   15.3284    0.0000 </r>
       <r>   20.1151    0.0000 </r>
       <r>   20.1151    0.0000 </r>
       <r>   20.1151    0.0000 </r>
      </set>
      <set comment="kpoint 2">
       <r>  -45.8728    1.0000 </r>
       <r>   -2.8109    1.0000 </r>
       <r>   14.5587    0.0000 </r>
       <r>   14.7817    0.0000 </r>
       <r>   15.1312    0.0000 </r>
       <r>   18.6318    0.0000 </r>
       <r>   18.8432    0.0000 </r>
       <r>   20.2152    0.0000 </r>
      </set>
      <set comment="kpoint 3">
       <r>  -45.8696    1.0000 </r>
       <r>   -2.4741    1.0000 </r>
       <r>   12.4691    0.0000 </r>
       <r>   13.7355    0.0000 </r>
       <r>   14.5955    0.0000 </r>
       <r>   17.3787    0.0000 </r>
       <r>   17.6839    0.0000 </r>
       <r>   19.9242    0.0000 </r>
      </set>
      <set comment="kpoint 4">
       <r>  -45.8652    1.0000 </r>
       <r>   -1.9129    1.0000 </r>
       <r>    9.9937    0.0000 </r>
       <r>   12.7293    0.0000 </r>
       <r>   13.9102    0.0000 </r>
       <r>   16.1832    0.0000 </r>
       <r>   17.4446    0.0000 </r>
       <r>   20.2540    0.0000 </r>
      </set>
      <set comment="kpoint 5">
       <r>  -45.8604    1.0000 </r>
       <r>   -1.1357    1.0000 </r>
       <r>    7.6496    0.0000 </r>
       <r>   11.9257    0.0000 </r>
       <r>   13.2773    0.0000 </r>
       <r>   15.2818    0.0000 </r>
       <r>   17.5039    0.0000 </r>
       <r>   21.0315    0.0000 </r>
      </set>
      <set comment="kpoint 6">
       <r>  -45.8564    1.0000 </r>
       <r>   -0.1853    1.0000 </r>
       <r>    5.6198   -0.0000 </r>
       <r>   11.3754    0.0000 </r>
       <r>   12.8136    0.0000 </r>
       <r>   14.6796    0.0000 </r>
       <r>   17.6879    0.0000 </r>
       <r>   22.1010    0.0000 </r>
      </set>
      <set comment="kpoint 7">
       <r>  -45.8542    1.0000 </r>
       <r>    0.7145    0.4824 </r>
       <r>    4.1725   -0.0000 </r>
       <r>   11.0970    0.0000 </r>
       <r>   12.5718    0.0000 </r>
       <r>   14.3782    0.0000 </r>
       <r>   17.8421    0.0000 </r>
       <r>   23.1483    0.0000 </r>
      </set>
      <set comment="kpoint 8">
       <r>  -45.8707    1.0000 </r>
       <r>   -2.5864    1.0000 </r>
       <r>   13.5662    0.0000 </r>
       <r>   13.5965    0.0000 </r>
       <r>   14.5163    0.0000 </r>
       <r>   17.8398    0.0000 </r>
       <r>   18.1129    0.0000 </r>
       <r>   19.9937    0.0000 </r>
      </set>
      <set comment="kpoint 9">
       <r>  -45.8668    1.0000 </r>
       <r>   -2.1365    1.0000 </r>
       <r>   11.2532    0.0000 </r>
       <r>   12.5453    0.0000 </r>
       <r>   13.6950    0.0000 </r>
       <r>   17.4647    0.0000 </r>
       <r>   17.5322    0.0000 </r>
       <r>   20.1132    0.0000 </r>
      </set>
      <set comment="kpoint 10">
       <r>  -45.8622    1.0000 </r>
       <r>   -1.4640    1.0000 </r>
       <r>    8.8229    0.0000 </r>
       <r>   11.6705    0.0000 </r>
       <r>   12.9072    0.0000 </r>
       <r>   16.7883    0.0000 </r>
       <r>   17.5275    0.0000 </r>
       <r>   20.6439    0.0000 </r>
      </set>
      <set comment="kpoint 11">
       <r>  -45.8579    1.0000 </r>
       <r>   -0.5868    1.0000 </r>
       <r>    6.6197    0.0000 </r>
       <r>   11.0198    0.0000 </r>
       <r>   12.2885    0.0000 </r>
       <r>   16.1956    0.0000 </r>
       <r>   17.7401    0.0000 </r>
       <r>   21.5118    0.0000 </r>
      </set>
      <set comment="kpoint 12">
       <r>  -45.8547    1.0000 </r>
       <r>    0.4030    1.0260 </r>
       <r>    4.8167   -0.0000 </r>
       <r>   10.6216    0.0000 </r>
       <r>   11.9012    0.0000 </r>
       <r>   15.8154    0.0000 </r>
       <r>   17.9936    0.0000 </r>
       <r>   22.5727    0.0000 </r>
      </set>
      <set comment="kpoint 13">
       <r>  -45.8536    1.0000 </r>
       <r>    1.0010   -0.0297 </r>
       <r>    3.9451   -0.0000 </r>
       <r>   10.4877    0.0000 </r>
       <r>   11.7699    0.0000 </r>
       <r>   15.6855    0.0000 </r>
       <r>   18.1087    0.0000 </r>
       <r>   23.3759    0.0000 </r>
      </set>
      <set comment="kpoint 14">
       <r>  -45.8628    1.0000 </r>
       <r>   -1.5731    1.0000 </r>
       <r>    9.7801    0.0000 </r>
       <r>   10.7641    0.0000 </r>
       <r>   12.8646    0.0000 </r>
       <r>   17.4709    0.0000 </r>
       <r>   17.9526    0.0000 </r>
       <r>   20.6466    0.0000 </r>
      </set>
      <set comment="kpoint 15">
       <r>  -45.8586    1.0000 </r>
       <r>   -0.7890    1.0000 </r>
       <r>    7.6923    0.0000 </r>
       <r>    9.7936    0.0000 </r>
       <r>   12.2130    0.0000 </r>
       <r>   17.5259    0.0000 </r>
       <r>   18.1555    0.0000 </r>
       <r>   21.3755    0.0000 </r>
      </set>
      <set comment="kpoint 16">
       <r>  -45.8551    1.0000 </r>
       <r>    0.1823    1.0006 </r>
       <r>    5.7072   -0.0000 </r>
       <r>    9.2331    0.0000 </r>
       <r>   11.7530    0.0000 </r>
       <r>   17.4245    0.0000 </r>
       <r>   18.5340    0.0000 </r>
       <r>   22.1137    0.0000 </r>
      </set>
      <set comment="kpoint 17">
       <r>  -45.8531    1.0000 </r>
       <r>    1.1392   -0.0049 </r>
       <r>    4.2251   -0.0000 </r>
       <r>    8.9589    0.0000 </r>
       <r>   11.5159    0.0000 </r>
       <r>   17.3119    0.0000 </r>
       <r>   18.9304    0.0000 </r>
       <r>   22.6772    0.0000 </r>
      </set>
      <set comment="kpoint 18">
       <r>  -45.8553    1.0000 </r>
       <r>    0.1044    1.0001 </r>
       <r>    6.3293    0.0000 </r>
       <r>    8.3868    0.0000 </r>
       <r>   11.7536    0.0000 </r>
       <r>   17.9812    0.0000 </r>
       <r>   18.8187    0.0000 </r>
       <r>   22.5560    0.0000 </r>
      </set>
      <set comment="kpoint 19">
       <r>  -45.8529    1.0000 </r>
       <r>    1.1600   -0.0033 </r>
       <r>    4.7747   -0.0000 </r>
       <r>    7.7216    0.0000 </r>
       <r>   11.4683    0.0000 </r>
       <r>   18.3205    0.0000 </r>
       <r>   19.4693    0.0000 </r>
       <r>   22.3736    0.0000 </r>
      </set>
      <set comment="kpoint 20">
       <r>  -45.8520    1.0000 </r>
       <r>    1.8952   -0.0000 </r>
       <r>    3.8377   -0.0000 </r>
       <r>    7.5308    0.0000 </r>
       <r>   11.3710    0.0000 </r>
       <r>   18.4100    0.0000 </r>
       <r>   20.1056    0.0000 </r>
       <r>   21.4106    0.0000 </r>
      </set>
      <set comment="kpoint 21">
       <r>  -45.8517    1.0000 </r>
       <r>    2.2840   -0.0000 </r>
       <r>    3.6776   -0.0000 </r>
       <r>    6.9377    0.0000 </r>
       <r>   11.3264    0.0000 </r>
       <r>   19.2803    0.0000 </r>
       <r>   19.9475    0.0000 </r>
       <r>   20.9418    0.0000 </r>
      </set>
      <set comment="kpoint 22">
       <r>  -45.8678    1.0000 </r>
       <r>   -2.2496    1.0000 </r>
       <r>   12.5275    0.0000 </r>
       <r>   12.5275    0.0000 </r>
       <r>   12.6888    0.0000 </r>
       <r>   18.1316    0.0000 </r>
       <r>   18.1316    0.0000 </r>
       <r>   21.5086    0.0000 </r>
      </set>
      <set comment="kpoint 23">
       <r>  -45.8637    1.0000 </r>
       <r>   -1.6875    1.0000 </r>
       <r>   10.0723    0.0000 </r>
       <r>   11.5080    0.0000 </r>
       <r>   11.8616    0.0000 </r>
       <r>   18.2371    0.0000 </r>
       <r>   18.4362    0.0000 </r>
       <r>   21.3539    0.0000 </r>
      </set>
      <set comment="kpoint 24">
       <r>  -45.8594    1.0000 </r>
       <r>   -0.9060    1.0000 </r>
       <r>    7.7321    0.0000 </r>
       <r>   10.6962    0.0000 </r>
       <r>   11.2151    0.0000 </r>
       <r>   18.0293    0.0000 </r>
       <r>   18.6611    0.0000 </r>
       <r>   21.6843    0.0000 </r>
      </set>
      <set comment="kpoint 25">
       <r>  -45.8558    1.0000 </r>
       <r>    0.0590    1.0000 </r>
       <r>    5.6939   -0.0000 </r>
       <r>   10.1409    0.0000 </r>
       <r>   10.7695    0.0000 </r>
       <r>   17.7147    0.0000 </r>
       <r>   18.8901    0.0000 </r>
       <r>   22.5843    0.0000 </r>
      </set>
      <set comment="kpoint 26">
       <r>  -45.8538    1.0000 </r>
       <r>    0.9984   -0.0302 </r>
       <r>    4.2103   -0.0000 </r>
       <r>    9.8601    0.0000 </r>
       <r>   10.5426    0.0000 </r>
       <r>   17.5169    0.0000 </r>
       <r>   19.0618    0.0000 </r>
       <r>   23.5842    0.0000 </r>
      </set>
      <set comment="kpoint 27">
       <r>  -45.8717    1.0000 </r>
       <r>   -2.6984    1.0000 </r>
       <r>   14.1656    0.0000 </r>
       <r>   14.1656    0.0000 </r>
       <r>   14.8440    0.0000 </r>
       <r>   17.6127    0.0000 </r>
       <r>   19.2900    0.0000 </r>
       <r>   19.2901    0.0000 </r>
      </set>
      <set comment="kpoint 28">
       <r>  -45.8599    1.0000 </r>
       <r>   -1.0126    1.0000 </r>
       <r>    8.6717    0.0000 </r>
       <r>    9.6585    0.0000 </r>
       <r>   11.1487    0.0000 </r>
       <r>   19.0301    0.0000 </r>
       <r>   19.1504    0.0000 </r>
       <r>   22.1131    0.0000 </r>
      </set>
      <set comment="kpoint 29">
       <r>  -45.8564    1.0000 </r>
       <r>   -0.1220    1.0000 </r>
       <r>    6.7015    0.0000 </r>
       <r>    8.7627    0.0000 </r>
       <r>   10.6580    0.0000 </r>
       <r>   19.3501    0.0000 </r>
       <r>   19.7169    0.0000 </r>
       <r>   22.7011    0.0000 </r>
      </set>
      <set comment="kpoint 30">
       <r>  -45.8540    1.0000 </r>
       <r>    0.9158   -0.0277 </r>
       <r>    4.9045   -0.0000 </r>
       <r>    8.3087    0.0000 </r>
       <r>   10.3601    0.0000 </r>
       <r>   19.3452    0.0000 </r>
       <r>   20.1868    0.0000 </r>
       <r>   23.5335    0.0000 </r>
      </set>
      <set comment="kpoint 31">
       <r>  -45.8531    1.0000 </r>
       <r>    1.5992   -0.0000 </r>
       <r>    3.9604   -0.0000 </r>
       <r>    8.1615    0.0000 </r>
       <r>   10.2602    0.0000 </r>
       <r>   19.3135    0.0000 </r>
       <r>   20.3888    0.0000 </r>
       <r>   24.2781    0.0000 </r>
      </set>
      <set comment="kpoint 32">
       <r>  -45.8686    1.0000 </r>
       <r>   -2.3601    1.0000 </r>
       <r>   12.4129    0.0000 </r>
       <r>   13.0479    0.0000 </r>
       <r>   14.4295    0.0000 </r>
       <r>   16.4727    0.0000 </r>
       <r>   18.3130    0.0000 </r>
       <r>   19.4976    0.0000 </r>
      </set>
      <set comment="kpoint 33">
       <r>  -45.8540    1.0000 </r>
       <r>    0.8737    0.0058 </r>
       <r>    5.4595   -0.0000 </r>
       <r>    7.4522    0.0000 </r>
       <r>   10.3156    0.0000 </r>
       <r>   20.3451    0.0000 </r>
       <r>   20.5085    0.0000 </r>
       <r>   23.8366    0.0000 </r>
      </set>
      <set comment="kpoint 34">
       <r>  -45.8527    1.0000 </r>
       <r>    1.9566   -0.0000 </r>
       <r>    4.1041   -0.0000 </r>
       <r>    6.9308    0.0000 </r>
       <r>   10.1446    0.0000 </r>
       <r>   20.6412    0.0000 </r>
       <r>   21.4003    0.0000 </r>
       <r>   23.6834    0.0000 </r>
      </set>
      <set comment="kpoint 35">
       <r>  -45.8642    1.0000 </r>
       <r>   -1.7967    1.0000 </r>
       <r>   10.0285    0.0000 </r>
       <r>   12.0036    0.0000 </r>
       <r>   13.8401    0.0000 </r>
       <r>   16.3012    0.0000 </r>
       <r>   17.1918    0.0000 </r>
       <r>   20.0317    0.0000 </r>
      </set>
      <set comment="kpoint 36">
       <r>  -45.8649    1.0000 </r>
       <r>   -1.9073    1.0000 </r>
       <r>   11.0462    0.0000 </r>
       <r>   11.5059    0.0000 </r>
       <r>   14.0244    0.0000 </r>
       <r>   15.6295    0.0000 </r>
       <r>   18.2294    0.0000 </r>
       <r>   19.9640    0.0000 </r>
      </set>
      <set comment="kpoint 37">
       <r>  -45.8522    1.0000 </r>
       <r>    3.0891   -0.0000 </r>
       <r>    3.0891   -0.0000 </r>
       <r>    6.4279    0.0000 </r>
       <r>   10.0741    0.0000 </r>
       <r>   21.4101    0.0000 </r>
       <r>   22.3024    0.0000 </r>
       <r>   22.3024    0.0000 </r>
      </set>
      <set comment="kpoint 38">
       <r>  -45.8595    1.0000 </r>
       <r>   -1.0157    1.0000 </r>
       <r>    7.7099    0.0000 </r>
       <r>   11.1795    0.0000 </r>
       <r>   13.2439    0.0000 </r>
       <r>   16.3199    0.0000 </r>
       <r>   16.5816    0.0000 </r>
       <r>   20.7521    0.0000 </r>
      </set>
      <set comment="kpoint 39">
       <r>  -45.8604    1.0000 </r>
       <r>   -1.2294    1.0000 </r>
       <r>    8.8704    0.0000 </r>
       <r>   10.4867    0.0000 </r>
       <r>   13.4955    0.0000 </r>
       <r>   15.5998    0.0000 </r>
       <r>   17.7964    0.0000 </r>
       <r>   20.6485    0.0000 </r>
      </set>
      <set comment="kpoint 40">
       <r>  -45.8556    1.0000 </r>
       <r>   -0.0580    1.0000 </r>
       <r>    5.6846   -0.0000 </r>
       <r>   10.6181    0.0000 </r>
       <r>   12.7981    0.0000 </r>
       <r>   15.7318    0.0000 </r>
       <r>   17.0244    0.0000 </r>
       <r>   21.5521    0.0000 </r>
      </set>
      <set comment="kpoint 41">
       <r>  -45.8562    1.0000 </r>
       <r>   -0.3426    1.0000 </r>
       <r>    6.7233    0.0000 </r>
       <r>    9.8057    0.0000 </r>
       <r>   12.9681    0.0000 </r>
       <r>   15.9484    0.0000 </r>
       <r>   17.4575    0.0000 </r>
       <r>   21.2257    0.0000 </r>
      </set>
      <set comment="kpoint 42">
       <r>  -45.8565    1.0000 </r>
       <r>   -0.4383    1.0000 </r>
       <r>    7.4653    0.0000 </r>
       <r>    9.0251    0.0000 </r>
       <r>   13.1900    0.0000 </r>
       <r>   15.5123    0.0000 </r>
       <r>   18.1804    0.0000 </r>
       <r>   21.7450    0.0000 </r>
      </set>
      <set comment="kpoint 43">
       <r>  -45.8534    1.0000 </r>
       <r>    0.8573    0.0285 </r>
       <r>    4.2267   -0.0000 </r>
       <r>   10.3348    0.0000 </r>
       <r>   12.5647    0.0000 </r>
       <r>   15.4364    0.0000 </r>
       <r>   17.3780    0.0000 </r>
       <r>   22.3134    0.0000 </r>
      </set>
      <set comment="kpoint 44">
       <r>  -45.8532    1.0000 </r>
       <r>    0.6687    0.6721 </r>
       <r>    4.9241   -0.0000 </r>
       <r>    9.3956    0.0000 </r>
       <r>   12.6157    0.0000 </r>
       <r>   16.2028    0.0000 </r>
       <r>   17.5361    0.0000 </r>
       <r>   21.2131    0.0000 </r>
      </set>
      <set comment="kpoint 45">
       <r>  -45.8531    1.0000 </r>
       <r>    0.5499    0.9906 </r>
       <r>    5.7333   -0.0000 </r>
       <r>    8.2742    0.0000 </r>
       <r>   12.8594    0.0000 </r>
       <r>   15.9096    0.0000 </r>
       <r>   18.3693    0.0000 </r>
       <r>   21.4215    0.0000 </r>
      </set>
      <set comment="kpoint 46">
       <r>  -45.8522    1.0000 </r>
       <r>    1.2973   -0.0001 </r>
       <r>    4.0290   -0.0000 </r>
       <r>    9.2584    0.0000 </r>
       <r>   12.4941    0.0000 </r>
       <r>   16.2377    0.0000 </r>
       <r>   17.7551    0.0000 </r>
       <r>   20.8898    0.0000 </r>
      </set>
      <set comment="kpoint 47">
       <r>  -45.8513    1.0000 </r>
       <r>    1.5581   -0.0000 </r>
       <r>    4.2759   -0.0000 </r>
       <r>    7.9554    0.0000 </r>
       <r>   12.6569    0.0000 </r>
       <r>   16.3400    0.0000 </r>
       <r>   18.7995    0.0000 </r>
       <r>   19.9006    0.0000 </r>
      </set>
      <set comment="kpoint 48">
       <r>  -45.8510    1.0000 </r>
       <r>    1.6264   -0.0000 </r>
       <r>    4.5539   -0.0000 </r>
       <r>    7.3109    0.0000 </r>
       <r>   12.7586    0.0000 </r>
       <r>   16.4117    0.0000 </r>
       <r>   18.5509    0.0000 </r>
       <r>   20.2060    0.0000 </r>
      </set>
      <set comment="kpoint 49">
       <r>  -45.8502    1.0000 </r>
       <r>    2.4854   -0.0000 </r>
       <r>    3.6212   -0.0000 </r>
       <r>    7.0200    0.0000 </r>
       <r>   12.7106    0.0000 </r>
       <r>   16.9281    0.0000 </r>
       <r>   18.2151    0.0000 </r>
       <r>   19.7511    0.0000 </r>
      </set>
      <set comment="kpoint 50">
       <r>  -45.8569    1.0000 </r>
       <r>   -0.2251    1.0000 </r>
       <r>    7.8165    0.0000 </r>
       <r>    7.8165    0.0000 </r>
       <r>   10.2612    0.0000 </r>
       <r>   20.3030    0.0000 </r>
       <r>   20.3030    0.0000 </r>
       <r>   24.2139    0.0000 </r>
      </set>
      <set comment="kpoint 51">
       <r>  -45.8544    1.0000 </r>
       <r>    0.7724    0.2508 </r>
       <r>    5.8807   -0.0000 </r>
       <r>    7.2393    0.0000 </r>
       <r>    9.8465    0.0000 </r>
       <r>   21.0023    0.0000 </r>
       <r>   21.2534    0.0000 </r>
       <r>   24.6418    0.0000 </r>
      </set>
      <set comment="kpoint 52">
       <r>  -45.8530    1.0000 </r>
       <r>    1.8327   -0.0000 </r>
       <r>    4.3197   -0.0000 </r>
       <r>    6.9492    0.0000 </r>
       <r>    9.6591    0.0000 </r>
       <r>   21.2796    0.0000 </r>
       <r>   21.7716    0.0000 </r>
       <r>   25.2818    0.0000 </r>
      </set>
      <set comment="kpoint 53">
       <r>  -45.8656    1.0000 </r>
       <r>   -2.0182    1.0000 </r>
       <r>   11.8668    0.0000 </r>
       <r>   11.8668    0.0000 </r>
       <r>   14.0563    0.0000 </r>
       <r>   14.5857    0.0000 </r>
       <r>   19.7637    0.0000 </r>
       <r>   19.7637    0.0000 </r>
      </set>
      <set comment="kpoint 54">
       <r>  -45.8530    1.0000 </r>
       <r>    1.8723   -0.0000 </r>
       <r>    4.8745   -0.0000 </r>
       <r>    6.0869   -0.0000 </r>
       <r>    9.5092    0.0000 </r>
       <r>   22.1201    0.0000 </r>
       <r>   22.5901    0.0000 </r>
       <r>   25.5984    0.0000 </r>
      </set>
      <set comment="kpoint 55">
       <r>  -45.8525    1.0000 </r>
       <r>    2.7939   -0.0000 </r>
       <r>    3.8671   -0.0000 </r>
       <r>    5.8006   -0.0000 </r>
       <r>    9.4103    0.0000 </r>
       <r>   22.5040    0.0000 </r>
       <r>   23.3311    0.0000 </r>
       <r>   24.9424    0.0000 </r>
      </set>
      <set comment="kpoint 56">
       <r>  -45.8614    1.0000 </r>
       <r>   -1.4480    1.0000 </r>
       <r>   10.0775    0.0000 </r>
       <r>   10.7914    0.0000 </r>
       <r>   13.5805    0.0000 </r>
       <r>   14.1201    0.0000 </r>
       <r>   19.2190    0.0000 </r>
       <r>   20.3627    0.0000 </r>
      </set>
      <set comment="kpoint 57">
       <r>  -45.8570    1.0000 </r>
       <r>   -0.6561    1.0000 </r>
       <r>    7.8879    0.0000 </r>
       <r>    9.9511    0.0000 </r>
       <r>   13.0375    0.0000 </r>
       <r>   14.6065    0.0000 </r>
       <r>   18.4164    0.0000 </r>
       <r>   20.8902    0.0000 </r>
      </set>
      <set comment="kpoint 58">
       <r>  -45.8573    1.0000 </r>
       <r>   -0.7602    1.0000 </r>
       <r>    8.7898    0.0000 </r>
       <r>    9.5009    0.0000 </r>
       <r>   13.3555    0.0000 </r>
       <r>   13.6082    0.0000 </r>
       <r>   19.3269    0.0000 </r>
       <r>   21.2782    0.0000 </r>
      </set>
      <set comment="kpoint 59">
       <r>  -45.8533    1.0000 </r>
       <r>    0.3227    1.0097 </r>
       <r>    5.8878   -0.0000 </r>
       <r>    9.3812    0.0000 </r>
       <r>   12.6535    0.0000 </r>
       <r>   15.3886    0.0000 </r>
       <r>   17.8507    0.0000 </r>
       <r>   20.4443    0.0000 </r>
      </set>
      <set comment="kpoint 60">
       <r>  -45.8533    1.0000 </r>
       <r>    0.1442    1.0002 </r>
       <r>    6.9152    0.0000 </r>
       <r>    8.7020    0.0000 </r>
       <r>   13.0317    0.0000 </r>
       <r>   14.0610    0.0000 </r>
       <r>   18.9321    0.0000 </r>
       <r>   20.8099    0.0000 </r>
      </set>
      <set comment="kpoint 61">
       <r>  -45.8512    1.0000 </r>
       <r>    1.2839   -0.0002 </r>
       <r>    4.4012   -0.0000 </r>
       <r>    9.0941    0.0000 </r>
       <r>   12.4544    0.0000 </r>
       <r>   16.1788    0.0000 </r>
       <r>   17.5635    0.0000 </r>
       <r>   19.3748    0.0000 </r>
      </set>
      <set comment="kpoint 62">
       <r>  -45.8506    1.0000 </r>
       <r>    1.1950   -0.0016 </r>
       <r>    5.1539   -0.0000 </r>
       <r>    8.2713    0.0000 </r>
       <r>   12.7517    0.0000 </r>
       <r>   14.9369    0.0000 </r>
       <r>   18.3183    0.0000 </r>
       <r>   19.3727    0.0000 </r>
      </set>
      <set comment="kpoint 63">
       <r>  -45.8503    1.0000 </r>
       <r>    1.1526   -0.0038 </r>
       <r>    5.7014   -0.0000 </r>
       <r>    7.6321    0.0000 </r>
       <r>   13.5485    0.0000 </r>
       <r>   13.8148    0.0000 </r>
       <r>   18.1095    0.0000 </r>
       <r>   20.1354    0.0000 </r>
      </set>
      <set comment="kpoint 64">
       <r>  -45.8496    1.0000 </r>
       <r>    1.8882   -0.0000 </r>
       <r>    4.2136   -0.0000 </r>
       <r>    8.1300    0.0000 </r>
       <r>   12.6542    0.0000 </r>
       <r>   15.5615    0.0000 </r>
       <r>   17.6559    0.0000 </r>
       <r>   19.0017    0.0000 </r>
      </set>
      <set comment="kpoint 65">
       <r>  -45.8487    1.0000 </r>
       <r>    2.2403   -0.0000 </r>
       <r>    4.3712   -0.0000 </r>
       <r>    7.1797    0.0000 </r>
       <r>   13.4033    0.0000 </r>
       <r>   14.7165    0.0000 </r>
       <r>   16.7000    0.0000 </r>
       <r>   19.9696    0.0000 </r>
      </set>
      <set comment="kpoint 66">
       <r>  -45.8480    1.0000 </r>
       <r>    3.3647   -0.0000 </r>
       <r>    3.3647   -0.0000 </r>
       <r>    6.7574    0.0000 </r>
       <r>   13.8143    0.0000 </r>
       <r>   15.2802    0.0000 </r>
       <r>   15.2802    0.0000 </r>
       <r>   20.1715    0.0000 </r>
      </set>
      <set comment="kpoint 67">
       <r>  -45.8524    1.0000 </r>
       <r>    3.0789   -0.0000 </r>
       <r>    4.5809   -0.0000 </r>
       <r>    4.5809   -0.0000 </r>
       <r>    9.2019    0.0000 </r>
       <r>   23.7559    0.0000 </r>
       <r>   23.7559    0.0000 </r>
       <r>   25.1655    0.0000 </r>
      </set>
      <set comment="kpoint 68">
       <r>  -45.8576    1.0000 </r>
       <r>   -0.8668    1.0000 </r>
       <r>    9.7011    0.0000 </r>
       <r>    9.7012    0.0000 </r>
       <r>   12.1630    0.0000 </r>
       <r>   13.5262    0.0000 </r>
       <r>   21.1247    0.0000 </r>
       <r>   21.1247    0.0000 </r>
      </set>
      <set comment="kpoint 69">
       <r>  -45.8535    1.0000 </r>
       <r>   -0.0577    1.0000 </r>
       <r>    8.1302    0.0000 </r>
       <r>    8.8531    0.0000 </r>
       <r>   11.8054    0.0000 </r>
       <r>   13.4811    0.0000 </r>
       <r>   20.4112    0.0000 </r>
       <r>   20.9125    0.0000 </r>
      </set>
      <set comment="kpoint 70">
       <r>  -45.8501    1.0000 </r>
       <r>    0.9524   -0.0354 </r>
       <r>    6.2423    0.0000 </r>
       <r>    8.2791    0.0000 </r>
       <r>   11.9126    0.0000 </r>
       <r>   13.8981    0.0000 </r>
       <r>   18.3057    0.0000 </r>
       <r>   20.4095    0.0000 </r>
      </set>
      <set comment="kpoint 71">
       <r>  -45.8499    1.0000 </r>
       <r>    0.8691    0.0115 </r>
       <r>    7.0497    0.0000 </r>
       <r>    7.8928    0.0000 </r>
       <r>   11.5900    0.0000 </r>
       <r>   13.4180    0.0000 </r>
       <r>   18.2191    0.0000 </r>
       <r>   21.4103    0.0000 </r>
      </set>
      <set comment="kpoint 72">
       <r>  -45.8482    1.0000 </r>
       <r>    1.9876   -0.0000 </r>
       <r>    4.7230   -0.0000 </r>
       <r>    7.9902    0.0000 </r>
       <r>   11.9456    0.0000 </r>
       <r>   14.8422    0.0000 </r>
       <r>   16.5450    0.0000 </r>
       <r>   20.1375    0.0000 </r>
      </set>
      <set comment="kpoint 73">
       <r>  -45.8474    1.0000 </r>
       <r>    1.9701   -0.0000 </r>
       <r>    5.5088   -0.0000 </r>
       <r>    7.3730    0.0000 </r>
       <r>   11.9149    0.0000 </r>
       <r>   13.7313    0.0000 </r>
       <r>   16.2744    0.0000 </r>
       <r>   21.3044    0.0000 </r>
      </set>
      <set comment="kpoint 74">
       <r>  -45.8464    1.0000 </r>
       <r>    2.7688   -0.0000 </r>
       <r>    4.5158   -0.0000 </r>
       <r>    7.2195    0.0000 </r>
       <r>   12.0572    0.0000 </r>
       <r>   14.7029    0.0000 </r>
       <r>   14.7409    0.0000 </r>
       <r>   21.2356    0.0000 </r>
      </set>
      <set comment="kpoint 75">
       <r>  -45.8458    1.0000 </r>
       <r>    3.1304   -0.0000 </r>
       <r>    4.5175   -0.0000 </r>
       <r>    6.7148    0.0000 </r>
       <r>   12.6498    0.0000 </r>
       <r>   13.6001    0.0000 </r>
       <r>   14.6786    0.0000 </r>
       <r>   21.5823    0.0000 </r>
      </set>
      <set comment="kpoint 76">
       <r>  -45.8497    1.0000 </r>
       <r>    0.7749    0.2419 </r>
       <r>    8.0010    0.0000 </r>
       <r>    8.0010    0.0000 </r>
       <r>   10.3456    0.0000 </r>
       <r>   13.2435    0.0000 </r>
       <r>   18.2268    0.0000 </r>
       <r>   23.1387    0.0000 </r>
      </set>
      <set comment="kpoint 77">
       <r>  -45.8466    1.0000 </r>
       <r>    1.8223   -0.0000 </r>
       <r>    6.7066    0.0000 </r>
       <r>    7.4248    0.0000 </r>
       <r>   10.3335    0.0000 </r>
       <r>   13.1548    0.0000 </r>
       <r>   16.2417    0.0000 </r>
       <r>   23.2391    0.0000 </r>
      </set>
      <set comment="kpoint 78">
       <r>  -45.8449    1.0000 </r>
       <r>    2.9524   -0.0000 </r>
       <r>    5.2193   -0.0000 </r>
       <r>    7.1349    0.0000 </r>
       <r>   10.8060    0.0000 </r>
       <r>   13.2247    0.0000 </r>
       <r>   14.8535    0.0000 </r>
       <r>   23.0265    0.0000 </r>
      </set>
      <set comment="kpoint 79">
       <r>  -45.8443    1.0000 </r>
       <r>    2.9696   -0.0000 </r>
       <r>    5.8768   -0.0000 </r>
       <r>    6.7933    0.0000 </r>
       <r>   10.4013    0.0000 </r>
       <r>   12.6344    0.0000 </r>
       <r>   14.8738    0.0000 </r>
       <r>   23.7811    0.0000 </r>
      </set>
      <set comment="kpoint 80">
       <r>  -45.8435    1.0000 </r>
       <r>    3.9238   -0.0000 </r>
       <r>    4.9171   -0.0000 </r>
       <r>    6.5820    0.0000 </r>
       <r>   10.8892    0.0000 </r>
       <r>   12.0619    0.0000 </r>
       <r>   14.4484    0.0000 </r>
       <r>   23.8122    0.0000 </r>
      </set>
      <set comment="kpoint 81">
       <r>  -45.8438    1.0000 </r>
       <r>    2.9127   -0.0000 </r>
       <r>    6.8474    0.0000 </r>
       <r>    6.8474    0.0000 </r>
       <r>    9.1340    0.0000 </r>
       <r>   12.2672    0.0000 </r>
       <r>   14.9247    0.0000 </r>
       <r>   25.7246    0.0000 </r>
      </set>
      <set comment="kpoint 82">
       <r>  -45.8422    1.0000 </r>
       <r>    4.1373   -0.0000 </r>
       <r>    5.8661   -0.0000 </r>
       <r>    6.5570    0.0000 </r>
       <r>    9.4142    0.0000 </r>
       <r>   11.0959    0.0000 </r>
       <r>   14.4529    0.0000 </r>
       <r>   26.1198    0.0000 </r>
      </set>
      <set comment="kpoint 83">
       <r>  -45.8414    1.0000 </r>
       <r>    5.2876   -0.0000 </r>
       <r>    5.2876   -0.0000 </r>
       <r>    6.2818    0.0000 </r>
       <r>    9.8048    0.0000 </r>
       <r>    9.8048    0.0000 </r>
       <r>   14.3681    0.0000 </r>
       <r>   26.5511    0.0000 </r>
      </set>
      <set comment="kpoint 84">
       <r>  -45.8406    1.0000 </r>
       <r>    5.4120   -0.0000 </r>
       <r>    6.2663    0.0000 </r>
       <r>    6.2664    0.0000 </r>
       <r>    8.5281    0.0000 </r>
       <r>    9.3378    0.0000 </r>
       <r>   14.3541    0.0000 </r>
       <r>   28.6563    0.0000 </r>
      </set>
     </set>
     <set comment="spin 2">
      <set comment="kpoint 1">
       <r>  -45.8739    1.0000 </r>
       <r>   -2.9234    1.0000 </r>
       <r>   15.3283    0.0000 </r>
       <r>   15.3283    0.0000 </r>
       <r>   15.3284    0.0000 </r>
       <r>   20.1151    0.0000 </r>
       <r>   20.1151    0.0000 </r>
       <r>   20.1151    0.0000 </r>
      </set>
      <set comment="kpoint 2">
       <r>  -45.8728    1.0000 </r>
       <r>   -2.8109    1.0000 </r>
       <r>   14.5587    0.0000 </r>
       <r>   14.7817    0.0000 </r>
       <r>   15.1312    0.0000 </r>
       <r>   18.6318    0.0000 </r>
       <r>   18.8432    0.0000 </r>
       <r>   20.2152    0.0000 </r>
      </set>
      <set comment="kpoint 3">
       <r>  -45.8696    1.0000 </r>
       <r>   -2.4741    1.0000 </r>
       <r>   12.4691    0.0000 </r>
       <r>   13.7355    0.0000 </r>
       <r>   14.5955    0.0000 </r>
       <r>   17.3787    0.0000 </r>
       <r>   17.6839    0.0000 </r>
       <r>   19.9242    0.0000 </r>
      </set>
      <set comment="kpoint 4">
       <r>  -45.8651    1.0000 </r>
       <r>   -1.9129    1.0000 </r>
       <r>    9.9937    0.0000 </r>
       <r>   12.7292    0.0000 </r>
       <r>   13.9102    0.0000 </r>
       <r>   16.1832    0.0000 </r>
       <r>   17.4446    0.0000 </r>
       <r>   20.2540    0.0000 </r>
      </set>
      <set comment="kpoint 5">
       <r>  -45.8604    1.0000 </r>
       <r>   -1.1357    1.0000 </r>
       <r>    7.6496    0.0000 </r>
       <r>   11.9257    0.0000 </r>
       <r>   13.2773    0.0000 </r>
       <r>   15.2818    0.0000 </r>
       <r>   17.5039    0.0000 </r>
       <r>   21.0315    0.0000 </r>
      </set>
      <set comment="kpoint 6">
       <r>  -45.8564    1.0000 </r>
       <r>   -0.1853    1.0000 </r>
       <r>    5.6198   -0.0000 </r>
       <r>   11.3754    0.0000 </r>
       <r>   12.8136    0.0000 </r>
       <r>   14.6796    0.0000 </r>
       <r>   17.6879    0.0000 </r>
       <r>   22.1010    0.0000 </r>
      </set>
      <set comment="kpoint 7">
       <r>  -45.8542    1.0000 </r>
       <r>    0.7145    0.4824 </r>
       <r>    4.1725   -0.0000 </r>
       <r>   11.0970    0.0000 </r>
       <r>   12.5718    0.0000 </r>
       <r>   14.3782    0.0000 </r>
       <r>   17.8421    0.0000 </r>
       <r>   23.1483    0.0000 </r>
      </set>
      <set comment="kpoint 8">
       <r>  -45.8706    1.0000 </r>
       <r>   -2.5864    1.0000 </r>
       <r>   13.5662    0.0000 </r>
       <r>   13.5965    0.0000 </r>
       <r>   14.5163    0.0000 </r>
       <r>   17.8398    0.0000 </r>
       <r>   18.1129    0.0000 </r>
       <r>   19.9937    0.0000 </r>
      </set>
      <set comment="kpoint 9">
       <r>  -45.8668    1.0000 </r>
       <r>   -2.1365    1.0000 </r>
       <r>   11.2532    0.0000 </r>
       <r>   12.5453    0.0000 </r>
       <r>   13.6950    0.0000 </r>
       <r>   17.4647    0.0000 </r>
       <r>   17.5322    0.0000 </r>
       <r>   20.1132    0.0000 </r>
      </set>
      <set comment="kpoint 10">
       <r>  -45.8622    1.0000 </r>
       <r>   -1.4640    1.0000 </r>
       <r>    8.8229    0.0000 </r>
       <r>   11.6705    0.0000 </r>
       <r>   12.9072    0.0000 </r>
       <r>   16.7883    0.0000 </r>
       <r>   17.5275    0.0000 </r>
       <r>   20.6439    0.0000 </r>
      </set>
      <set comment="kpoint 11">
       <r>  -45.8578    1.0000 </r>
       <r>   -0.5868    1.0000 </r>
       <r>    6.6197    0.0000 </r>
       <r>   11.0198    0.0000 </r>
       <r>   12.2885    0.0000 </r>
       <r>   16.1956    0.0000 </r>
       <r>   17.7401    0.0000 </r>
       <r>   21.5118    0.0000 </r>
      </set>
      <set comment="kpoint 12">
       <r>  -45.8547    1.0000 </r>
       <r>    0.4030    1.0260 </r>
       <r>    4.8167   -0.0000 </r>
       <r>   10.6216    0.0000 </r>
       <r>   11.9012    0.0000 </r>
       <r>   15.8154    0.0000 </r>
       <r>   17.9937    0.0000 </r>
       <r>   22.5728    0.0000 </r>
      </set>
      <set comment="kpoint 13">
       <r>  -45.8536    1.0000 </r>
       <r>    1.0010   -0.0297 </r>
       <r>    3.9451   -0.0000 </r>
       <r>   10.4877    0.0000 </r>
       <r>   11.7699    0.0000 </r>
       <r>   15.6855    0.0000 </r>
       <r>   18.1087    0.0000 </r>
       <r>   23.3763    0.0000 </r>
      </set>
      <set comment="kpoint 14">
       <r>  -45.8628    1.0000 </r>
       <r>   -1.5731    1.0000 </r>
       <r>    9.7801    0.0000 </r>
       <r>   10.7641    0.0000 </r>
       <r>   12.8646    0.0000 </r>
       <r>   17.4709    0.0000 </r>
       <r>   17.9526    0.0000 </r>
       <r>   20.6467    0.0000 </r>
      </set>
      <set comment="kpoint 15">
       <r>  -45.8586    1.0000 </r>
       <r>   -0.7890    1.0000 </r>
       <r>    7.6923    0.0000 </r>
       <r>    9.7936    0.0000 </r>
       <r>   12.2130    0.0000 </r>
       <r>   17.5259    0.0000 </r>
       <r>   18.1555    0.0000 </r>
       <r>   21.3755    0.0000 </r>
      </set>
      <set comment="kpoint 16">
       <r>  -45.8551    1.0000 </r>
       <r>    0.1823    1.0006 </r>
       <r>    5.7072   -0.0000 </r>
       <r>    9.2331    0.0000 </r>
       <r>   11.7530    0.0000 </r>
       <r>   17.4245    0.0000 </r>
       <r>   18.5340    0.0000 </r>
       <r>   22.1136    0.0000 </r>
      </set>
      <set comment="kpoint 17">
       <r>  -45.8531    1.0000 </r>
       <r>    1.1392   -0.0049 </r>
       <r>    4.2251   -0.0000 </r>
       <r>    8.9589    0.0000 </r>
       <r>   11.5159    0.0000 </r>
       <r>   17.3119    0.0000 </r>
       <r>   18.9304    0.0000 </r>
       <r>   22.6770    0.0000 </r>
      </set>
      <set comment="kpoint 18">
       <r>  -45.8552    1.0000 </r>
       <r>    0.1044    1.0001 </r>
       <r>    6.3293    0.0000 </r>
       <r>    8.3868    0.0000 </r>
       <r>   11.7536    0.0000 </r>
       <r>   17.9812    0.0000 </r>
       <r>   18.8187    0.0000 </r>
       <r>   22.5560    0.0000 </r>
      </set>
      <set comment="kpoint 19">
       <r>  -45.8529    1.0000 </r>
       <r>    1.1600   -0.0033 </r>
       <r>    4.7747   -0.0000 </r>
       <r>    7.7216    0.0000 </r>
       <r>   11.4683    0.0000 </r>
       <r>   18.3205    0.0000 </r>
       <r>   19.4693    0.0000 </r>
       <r>   22.3736    0.0000 </r>
      </set>
      <set comment="kpoint 20">
       <r>  -45.8520    1.0000 </r>
       <r>    1.8952   -0.0000 </r>
       <r>    3.8377   -0.0000 </r>
       <r>    7.5308    0.0000 </r>
       <r>   11.3710    0.0000 </r>
       <r>   18.4100    0.0000 </r>
       <r>   20.1056    0.0000 </r>
       <r>   21.4106    0.0000 </r>
      </set>
      <set comment="kpoint 21">
       <r>  -45.8516    1.0000 </r>
       <r>    2.2840   -0.0000 </r>
       <r>    3.6776   -0.0000 </r>
       <r>    6.9377    0.0000 </r>
       <r>   11.3264    0.0000 </r>
       <r>   19.2803    0.0000 </r>
       <r>   19.9475    0.0000 </r>
       <r>   20.9419    0.0000 </r>
      </set>
      <set comment="kpoint 22">
       <r>  -45.8677    1.0000 </r>
       <r>   -2.2496    1.0000 </r>
       <r>   12.5275    0.0000 </r>
       <r>   12.5275    0.0000 </r>
       <r>   12.6888    0.0000 </r>
       <r>   18.1317    0.0000 </r>
       <r>   18.1317    0.0000 </r>
       <r>   21.5086    0.0000 </r>
      </set>
      <set comment="kpoint 23">
       <r>  -45.8637    1.0000 </r>
       <r>   -1.6875    1.0000 </r>
       <r>   10.0723    0.0000 </r>
       <r>   11.5080    0.0000 </r>
       <r>   11.8616    0.0000 </r>
       <r>   18.2371    0.0000 </r>
       <r>   18.4362    0.0000 </r>
       <r>   21.3539    0.0000 </r>
      </set>
      <set comment="kpoint 24">
       <r>  -45.8594    1.0000 </r>
       <r>   -0.9060    1.0000 </r>
       <r>    7.7321    0.0000 </r>
       <r>   10.6962    0.0000 </r>
       <r>   11.2151    0.0000 </r>
       <r>   18.0293    0.0000 </r>
       <r>   18.6611    0.0000 </r>
       <r>   21.6843    0.0000 </r>
      </set>
      <set comment="kpoint 25">
       <r>  -45.8558    1.0000 </r>
       <r>    0.0590    1.0000 </r>
       <r>    5.6939   -0.0000 </r>
       <r>   10.1409    0.0000 </r>
       <r>   10.7695    0.0000 </r>
       <r>   17.7147    0.0000 </r>
       <r>   18.8901    0.0000 </r>
       <r>   22.5843    0.0000 </r>
      </set>
      <set comment="kpoint 26">
       <r>  -45.8538    1.0000 </r>
       <r>    0.9984   -0.0302 </r>
       <r>    4.2103   -0.0000 </r>
       <r>    9.8601    0.0000 </r>
       <r>   10.5426    0.0000 </r>
       <r>   17.5169    0.0000 </r>
       <r>   19.0618    0.0000 </r>
       <r>   23.5843    0.0000 </r>
      </set>
      <set comment="kpoint 27">
       <r>  -45.8717    1.0000 </r>
       <r>   -2.6984    1.0000 </r>
       <r>   14.1656    0.0000 </r>
       <r>   14.1656    0.0000 </r>
       <r>   14.8440    0.0000 </r>
       <r>   17.6127    0.0000 </r>
       <r>   19.2900    0.0000 </r>
       <r>   19.2900    0.0000 </r>
      </set>
      <set comment="kpoint 28">
       <r>  -45.8599    1.0000 </r>
       <r>   -1.0126    1.0000 </r>
       <r>    8.6717    0.0000 </r>
       <r>    9.6585    0.0000 </r>
       <r>   11.1487    0.0000 </r>
       <r>   19.0301    0.0000 </r>
       <r>   19.1504    0.0000 </r>
       <r>   22.1131    0.0000 </r>
      </set>
      <set comment="kpoint 29">
       <r>  -45.8564    1.0000 </r>
       <r>   -0.1220    1.0000 </r>
       <r>    6.7015    0.0000 </r>
       <r>    8.7627    0.0000 </r>
       <r>   10.6580    0.0000 </r>
       <r>   19.3501    0.0000 </r>
       <r>   19.7169    0.0000 </r>
       <r>   22.7011    0.0000 </r>
      </set>
      <set comment="kpoint 30">
       <r>  -45.8540    1.0000 </r>
       <r>    0.9158   -0.0277 </r>
       <r>    4.9045   -0.0000 </r>
       <r>    8.3087    0.0000 </r>
       <r>   10.3601    0.0000 </r>
       <r>   19.3452    0.0000 </r>
       <r>   20.1868    0.0000 </r>
       <r>   23.5336    0.0000 </r>
      </set>
      <set comment="kpoint 31">
       <r>  -45.8531    1.0000 </r>
       <r>    1.5992   -0.0000 </r>
       <r>    3.9604   -0.0000 </r>
       <r>    8.1615    0.0000 </r>
       <r>   10.2602    0.0000 </r>
       <r>   19.3135    0.0000 </r>
       <r>   20.3888    0.0000 </r>
       <r>   24.2779    0.0000 </r>
      </set>
      <set comment="kpoint 32">
       <r>  -45.8686    1.0000 </r>
       <r>   -2.3601    1.0000 </r>
       <r>   12.4129    0.0000 </r>
       <r>   13.0479    0.0000 </r>
       <r>   14.4295    0.0000 </r>
       <r>   16.4727    0.0000 </r>
       <r>   18.3130    0.0000 </r>
       <r>   19.4976    0.0000 </r>
      </set>
      <set comment="kpoint 33">
       <r>  -45.8540    1.0000 </r>
       <r>    0.8737    0.0058 </r>
       <r>    5.4595   -0.0000 </r>
       <r>    7.4522    0.0000 </r>
       <r>   10.3156    0.0000 </r>
       <r>   20.3451    0.0000 </r>
       <r>   20.5085    0.0000 </r>
       <r>   23.8366    0.0000 </r>
      </set>
      <set comment="kpoint 34">
       <r>  -45.8527    1.0000 </r>
       <r>    1.9566   -0.0000 </r>
       <r>    4.1041   -0.0000 </r>
       <r>    6.9308    0.0000 </r>
       <r>   10.1446    0.0000 </r>
       <r>   20.6412    0.0000 </r>
       <r>   21.4004    0.0000 </r>
       <r>   23.6834    0.0000 </r>
      </set>
      <set comment="kpoint 35">
       <r>  -45.8642    1.0000 </r>
       <r>   -1.7967    1.0000 </r>
       <r>   10.0285    0.0000 </r>
       <r>   12.0036    0.0000 </r>
       <r>   13.8401    0.0000 </r>
       <r>   16.3012    0.0000 </r>
       <r>   17.1918    0.0000 </r>
       <r>   20.0317    0.0000 </r>
      </set>
      <set comment="kpoint 36">
       <r>  -45.8649    1.0000 </r>
       <r>   -1.9073    1.0000 </r>
       <r>   11.0462    0.0000 </r>
       <r>   11.5059    0.0000 </r>
       <r>   14.0244    0.0000 </r>
       <r>   15.6296    0.0000 </r>
       <r>   18.2294    0.0000 </r>
       <r>   19.9640    0.0000 </r>
      </set>
      <set comment="kpoint 37">
       <r>  -45.8522    1.0000 </r>
       <r>    3.0891   -0.0000 </r>
       <r>    3.0891   -0.0000 </r>
       <r>    6.4279    0.0000 </r>
       <r>   10.0741    0.0000 </r>
       <r>   21.4101    0.0000 </r>
       <r>   22.3024    0.0000 </r>
       <r>   22.3024    0.0000 </r>
      </set>
      <set comment="kpoint 38">
       <r>  -45.8595    1.0000 </r>
       <r>   -1.0157    1.0000 </r>
       <r>    7.7099    0.0000 </r>
       <r>   11.1795    0.0000 </r>
       <r>   13.2439    0.0000 </r>
       <r>   16.3199    0.0000 </r>
       <r>   16.5816    0.0000 </r>
       <r>   20.7522    0.0000 </r>
      </set>
      <set comment="kpoint 39">
       <r>  -45.8604    1.0000 </r>
       <r>   -1.2294    1.0000 </r>
       <r>    8.8704    0.0000 </r>
       <r>   10.4867    0.0000 </r>
       <r>   13.4955    0.0000 </r>
       <r>   15.5998    0.0000 </r>
       <r>   17.7964    0.0000 </r>
       <r>   20.6485    0.0000 </r>
      </set>
      <set comment="kpoint 40">
       <r>  -45.8556    1.0000 </r>
       <r>   -0.0580    1.0000 </r>
       <r>    5.6846   -0.0000 </r>
       <r>   10.6181    0.0000 </r>
       <r>   12.7981    0.0000 </r>
       <r>   15.7318    0.0000 </r>
       <r>   17.0244    0.0000 </r>
       <r>   21.5521    0.0000 </r>
      </set>
      <set comment="kpoint 41">
       <r>  -45.8562    1.0000 </r>
       <r>   -0.3426    1.0000 </r>
       <r>    6.7233    0.0000 </r>
       <r>    9.8057    0.0000 </r>
       <r>   12.9681    0.0000 </r>
       <r>   15.9484    0.0000 </r>
       <r>   17.4575    0.0000 </r>
       <r>   21.2257    0.0000 </r>
      </set>
      <set comment="kpoint 42">
       <r>  -45.8565    1.0000 </r>
       <r>   -0.4383    1.0000 </r>
       <r>    7.4653    0.0000 </r>
       <r>    9.0251    0.0000 </r>
       <r>   13.1900    0.0000 </r>
       <r>   15.5123    0.0000 </r>
       <r>   18.1804    0.0000 </r>
       <r>   21.7450    0.0000 </r>
      </set>
      <set comment="kpoint 43">
       <r>  -45.8534    1.0000 </r>
       <r>    0.8573    0.0285 </r>
       <r>    4.2267   -0.0000 </r>
       <r>   10.3347    0.0000 </r>
       <r>   12.5647    0.0000 </r>
       <r>   15.4364    0.0000 </r>
       <r>   17.3780    0.0000 </r>
       <r>   22.3134    0.0000 </r>
      </set>
      <set comment="kpoint 44">
       <r>  -45.8532    1.0000 </r>
       <r>    0.6687    0.6721 </r>
       <r>    4.9241   -0.0000 </r>
       <r>    9.3956    0.0000 </r>
       <r>   12.6157    0.0000 </r>
       <r>   16.2028    0.0000 </r>
       <r>   17.5361    0.0000 </r>
       <r>   21.2131    0.0000 </r>
      </set>
      <set comment="kpoint 45">
       <r>  -45.8531    1.0000 </r>
       <r>    0.5499    0.9906 </r>
       <r>    5.7333   -0.0000 </r>
       <r>    8.2742    0.0000 </r>
       <r>   12.8594    0.0000 </r>
       <r>   15.9096    0.0000 </r>
       <r>   18.3693    0.0000 </r>
       <r>   21.4215    0.0000 </r>
      </set>
      <set comment="kpoint 46">
       <r>  -45.8522    1.0000 </r>
       <r>    1.2973   -0.0001 </r>
       <r>    4.0290   -0.0000 </r>
       <r>    9.2584    0.0000 </r>
       <r>   12.4941    0.0000 </r>
       <r>   16.2377    0.0000 </r>
       <r>   17.7551    0.0000 </r>
       <r>   20.8898    0.0000 </r>
      </set>
      <set comment="kpoint 47">
       <r>  -45.8513    1.0000 </r>
       <r>    1.5581   -0.0000 </r>
       <r>    4.2759   -0.0000 </r>
       <r>    7.9554    0.0000 </r>
       <r>   12.6569    0.0000 </r>
       <r>   16.3400    0.0000 </r>
       <r>   18.7995    0.0000 </r>
       <r>   19.9007    0.0000 </r>
      </set>
      <set comment="kpoint 48">
       <r>  -45.8510    1.0000 </r>
       <r>    1.6264   -0.0000 </r>
       <r>    4.5539   -0.0000 </r>
       <r>    7.3109    0.0000 </r>
       <r>   12.7586    0.0000 </r>
       <r>   16.4117    0.0000 </r>
       <r>   18.5509    0.0000 </r>
       <r>   20.2060    0.0000 </r>
      </set>
      <set comment="kpoint 49">
       <r>  -45.8502    1.0000 </r>
       <r>    2.4854   -0.0000 </r>
       <r>    3.6212   -0.0000 </r>
       <r>    7.0200    0.0000 </r>
       <r>   12.7106    0.0000 </r>
       <r>   16.9281    0.0000 </r>
       <r>   18.2151    0.0000 </r>
       <r>   19.7512    0.0000 </r>
      </set>
      <set comment="kpoint 50">
       <r>  -45.8569    1.0000 </r>
       <r>   -0.2251    1.0000 </r>
       <r>    7.8165    0.0000 </r>
       <r>    7.8165    0.0000 </r>
       <r>   10.2612    0.0000 </r>
       <r>   20.3030    0.0000 </r>
       <r>   20.3030    0.0000 </r>
       <r>   24.2139    0.0000 </r>
      </set>
      <set comment="kpoint 51">
       <r>  -45.8544    1.0000 </r>
       <r>    0.7724    0.2508 </r>
       <r>    5.8807   -0.0000 </r>
       <r>    7.2393    0.0000 </r>
       <r>    9.8465    0.0000 </r>
       <r>   21.0023    0.0000 </r>
       <r>   21.2534    0.0000 </r>
       <r>   24.6419    0.0000 </r>
      </set>
      <set comment="kpoint 52">
       <r>  -45.8530    1.0000 </r>
       <r>    1.8327   -0.0000 </r>
       <r>    4.3197   -0.0000 </r>
       <r>    6.9492    0.0000 </r>
       <r>    9.6591    0.0000 </r>
       <r>   21.2796    0.0000 </r>
       <r>   21.7716    0.0000 </r>
       <r>   25.2824    0.0000 </r>
      </set>
      <set comment="kpoint 53">
       <r>  -45.8656    1.0000 </r>
       <r>   -2.0182    1.0000 </r>
       <r>   11.8668    0.0000 </r>
       <r>   11.8668    0.0000 </r>
       <r>   14.0563    0.0000 </r>
       <r>   14.5857    0.0000 </r>
       <r>   19.7637    0.0000 </r>
       <r>   19.7637    0.0000 </r>
      </set>
      <set comment="kpoint 54">
       <r>  -45.8530    1.0000 </r>
       <r>    1.8723   -0.0000 </r>
       <r>    4.8745   -0.0000 </r>
       <r>    6.0869   -0.0000 </r>
       <r>    9.5092    0.0000 </r>
       <r>   22.1202    0.0000 </r>
       <r>   22.5901    0.0000 </r>
       <r>   25.6433    0.0000 </r>
      </set>
      <set comment="kpoint 55">
       <r>  -45.8525    1.0000 </r>
       <r>    2.7939   -0.0000 </r>
       <r>    3.8671   -0.0000 </r>
       <r>    5.8006   -0.0000 </r>
       <r>    9.4103    0.0000 </r>
       <r>   22.5040    0.0000 </r>
       <r>   23.3311    0.0000 </r>
       <r>   24.9424    0.0000 </r>
      </set>
      <set comment="kpoint 56">
       <r>  -45.8614    1.0000 </r>
       <r>   -1.4480    1.0000 </r>
       <r>   10.0775    0.0000 </r>
       <r>   10.7914    0.0000 </r>
       <r>   13.5805    0.0000 </r>
       <r>   14.1201    0.0000 </r>
       <r>   19.2190    0.0000 </r>
       <r>   20.3627    0.0000 </r>
      </set>
      <set comment="kpoint 57">
       <r>  -45.8570    1.0000 </r>
       <r>   -0.6561    1.0000 </r>
       <r>    7.8879    0.0000 </r>
       <r>    9.9511    0.0000 </r>
       <r>   13.0375    0.0000 </r>
       <r>   14.6065    0.0000 </r>
       <r>   18.4164    0.0000 </r>
       <r>   20.8902    0.0000 </r>
      </set>
      <set comment="kpoint 58">
       <r>  -45.8573    1.0000 </r>
       <r>   -0.7602    1.0000 </r>
       <r>    8.7898    0.0000 </r>
       <r>    9.5009    0.0000 </r>
       <r>   13.3555    0.0000 </r>
       <r>   13.6082    0.0000 </r>
       <r>   19.3269    0.0000 </r>
       <r>   21.2782    0.0000 </r>
      </set>
      <set comment="kpoint 59">
       <r>  -45.8533    1.0000 </r>
       <r>    0.3227    1.0097 </r>
       <r>    5.8878   -0.0000 </r>
       <r>    9.3812    0.0000 </r>
       <r>   12.6535    0.0000 </r>
       <r>   15.3886    0.0000 </r>
       <r>   17.8507    0.0000 </r>
       <r>   20.4443    0.0000 </r>
      </set>
      <set comment="kpoint 60">
       <r>  -45.8533    1.0000 </r>
       <r>    0.1442    1.0002 </r>
       <r>    6.9152    0.0000 </r>
       <r>    8.7020    0.0000 </r>
       <r>   13.0317    0.0000 </r>
       <r>   14.0610    0.0000 </r>
       <r>   18.9321    0.0000 </r>
       <r>   20.8099    0.0000 </r>
      </set>
      <set comment="kpoint 61">
       <r>  -45.8512    1.0000 </r>
       <r>    1.2839   -0.0002 </r>
       <r>    4.4012   -0.0000 </r>
       <r>    9.0941    0.0000 </r>
       <r>   12.4544    0.0000 </r>
       <r>   16.1788    0.0000 </r>
       <r>   17.5635    0.0000 </r>
       <r>   19.3748    0.0000 </r>
      </set>
      <set comment="kpoint 62">
       <r>  -45.8506    1.0000 </r>
       <r>    1.1950   -0.0016 </r>
       <r>    5.1539   -0.0000 </r>
       <r>    8.2713    0.0000 </r>
       <r>   12.7517    0.0000 </r>
       <r>   14.9369    0.0000 </r>
       <r>   18.3183    0.0000 </r>
       <r>   19.3727    0.0000 </r>
      </set>
      <set comment="kpoint 63">
       <r>  -45.8503    1.0000 </r>
       <r>    1.1526   -0.0038 </r>
       <r>    5.7014   -0.0000 </r>
       <r>    7.6321    0.0000 </r>
       <r>   13.5485    0.0000 </r>
       <r>   13.8148    0.0000 </r>
       <r>   18.1095    0.0000 </r>
       <r>   20.1354    0.0000 </r>
      </set>
      <set comment="kpoint 64">
       <r>  -45.8496    1.0000 </r>
       <r>    1.8882   -0.0000 </r>
       <r>    4.2136   -0.0000 </r>
       <r>    8.1300    0.0000 </r>
       <r>   12.6542    0.0000 </r>
       <r>   15.5615    0.0000 </r>
       <r>   17.6559    0.0000 </r>
       <r>   19.0017    0.0000 </r>
      </set>
      <set comment="kpoint 65">
       <r>  -45.8487    1.0000 </r>
       <r>    2.2403   -0.0000 </r>
       <r>    4.3713   -0.0000 </r>
       <r>    7.1797    0.0000 </r>
       <r>   13.4033    0.0000 </r>
       <r>   14.7165    0.0000 </r>
       <r>   16.7000    0.0000 </r>
       <r>   19.9695    0.0000 </r>
      </set>
      <set comment="kpoint 66">
       <r>  -45.8480    1.0000 </r>
       <r>    3.3647   -0.0000 </r>
       <r>    3.3647   -0.0000 </r>
       <r>    6.7574    0.0000 </r>
       <r>   13.8143    0.0000 </r>
       <r>   15.2802    0.0000 </r>
       <r>   15.2802    0.0000 </r>
       <r>   20.1716    0.0000 </r>
      </set>
      <set comment="kpoint 67">
       <r>  -45.8524    1.0000 </r>
       <r>    3.0789   -0.0000 </r>
       <r>    4.5809   -0.0000 </r>
       <r>    4.5809   -0.0000 </r>
       <r>    9.2019    0.0000 </r>
       <r>   23.7559    0.0000 </r>
       <r>   23.7559    0.0000 </r>
       <r>   25.1655    0.0000 </r>
      </set>
      <set comment="kpoint 68">
       <r>  -45.8576    1.0000 </r>
       <r>   -0.8668    1.0000 </r>
       <r>    9.7011    0.0000 </r>
[...]
        <r>  0.0000  0.4221  0.6053  0.0810  0.0000  0.0000  0.0000  0.0000  0.0000 </r>
       </set>
       <set comment="band 7">
        <r>  0.0000  0.3169  0.1337  0.6580  0.0000  0.0000  0.0000  0.0000  0.0000 </r>
       </set>
       <set comment="band 8">
        <r>  0.0095  0.4102  0.4103  0.4103  0.0000  0.0000  0.0000  0.0000  0.0000 </r>
       </set>
      </set>
      <set comment="kpoint 68">
       <set comment="band 1">
        <r>  0.9893  0.0000  0.0000  0.0000  0.0000  0.0000  0.0000  0.0000  0.0000 </r>
       </set>
       <set comment="band 2">
        <r>  0.0601  0.0000  0.0000  0.0344  0.0000  0.0000  0.0000  0.0000  0.0000 </r>
       </set>
       <set comment="band 3">
        <r>  0.0000  0.1532  0.1532  0.0000  0.0000  0.0000  0.0000  0.0000  0.0000 </r>
       </set>
       <set comment="band 4">
        <r>  0.0000  0.1532  0.1532  0.0000  0.0000  0.0000  0.0000  0.0000  0.0000 </r>
       </set>
       <set comment="band 5">
        <r>  0.0000  0.0000  0.0000  0.0000  0.0000  0.0000  0.0000  0.0000  0.0000 </r>
       </set>
       <set comment="band 6">
        <r>  0.1391  0.0000  0.0000  0.2996  0.0000  0.0000  0.0000  0.0000  0.0000 </r>
       </set>
       <set comment="band 7">
        <r>  0.0000  0.2238  0.2240  0.0000  0.0000  0.0000  0.0000  0.0000  0.0000 </r>
       </set>
       <set comment="band 8">
        <r>  0.0000  0.2240  0.2238  0.0000  0.0000  0.0000  0.0000  0.0000  0.0000 </r>
       </set>
      </set>
      <set comment="kpoint 69">
       <set comment="band 1">
        <r>  0.9896  0.0000  0.0000  0.0000  0.0000  0.0000  0.0000  0.0000  0.0000 </r>
       </set>
       <set comment="band 2">
        <r>  0.0491  0.0014  0.0000  0.0475  0.0000  0.0000  0.0000  0.0000  0.0000 </r>
       </set>
       <set comment="band 3">
        <r>  0.0106  0.2083  0.0000  0.0017  0.0000  0.0000  0.0000  0.0000  0.0000 </r>
       </set>
       <set comment="band 4">
        <r>  0.0000  0.0000  0.2834  0.0000  0.0000  0.0000  0.0000  0.0000  0.0000 </r>
       </set>
       <set comment="band 5">
        <r>  0.0097  0.0374  0.0000  0.0060  0.0000  0.0000  0.0000  0.0000  0.0000 </r>
       </set>
       <set comment="band 6">
        <r>  0.1464  0.0582  0.0000  0.2012  0.0000  0.0000  0.0000  0.0000  0.0000 </r>
       </set>
       <set comment="band 7">
        <r>  0.0059  0.0286  0.0000  0.3558  0.0000  0.0000  0.0000  0.0000  0.0000 </r>
       </set>
       <set comment="band 8">
        <r>  0.0000  0.0000  0.3163  0.0000  0.0000  0.0000  0.0000  0.0000  0.0000 </r>
       </set>
      </set>
      <set comment="kpoint 70">
       <set comment="band 1">
        <r>  0.9898  0.0000  0.0000  0.0000  0.0000  0.0000  0.0000  0.0000  0.0000 </r>
       </set>
       <set comment="band 2">
        <r>  0.0338  0.0071  0.0000  0.0627  0.0000  0.0000  0.0000  0.0000  0.0000 </r>
       </set>
       <set comment="band 3">
        <r>  0.0281  0.1334  0.0000  0.0002  0.0000  0.0000  0.0000  0.0000  0.0000 </r>
       </set>
       <set comment="band 4">
        <r>  0.0000  0.0000  0.2708  0.0000  0.0000  0.0000  0.0000  0.0000  0.0000 </r>
       </set>
       <set comment="band 5">
        <r>  0.0598  0.0118  0.0000  0.0224  0.0000  0.0000  0.0000  0.0000  0.0000 </r>
       </set>
       <set comment="band 6">
        <r>  0.0955  0.1894  0.0000  0.1170  0.0000  0.0000  0.0000  0.0000  0.0000 </r>
       </set>
       <set comment="band 7">
        <r>  0.0000  0.0068  0.0000  0.3409  0.0000  0.0000  0.0000  0.0000  0.0000 </r>
       </set>
       <set comment="band 8">
        <r>  0.0000  0.0000  0.2684  0.0000  0.0000  0.0000  0.0000  0.0000  0.0000 </r>
       </set>
      </set>
      <set comment="kpoint 71">
       <set comment="band 1">
        <r>  0.9898  0.0000  0.0000  0.0000  0.0000  0.0000  0.0000  0.0000  0.0000 </r>
       </set>
       <set comment="band 2">
        <r>  0.0374  0.0016  0.0016  0.0624  0.0000  0.0000  0.0000  0.0000  0.0000 </r>
       </set>
       <set comment="band 3">
        <r>  0.0000  0.0950  0.0950  0.0000  0.0000  0.0000  0.0000  0.0000  0.0000 </r>
       </set>
       <set comment="band 4">
        <r>  0.0256  0.1099  0.1099  0.0011  0.0000  0.0000  0.0000  0.0000  0.0000 </r>
       </set>
       <set comment="band 5">
        <r>  0.0000  0.0390  0.0390  0.0000  0.0000  0.0000  0.0000  0.0000  0.0000 </r>
       </set>
       <set comment="band 6">
        <r>  0.1653  0.0404  0.0404  0.1228  0.0000  0.0000  0.0000  0.0000  0.0000 </r>
       </set>
       <set comment="band 7">
        <r>  0.0008  0.0053  0.0053  0.3589  0.0000  0.0000  0.0000  0.0000  0.0000 </r>
       </set>
       <set comment="band 8">
        <r>  0.0359  0.1127  0.1127  0.0276  0.0000  0.0000  0.0000  0.0000  0.0000 </r>
       </set>
      </set>
      <set comment="kpoint 72">
       <set comment="band 1">
        <r>  0.9899  0.0000  0.0000  0.0000  0.0000  0.0000  0.0000  0.0000  0.0000 </r>
       </set>
       <set comment="band 2">
        <r>  0.0095  0.0295  0.0000  0.0732  0.0000  0.0000  0.0000  0.0000  0.0000 </r>
       </set>
       <set comment="band 3">
        <r>  0.0532  0.0735  0.0000  0.0062  0.0000  0.0000  0.0000  0.0000  0.0000 </r>
       </set>
       <set comment="band 4">
        <r>  0.0000  0.0000  0.2650  0.0000  0.0000  0.0000  0.0000  0.0000  0.0000 </r>
       </set>
       <set comment="band 5">
        <r>  0.0996  0.0010  0.0000  0.0160  0.0000  0.0000  0.0000  0.0000  0.0000 </r>
       </set>
       <set comment="band 6">
        <r>  0.0489  0.2957  0.0000  0.1097  0.0000  0.0000  0.0000  0.0000  0.0000 </r>
       </set>
       <set comment="band 7">
        <r>  0.0029  0.0000  0.0000  0.2606  0.0000  0.0000  0.0000  0.0000  0.0000 </r>
       </set>
       <set comment="band 8">
        <r>  0.0000  0.0000  0.2534  0.0000  0.0000  0.0000  0.0000  0.0000  0.0000 </r>
       </set>
      </set>
      <set comment="kpoint 73">
       <set comment="band 1">
        <r>  0.9899  0.0000  0.0000  0.0000  0.0000  0.0000  0.0000  0.0000  0.0000 </r>
       </set>
       <set comment="band 2">
        <r>  0.0210  0.0100  0.0016  0.0787  0.0000  0.0000  0.0000  0.0000  0.0000 </r>
       </set>
       <set comment="band 3">
        <r>  0.0152  0.1110  0.0262  0.0006  0.0000  0.0000  0.0000  0.0000  0.0000 </r>
       </set>
       <set comment="band 4">
        <r>  0.0333  0.0190  0.1794  0.0000  0.0000  0.0000  0.0000  0.0000  0.0000 </r>
       </set>
       <set comment="band 5">
        <r>  0.0282  0.0217  0.0488  0.0031  0.0000  0.0000  0.0000  0.0000  0.0000 </r>
       </set>
       <set comment="band 6">
        <r>  0.1207  0.1581  0.0193  0.0534  0.0000  0.0000  0.0000  0.0000  0.0000 </r>
       </set>
       <set comment="band 7">
        <r>  0.0141  0.0085  0.0040  0.3224  0.0000  0.0000  0.0000  0.0000  0.0000 </r>
       </set>
       <set comment="band 8">
        <r>  0.0539  0.0166  0.1692  0.0068  0.0000  0.0000  0.0000  0.0000  0.0000 </r>
       </set>
      </set>
      <set comment="kpoint 74">
       <set comment="band 1">
        <r>  0.9900  0.0000  0.0000  0.0000  0.0000  0.0000  0.0000  0.0000  0.0000 </r>
       </set>
       <set comment="band 2">
        <r>  0.0000  0.0599  0.0000  0.0599  0.0000  0.0000  0.0000  0.0000  0.0000 </r>
       </set>
       <set comment="band 3">
        <r>  0.0375  0.0392  0.0188  0.0392  0.0000  0.0000  0.0000  0.0000  0.0000 </r>
       </set>
       <set comment="band 4">
        <r>  0.0338  0.0032  0.1884  0.0032  0.0000  0.0000  0.0000  0.0000  0.0000 </r>
       </set>
       <set comment="band 5">
        <r>  0.0614  0.0000  0.0551  0.0000  0.0000  0.0000  0.0000  0.0000  0.0000 </r>
       </set>
       <set comment="band 6">
        <r>  0.0000  0.0710  0.0000  0.0710  0.0000  0.0000  0.0000  0.0000  0.0000 </r>
       </set>
       <set comment="band 7">
        <r>  0.1000  0.2118  0.0135  0.2118  0.0000  0.0000  0.0000  0.0000  0.0000 </r>
       </set>
       <set comment="band 8">
        <r>  0.0571  0.0001  0.1783  0.0001  0.0000  0.0000  0.0000  0.0000  0.0000 </r>
       </set>
      </set>
      <set comment="kpoint 75">
       <set comment="band 1">
        <r>  0.9900  0.0000  0.0000  0.0000  0.0000  0.0000  0.0000  0.0000  0.0000 </r>
       </set>
       <set comment="band 2">
        <r>  0.0062  0.0120  0.0120  0.0927  0.0000  0.0000  0.0000  0.0000  0.0000 </r>
       </set>
       <set comment="band 3">
        <r>  0.0000  0.0698  0.0698  0.0000  0.0000  0.0000  0.0000  0.0000  0.0000 </r>
       </set>
       <set comment="band 4">
        <r>  0.0749  0.0594  0.0594  0.0096  0.0000  0.0000  0.0000  0.0000  0.0000 </r>
       </set>
       <set comment="band 5">
        <r>  0.0000  0.0580  0.0580  0.0000  0.0000  0.0000  0.0000  0.0000  0.0000 </r>
       </set>
       <set comment="band 6">
        <r>  0.0708  0.0825  0.0825  0.0002  0.0000  0.0000  0.0000  0.0000  0.0000 </r>
       </set>
       <set comment="band 7">
        <r>  0.0854  0.0379  0.0379  0.2769  0.0000  0.0000  0.0000  0.0000  0.0000 </r>
       </set>
       <set comment="band 8">
        <r>  0.1107  0.0405  0.0407  0.0010  0.0000  0.0000  0.0000  0.0000  0.0000 </r>
       </set>
      </set>
      <set comment="kpoint 76">
       <set comment="band 1">
        <r>  0.9898  0.0000  0.0000  0.0000  0.0000  0.0000  0.0000  0.0000  0.0000 </r>
       </set>
       <set comment="band 2">
        <r>  0.0404  0.0000  0.0000  0.0621  0.0000  0.0000  0.0000  0.0000  0.0000 </r>
       </set>
       <set comment="band 3">
        <r>  0.0000  0.1312  0.1315  0.0000  0.0000  0.0000  0.0000  0.0000  0.0000 </r>
       </set>
       <set comment="band 4">
        <r>  0.0000  0.1315  0.1312  0.0000  0.0000  0.0000  0.0000  0.0000  0.0000 </r>
       </set>
       <set comment="band 5">
        <r>  0.0000  0.0000  0.0000  0.0000  0.0000  0.0000  0.0000  0.0000  0.0000 </r>
       </set>
       <set comment="band 6">
        <r>  0.2022  0.0000  0.0000  0.1104  0.0000  0.0000  0.0000  0.0000  0.0000 </r>
       </set>
       <set comment="band 7">
        <r>  0.0065  0.0000  0.0000  0.4014  0.0000  0.0000  0.0000  0.0000  0.0000 </r>
       </set>
       <set comment="band 8">
        <r>  0.0000  0.0060  0.5206  0.0000  0.0000  0.0000  0.0000  0.0000  0.0000 </r>
       </set>
      </set>
      <set comment="kpoint 77">
       <set comment="band 1">
        <r>  0.9900  0.0000  0.0000  0.0000  0.0000  0.0000  0.0000  0.0000  0.0000 </r>
       </set>
       <set comment="band 2">
        <r>  0.0284  0.0023  0.0000  0.0792  0.0000  0.0000  0.0000  0.0000  0.0000 </r>
       </set>
       <set comment="band 3">
        <r>  0.0097  0.1866  0.0000  0.0001  0.0000  0.0000  0.0000  0.0000  0.0000 </r>
       </set>
       <set comment="band 4">
        <r>  0.0000  0.0000  0.2514  0.0000  0.0000  0.0000  0.0000  0.0000  0.0000 </r>
       </set>
       <set comment="band 5">
        <r>  0.0056  0.0402  0.0000  0.0001  0.0000  0.0000  0.0000  0.0000  0.0000 </r>
       </set>
       <set comment="band 6">
        <r>  0.1823  0.0360  0.0000  0.0267  0.0000  0.0000  0.0000  0.0000  0.0000 </r>
       </set>
       <set comment="band 7">
        <r>  0.0445  0.0058  0.0000  0.3616  0.0000  0.0000  0.0000  0.0000  0.0000 </r>
       </set>
       <set comment="band 8">
        <r>  0.0000  0.0000  0.3861  0.0000  0.0000  0.0000  0.0000  0.0000  0.0000 </r>
       </set>
      </set>
      <set comment="kpoint 78">
       <set comment="band 1">
        <r>  0.9901  0.0000  0.0000  0.0000  0.0000  0.0000  0.0000  0.0000  0.0000 </r>
       </set>
       <set comment="band 2">
        <r>  0.0093  0.0214  0.0000  0.0909  0.0000  0.0000  0.0000  0.0000  0.0000 </r>
       </set>
       <set comment="band 3">
        <r>  0.0297  0.1118  0.0000  0.0102  0.0000  0.0000  0.0000  0.0000  0.0000 </r>
       </set>
       <set comment="band 4">
        <r>  0.0000  0.0000  0.2462  0.0000  0.0000  0.0000  0.0000  0.0000  0.0000 </r>
       </set>
       <set comment="band 5">
        <r>  0.0386  0.0249  0.0000  0.0008  0.0000  0.0000  0.0000  0.0000  0.0000 </r>
       </set>
       <set comment="band 6">
        <r>  0.0541  0.0963  0.0000  0.0089  0.0000  0.0000  0.0000  0.0000  0.0000 </r>
       </set>
       <set comment="band 7">
        <r>  0.1479  0.0588  0.0000  0.2685  0.0000  0.0000  0.0000  0.0000  0.0000 </r>
       </set>
       <set comment="band 8">
        <r>  0.0000  0.0000  0.3395  0.0000  0.0000  0.0000  0.0000  0.0000  0.0000 </r>
       </set>
      </set>
      <set comment="kpoint 79">
       <set comment="band 1">
        <r>  0.9901  0.0000  0.0000  0.0000  0.0000  0.0000  0.0000  0.0000  0.0000 </r>
       </set>
       <set comment="band 2">
        <r>  0.0162  0.0034  0.0034  0.0984  0.0000  0.0000  0.0000  0.0000  0.0000 </r>
       </set>
       <set comment="band 3">
        <r>  0.0000  0.0868  0.0868  0.0000  0.0000  0.0000  0.0000  0.0000  0.0000 </r>
       </set>
       <set comment="band 4">
        <r>  0.0235  0.1012  0.1012  0.0026  0.0000  0.0000  0.0000  0.0000  0.0000 </r>
       </set>
       <set comment="band 5">
        <r>  0.0000  0.0352  0.0352  0.0000  0.0000  0.0000  0.0000  0.0000  0.0000 </r>
       </set>
       <set comment="band 6">
        <r>  0.0886  0.0197  0.0197  0.0098  0.0000  0.0000  0.0000  0.0000  0.0000 </r>
       </set>
       <set comment="band 7">
        <r>  0.1661  0.0153  0.0153  0.2652  0.0000  0.0000  0.0000  0.0000  0.0000 </r>
       </set>
       <set comment="band 8">
        <r>  0.0399  0.1440  0.1456  0.0051  0.0000  0.0000  0.0000  0.0000  0.0000 </r>
       </set>
      </set>
      <set comment="kpoint 80">
       <set comment="band 1">
        <r>  0.9901  0.0000  0.0000  0.0000  0.0000  0.0000  0.0000  0.0000  0.0000 </r>
       </set>
       <set comment="band 2">
        <r>  0.0000  0.0672  0.0000  0.0672  0.0000  0.0000  0.0000  0.0000  0.0000 </r>
       </set>
       <set comment="band 3">
        <r>  0.0122  0.0476  0.0424  0.0476  0.0000  0.0000  0.0000  0.0000  0.0000 </r>
       </set>
       <set comment="band 4">
        <r>  0.0308  0.0194  0.1517  0.0194  0.0000  0.0000  0.0000  0.0000  0.0000 </r>
       </set>
       <set comment="band 5">
        <r>  0.0123  0.0145  0.0422  0.0145  0.0000  0.0000  0.0000  0.0000  0.0000 </r>
       </set>
       <set comment="band 6">
        <r>  0.0000  0.0546  0.0000  0.0546  0.0000  0.0000  0.0000  0.0000  0.0000 </r>
       </set>
       <set comment="band 7">
        <r>  0.2458  0.1027  0.0225  0.1027  0.0000  0.0000  0.0000  0.0000  0.0000 </r>
       </set>
       <set comment="band 8">
        <r>  0.0524  0.0372  0.1801  0.0377  0.0000  0.0000  0.0000  0.0000  0.0000 </r>
       </set>
      </set>
      <set comment="kpoint 81">
       <set comment="band 1">
        <r>  0.9901  0.0000  0.0000  0.0000  0.0000  0.0000  0.0000  0.0000  0.0000 </r>
       </set>
       <set comment="band 2">
        <r>  0.0206  0.0000  0.0000  0.1003  0.0000  0.0000  0.0000  0.0000  0.0000 </r>
       </set>
       <set comment="band 3">
        <r>  0.0000  0.1202  0.1204  0.0000  0.0000  0.0000  0.0000  0.0000  0.0000 </r>
       </set>
       <set comment="band 4">
        <r>  0.0000  0.1204  0.1202  0.0000  0.0000  0.0000  0.0000  0.0000  0.0000 </r>
       </set>
       <set comment="band 5">
        <r>  0.0000  0.0000  0.0000  0.0000  0.0000  0.0000  0.0000  0.0000  0.0000 </r>
       </set>
       <set comment="band 6">
        <r>  0.1028  0.0000  0.0000  0.0122  0.0000  0.0000  0.0000  0.0000  0.0000 </r>
       </set>
       <set comment="band 7">
        <r>  0.1895  0.0000  0.0000  0.2614  0.0000  0.0000  0.0000  0.0000  0.0000 </r>
       </set>
       <set comment="band 8">
        <r>  0.0000  0.1017  0.5423  0.0000  0.0000  0.0000  0.0000  0.0000  0.0000 </r>
       </set>
      </set>
      <set comment="kpoint 82">
       <set comment="band 1">
        <r>  0.9902  0.0000  0.0000  0.0000  0.0000  0.0000  0.0000  0.0000  0.0000 </r>
       </set>
       <set comment="band 2">
        <r>  0.0081  0.0103  0.0000  0.1200  0.0000  0.0000  0.0000  0.0000  0.0000 </r>
       </set>
       <set comment="band 3">
        <r>  0.0098  0.1673  0.0000  0.0086  0.0000  0.0000  0.0000  0.0000  0.0000 </r>
       </set>
       <set comment="band 4">
        <r>  0.0000  0.0000  0.2357  0.0000  0.0000  0.0000  0.0000  0.0000  0.0000 </r>
       </set>
       <set comment="band 5">
        <r>  0.0044  0.0357  0.0000  0.0021  0.0000  0.0000  0.0000  0.0000  0.0000 </r>
       </set>
       <set comment="band 6">
        <r>  0.0157  0.0158  0.0000  0.0591  0.0000  0.0000  0.0000  0.0000  0.0000 </r>
       </set>
       <set comment="band 7">
        <r>  0.2947  0.0238  0.0000  0.1102  0.0000  0.0000  0.0000  0.0000  0.0000 </r>
       </set>
       <set comment="band 8">
        <r>  0.0000  0.0000  0.5132  0.0000  0.0000  0.0000  0.0000  0.0000  0.0000 </r>
       </set>
      </set>
      <set comment="kpoint 83">
       <set comment="band 1">
        <r>  0.9902  0.0000  0.0000  0.0000  0.0000  0.0000  0.0000  0.0000  0.0000 </r>
       </set>
       <set comment="band 2">
        <r>  0.0000  0.0833  0.0000  0.0833  0.0000  0.0000  0.0000  0.0000  0.0000 </r>
       </set>
       <set comment="band 3">
        <r>  0.0000  0.0278  0.1110  0.0278  0.0000  0.0000  0.0000  0.0000  0.0000 </r>
       </set>
       <set comment="band 4">
        <r>  0.0172  0.0688  0.0688  0.0688  0.0000  0.0000  0.0000  0.0000  0.0000 </r>
       </set>
       <set comment="band 5">
        <r>  0.0000  0.0337  0.0000  0.0337  0.0000  0.0000  0.0000  0.0000  0.0000 </r>
       </set>
       <set comment="band 6">
        <r>  0.0000  0.0112  0.0450  0.0112  0.0000  0.0000  0.0000  0.0000  0.0000 </r>
       </set>
       <set comment="band 7">
        <r>  0.3285  0.0256  0.0256  0.0256  0.0000  0.0000  0.0000  0.0000  0.0000 </r>
       </set>
       <set comment="band 8">
        <r>  0.0293  0.1622  0.1568  0.1554  0.0000  0.0000  0.0000  0.0000  0.0000 </r>
       </set>
      </set>
      <set comment="kpoint 84">
       <set comment="band 1">
        <r>  0.9903  0.0000  0.0000  0.0000  0.0000  0.0000  0.0000  0.0000  0.0000 </r>
       </set>
       <set comment="band 2">
        <r>  0.0041  0.0000  0.0000  0.1704  0.0000  0.0000  0.0000  0.0000  0.0000 </r>
       </set>
       <set comment="band 3">
        <r>  0.0000  0.1153  0.1154  0.0000  0.0000  0.0000  0.0000  0.0000  0.0000 </r>
       </set>
       <set comment="band 4">
        <r>  0.0000  0.1154  0.1153  0.0000  0.0000  0.0000  0.0000  0.0000  0.0000 </r>
       </set>
       <set comment="band 5">
        <r>  0.0000  0.0000  0.0000  0.0000  0.0000  0.0000  0.0000  0.0000  0.0000 </r>
       </set>
       <set comment="band 6">
        <r>  0.0023  0.0000  0.0000  0.0511  0.0000  0.0000  0.0000  0.0000  0.0000 </r>
       </set>
       <set comment="band 7">
        <r>  0.3538  0.0000  0.0000  0.0270  0.0000  0.0000  0.0000  0.0000  0.0000 </r>
       </set>
       <set comment="band 8">
        <r>  0.0000  0.3650  0.5766  0.0011  0.0000  0.0000  0.0000  0.0000  0.0000 </r>
       </set>
      </set>
     </set>
    </set>
   </array>
  </projected>
 </calculation>
 <structure name="finalpos" >
  <crystal>
   <varray name="basis" >
    <v>      -1.71340900       1.71340900       1.71340900 </v>
    <v>       1.71340900      -1.71340900       1.71340900 </v>
    <v>       1.71340900       1.71340900      -1.71340900 </v>
   </varray>
   <i name="volume">     20.12070171 </i>
   <varray name="rec_basis" >
    <v>       0.00000000       0.29181591       0.29181591 </v>
    <v>       0.29181591       0.00000000       0.29181591 </v>
    <v>       0.29181591       0.29181591       0.00000000 </v>
   </varray>
  </crystal>
  <varray name="positions" >
   <v>       0.00000000       0.00000000       0.00000000 </v>
  </varray>
 </structure>
</modeling>
