unknown system                          
           1
    -1.713409    1.713409    1.713409
     1.713409   -1.713409    1.713409
     1.713409    1.713409   -1.713409
   Li
   1
Direct configuration=     1
   0.00000000  0.00000000  0.00000000
