   96   96    1    2
  0.8658485E+01  0.9405860E-09  0.9405860E-09  0.9405860E-09  0.5000000E-15
  1.000000000000000E-004
  CAR 
 unknown system                          
    368      8    264
 
  0.0000000E+00  0.0000000E+00  0.0000000E+00  0.3703704E-01
    1      -40.855926    -40.855938   1.000000   1.000000
    2      -40.853948    -40.853959   1.000000   1.000000
    3      -40.850370    -40.850381   1.000000   1.000000
    4      -40.848777    -40.848788   1.000000   1.000000
    5      -40.835467    -40.835485   1.000000   1.000000
    6      -40.834194    -40.834212   1.000000   1.000000
    7      -40.829742    -40.829760   1.000000   1.000000
    8      -40.828779    -40.828797   1.000000   1.000000
    9      -40.619137    -40.619151   1.000000   1.000000
   10      -40.618783    -40.618797   1.000000   1.000000
   11      -40.604861    -40.604873   1.000000   1.000000
   12      -40.604383    -40.604395   1.000000   1.000000
   13      -40.566761    -40.566779   1.000000   1.000000
   14      -40.564649    -40.564669   1.000000   1.000000
   15      -40.557262    -40.557276   1.000000   1.000000
   16      -40.556596    -40.556612   1.000000   1.000000
   17      -40.548282    -40.548294   1.000000   1.000000
   18      -40.547543    -40.547555   1.000000   1.000000
   19      -40.539366    -40.539380   1.000000   1.000000
   20      -40.533626    -40.533640   1.000000   1.000000
   21      -40.525883    -40.525894   1.000000   1.000000
   22      -40.524777    -40.524791   1.000000   1.000000
   23      -40.517096    -40.517109   1.000000   1.000000
   24      -40.517075    -40.517087   1.000000   1.000000
   25      -40.509202    -40.509213   1.000000   1.000000
   26      -40.504081    -40.504092   1.000000   1.000000
   27      -40.498467    -40.498474   1.000000   1.000000
   28      -40.498037    -40.498045   1.000000   1.000000
   29      -40.486940    -40.486955   1.000000   1.000000
   30      -40.485716    -40.485731   1.000000   1.000000
   31      -40.472521    -40.472535   1.000000   1.000000
   32      -40.469650    -40.469664   1.000000   1.000000
   33      -40.469183    -40.469196   1.000000   1.000000
   34      -40.469104    -40.469118   1.000000   1.000000
   35      -40.437024    -40.437038   1.000000   1.000000
   36      -40.433981    -40.433995   1.000000   1.000000
   37      -40.433284    -40.433298   1.000000   1.000000
   38      -40.432899    -40.432914   1.000000   1.000000
   39      -40.421557    -40.421572   1.000000   1.000000
   40      -40.421453    -40.421468   1.000000   1.000000
   41      -40.403698    -40.403709   1.000000   1.000000
   42      -40.403480    -40.403492   1.000000   1.000000
   43      -40.378011    -40.378029   1.000000   1.000000
   44      -40.377614    -40.377632   1.000000   1.000000
   45      -40.284138    -40.284151   1.000000   1.000000
   46      -40.283219    -40.283236   1.000000   1.000000
   47      -40.283081    -40.283098   1.000000   1.000000
   48      -40.279027    -40.279040   1.000000   1.000000
   49      -40.277963    -40.277980   1.000000   1.000000
   50      -40.277903    -40.277920   1.000000   1.000000
   51      -39.896330    -39.896350   1.000000   1.000000
   52      -39.896165    -39.896185   1.000000   1.000000
   53      -39.892354    -39.892372   1.000000   1.000000
   54      -39.886762    -39.886780   1.000000   1.000000
   55      -39.886210    -39.886225   1.000000   1.000000
   56      -39.886203    -39.886218   1.000000   1.000000
   57      -12.825253    -12.825280   1.000000   1.000000
   58      -12.820465    -12.820491   1.000000   1.000000
   59      -12.693023    -12.693057   1.000000   1.000000
   60      -12.687512    -12.687534   1.000000   1.000000
   61      -12.686857    -12.686882   1.000000   1.000000
   62      -12.685671    -12.685697   1.000000   1.000000
   63      -12.674436    -12.674459   1.000000   1.000000
   64      -12.674051    -12.674077   1.000000   1.000000
   65       -9.611966     -9.611971   1.000000   1.000000
   66       -9.610042     -9.610055   1.000000   1.000000
   67       -9.593283     -9.593298   1.000000   1.000000
   68       -9.566683     -9.566691   1.000000   1.000000
   69       -9.566351     -9.566356   1.000000   1.000000
   70       -9.525445     -9.525455   1.000000   1.000000
   71       -9.523616     -9.523627   1.000000   1.000000
   72       -9.518619     -9.518627   1.000000   1.000000
   73       -9.506563     -9.506571   1.000000   1.000000
   74       -9.505455     -9.505465   1.000000   1.000000
   75       -9.478850     -9.478858   1.000000   1.000000
   76       -9.458593     -9.458601   1.000000   1.000000
   77       -9.457837     -9.457844   1.000000   1.000000
   78       -9.451380     -9.451391   1.000000   1.000000
   79       -9.448517     -9.448526   1.000000   1.000000
   80       -9.428835     -9.428843   1.000000   1.000000
   81       -9.395403     -9.395412   1.000000   1.000000
   82       -9.375451     -9.375457   1.000000   1.000000
   83       -9.371586     -9.371595   1.000000   1.000000
   84       -9.358019     -9.358024   1.000000   1.000000
   85       -9.329546     -9.329552   1.000000   1.000000
   86       -9.320704     -9.320711   1.000000   1.000000
   87       -9.308103     -9.308109   1.000000   1.000000
   88       -9.295364     -9.295371   1.000000   1.000000
   89       -3.004059     -3.004075   1.000000   1.000000
   90       -2.713314     -2.713333   1.000000   1.000000
   91       -2.701081     -2.701095   1.000000   1.000000
   92       -2.681455     -2.681470   1.000000   1.000000
   93       -2.680340     -2.680358   1.000000   1.000000
   94       -2.598004     -2.598022   1.000000   1.000000
   95       -2.598000     -2.598018   1.000000   1.000000
   96       -2.555629     -2.555653   1.000000   1.000000
   97       -1.153168     -1.153172   1.000000   1.000000
   98       -1.145549     -1.145550   1.000000   1.000000
   99       -1.132818     -1.132818   1.000000   1.000000
  100       -1.106777     -1.106778   1.000000   1.000000
  101       -1.095069     -1.095071   1.000000   1.000000
  102       -1.089317     -1.089317   1.000000   1.000000
  103       -0.932172     -0.932172   1.000000   1.000000
  104       -0.833250     -0.833258   1.000000   1.000000
  105       -0.810363     -0.810368   1.000000   1.000000
  106       -0.805737     -0.805745   1.000000   1.000000
  107       -0.799378     -0.799382   1.000000   1.000000
  108       -0.794025     -0.794033   1.000000   1.000000
  109       -0.769631     -0.769633   1.000000   1.000000
  110       -0.713052     -0.713061   1.000000   1.000000
  111       -0.659861     -0.659871   1.000000   1.000000
  112       -0.608552     -0.608560   1.000000   1.000000
  113       -0.445735     -0.445750   1.000000   1.000000
  114       -0.420694     -0.420706   1.000000   1.000000
  115       -0.416182     -0.416194   1.000000   1.000000
  116       -0.397842     -0.397851   1.000000   1.000000
  117       -0.395151     -0.395161   1.000000   1.000000
  118       -0.313268     -0.313282   1.000000   1.000000
  119       -0.301795     -0.301806   1.000000   1.000000
  120       -0.296550     -0.296564   1.000000   1.000000
  121        1.092572      1.092579   1.000000   1.000000
  122        1.094463      1.094471   1.000000   1.000000
  123        1.315027      1.315033   1.000000   1.000000
  124        1.315176      1.315181   1.000000   1.000000
  125        1.322766      1.322771   1.000000   1.000000
  126        1.341016      1.341019   1.000000   1.000000
  127        1.342811      1.342814   1.000000   1.000000
  128        1.398338      1.398343   1.000000   1.000000
  129        1.425315      1.425314   1.000000   1.000000
  130        1.441185      1.441183   1.000000   1.000000
  131        1.463219      1.463234   1.000000   1.000000
  132        1.466450      1.466465   1.000000   1.000000
  133        1.477911      1.477921   1.000000   1.000000
  134        1.653114      1.653120   1.000000   1.000000
  135        1.708754      1.708762   1.000000   1.000000
  136        1.725679      1.725687   1.000000   1.000000
  137        1.727097      1.727103   1.000000   1.000000
  138        1.752512      1.752513   1.000000   1.000000
  139        1.759968      1.759968   1.000000   1.000000
  140        1.887182      1.887188   1.000000   1.000000
  141        1.901994      1.901999   1.000000   1.000000
  142        1.917098      1.917101   1.000000   1.000000
  143        1.949288      1.949292   1.000000   1.000000
  144        1.959866      1.959870   1.000000   1.000000
  145        1.978289      1.978292   1.000000   1.000000
  146        1.986502      1.986501   1.000000   1.000000
  147        1.994180      1.994183   1.000000   1.000000
  148        2.003635      2.003637   1.000000   1.000000
  149        2.029896      2.029894   1.000000   1.000000
  150        2.079937      2.079933   1.000000   1.000000
  151        2.085059      2.085058   1.000000   1.000000
  152        2.285977      2.285982   1.000000   1.000000
  153        2.319382      2.319388   1.000000   1.000000
  154        2.353763      2.353768   1.000000   1.000000
  155        2.367798      2.367800   1.000000   1.000000
  156        2.399405      2.399407   1.000000   1.000000
  157        2.428579      2.428581   1.000000   1.000000
  158        2.532625      2.532632   1.000000   1.000000
  159        2.538054      2.538060   1.000000   1.000000
  160        2.552981      2.552988   1.000000   1.000000
  161        2.634401      2.634405   1.000000   1.000000
  162        2.639241      2.639248   1.000000   1.000000
  163        2.652758      2.652766   1.000000   1.000000
  164        2.685107      2.685115   1.000000   1.000000
  165        2.894918      2.894918   1.000000   1.000000
  166        2.927969      2.927969   1.000000   1.000000
  167        2.928258      2.928258   1.000000   1.000000
  168        2.937008      2.937009   1.000000   1.000000
  169        2.954059      2.954062   1.000000   1.000000
  170        3.017184      3.017184   1.000000   1.000000
  171        3.170792      3.170790   1.000000   1.000000
  172        3.176521      3.176521   1.000000   1.000000
  173        3.191528      3.191527   1.000000   1.000000
  174        3.312112      3.312112   1.000000   1.000000
  175        3.331642      3.331639   1.000000   1.000000
  176        3.336522      3.336520   1.000000   1.000000
  177        3.371996      3.371995   1.000000   1.000000
  178        3.406898      3.406893   1.000000   1.000000
  179        3.456302      3.456301   1.000000   1.000000
  180        3.457199      3.457198   1.000000   1.000000
  181        3.493544      3.493543   1.000000   1.000000
  182        3.599909      3.599910   1.000000   1.000000
  183        3.620868      3.620869   1.000000   1.000000
  184        3.637861      3.637860   1.000000   1.000000
  185        7.094265      7.094371   0.000000   0.000000
  186        7.109969      7.110050   0.000000   0.000000
  187        7.110185      7.110262   0.000000   0.000000
  188        7.786776      7.786848   0.000000   0.000000
  189        7.991883      7.991973   0.000000   0.000000
  190        8.376609      8.376671   0.000000   0.000000
  191        8.392984      8.393047   0.000000   0.000000
  192        8.428682      8.428745   0.000000   0.000000
  193        8.482005      8.482089   0.000000   0.000000
  194        8.506360      8.506440   0.000000   0.000000
  195        8.920998      8.921161   0.000000   0.000000
  196        8.974805      8.974856   0.000000   0.000000
  197        9.076203      9.076256   0.000000   0.000000
  198        9.153667      9.153728   0.000000   0.000000
  199        9.307535      9.307620   0.000000   0.000000
  200        9.315946      9.316036   0.000000   0.000000
  201        9.342344      9.342424   0.000000   0.000000
  202        9.389296      9.389371   0.000000   0.000000
  203        9.396974      9.397063   0.000000   0.000000
  204        9.400505      9.400577   0.000000   0.000000
  205        9.789549      9.789595   0.000000   0.000000
  206        9.806538      9.806601   0.000000   0.000000
  207        9.862586      9.862661   0.000000   0.000000
  208        9.884343      9.884406   0.000000   0.000000
  209        9.908599      9.908861   0.000000   0.000000
  210        9.946534      9.946563   0.000000   0.000000
  211        9.979239      9.979309   0.000000   0.000000
  212       10.139390     10.139448   0.000000   0.000000
  213       10.200050     10.200098   0.000000   0.000000
  214       10.206493     10.206552   0.000000   0.000000
  215       10.220204     10.220251   0.000000   0.000000
  216       10.238128     10.238175   0.000000   0.000000
  217       11.062189     11.062162   0.000000   0.000000
  218       11.154076     11.154089   0.000000   0.000000
  219       11.244743     11.244740   0.000000   0.000000
  220       11.264353     11.264290   0.000000   0.000000
  221       11.277050     11.276880   0.000000   0.000000
  222       11.307478     11.307535   0.000000   0.000000
  223       11.316699     11.316522   0.000000   0.000000
  224       11.342321     11.342198   0.000000   0.000000
  225       11.379802     11.379772   0.000000   0.000000
  226       11.545947     11.545930   0.000000   0.000000
  227       11.566154     11.566030   0.000000   0.000000
  228       11.612759     11.613019   0.000000   0.000000
  229       11.651862     11.651856   0.000000   0.000000
  230       11.666529     11.666065   0.000000   0.000000
  231       11.674365     11.673723   0.000000   0.000000
  232       11.681857     11.681846   0.000000   0.000000
  233       11.745961     11.745744   0.000000   0.000000
  234       11.756438     11.756444   0.000000   0.000000
  235       11.872743     11.872820   0.000000   0.000000
  236       11.908974     11.908978   0.000000   0.000000
  237       11.959065     11.958955   0.000000   0.000000
  238       12.250101     12.249483   0.000000   0.000000
  239       12.271888     12.272858   0.000000   0.000000
  240       12.289924     12.292451   0.000000   0.000000
  241       12.394924     12.395086   0.000000   0.000000
  242       12.531153     12.533985   0.000000   0.000000
  243       12.573811     12.570821   0.000000   0.000000
  244       12.775135     12.784050   0.000000   0.000000
  245       12.842519     12.836567   0.000000   0.000000
  246       12.887884     12.881998   0.000000   0.000000
  247       12.931548     12.931092   0.000000   0.000000
  248       13.004124     13.013869   0.000000   0.000000
  249       13.014360     13.022138   0.000000   0.000000
  250       13.045509     13.041284   0.000000   0.000000
  251       13.075092     13.096339   0.000000   0.000000
  252       13.108598     13.099968   0.000000   0.000000
  253       13.119572     13.131803   0.000000   0.000000
  254       13.149322     13.152701   0.000000   0.000000
  255       13.222257     13.197779   0.000000   0.000000
  256       13.288774     13.260450   0.000000   0.000000
  257       13.318270     13.384555   0.000000   0.000000
  258       13.422551     13.406694   0.000000   0.000000
  259       13.434270     13.459221   0.000000   0.000000
  260       13.474460     13.529552   0.000000   0.000000
  261       13.583035     13.581001   0.000000   0.000000
  262       13.704638     13.718707   0.000000   0.000000
  263       13.835101     13.803455   0.000000   0.000000
  264       13.994970     13.891348   0.000000   0.000000
 
  0.3333333E+00  0.6640729E-18  0.0000000E+00  0.1481481E+00
    1      -40.855168    -40.855179   1.000000   1.000000
    2      -40.854143    -40.854154   1.000000   1.000000
    3      -40.849737    -40.849749   1.000000   1.000000
    4      -40.848909    -40.848920   1.000000   1.000000
    5      -40.835520    -40.835538   1.000000   1.000000
    6      -40.834850    -40.834867   1.000000   1.000000
    7      -40.829804    -40.829822   1.000000   1.000000
    8      -40.829295    -40.829313   1.000000   1.000000
    9      -40.618786    -40.618800   1.000000   1.000000
   10      -40.616819    -40.616833   1.000000   1.000000
   11      -40.607502    -40.607513   1.000000   1.000000
   12      -40.604474    -40.604486   1.000000   1.000000
   13      -40.565766    -40.565784   1.000000   1.000000
   14      -40.564647    -40.564666   1.000000   1.000000
   15      -40.556769    -40.556784   1.000000   1.000000
   16      -40.555294    -40.555309   1.000000   1.000000
   17      -40.550508    -40.550521   1.000000   1.000000
   18      -40.547951    -40.547964   1.000000   1.000000
   19      -40.537988    -40.538002   1.000000   1.000000
   20      -40.534986    -40.534999   1.000000   1.000000
   21      -40.524175    -40.524187   1.000000   1.000000
   22      -40.522689    -40.522702   1.000000   1.000000
   23      -40.518866    -40.518879   1.000000   1.000000
   24      -40.518326    -40.518338   1.000000   1.000000
   25      -40.510283    -40.510295   1.000000   1.000000
   26      -40.505897    -40.505908   1.000000   1.000000
   27      -40.498508    -40.498515   1.000000   1.000000
   28      -40.497591    -40.497599   1.000000   1.000000
   29      -40.485834    -40.485849   1.000000   1.000000
   30      -40.483368    -40.483383   1.000000   1.000000
   31      -40.473908    -40.473922   1.000000   1.000000
   32      -40.470304    -40.470318   1.000000   1.000000
   33      -40.469330    -40.469344   1.000000   1.000000
   34      -40.468575    -40.468589   1.000000   1.000000
   35      -40.437683    -40.437698   1.000000   1.000000
   36      -40.434399    -40.434413   1.000000   1.000000
   37      -40.433149    -40.433164   1.000000   1.000000
   38      -40.432080    -40.432094   1.000000   1.000000
   39      -40.421065    -40.421080   1.000000   1.000000
   40      -40.419191    -40.419206   1.000000   1.000000
   41      -40.408264    -40.408276   1.000000   1.000000
   42      -40.403501    -40.403513   1.000000   1.000000
   43      -40.377780    -40.377798   1.000000   1.000000
   44      -40.375323    -40.375340   1.000000   1.000000
   45      -40.284271    -40.284284   1.000000   1.000000
   46      -40.283226    -40.283243   1.000000   1.000000
   47      -40.281863    -40.281880   1.000000   1.000000
   48      -40.279269    -40.279286   1.000000   1.000000
   49      -40.279163    -40.279176   1.000000   1.000000
   50      -40.278005    -40.278022   1.000000   1.000000
   51      -39.896268    -39.896288   1.000000   1.000000
   52      -39.895592    -39.895612   1.000000   1.000000
   53      -39.892368    -39.892385   1.000000   1.000000
   54      -39.886886    -39.886901   1.000000   1.000000
   55      -39.886709    -39.886726   1.000000   1.000000
   56      -39.886224    -39.886239   1.000000   1.000000
   57      -12.823416    -12.823440   1.000000   1.000000
   58      -12.821027    -12.821052   1.000000   1.000000
   59      -12.691884    -12.691903   1.000000   1.000000
   60      -12.687973    -12.687997   1.000000   1.000000
   61      -12.687519    -12.687539   1.000000   1.000000
   62      -12.686206    -12.686231   1.000000   1.000000
   63      -12.674956    -12.674978   1.000000   1.000000
   64      -12.674646    -12.674670   1.000000   1.000000
   65       -9.614796     -9.614804   1.000000   1.000000
   66       -9.597573     -9.597586   1.000000   1.000000
   67       -9.589452     -9.589464   1.000000   1.000000
   68       -9.579153     -9.579159   1.000000   1.000000
   69       -9.547490     -9.547497   1.000000   1.000000
   70       -9.532957     -9.532966   1.000000   1.000000
   71       -9.524718     -9.524726   1.000000   1.000000
   72       -9.522573     -9.522582   1.000000   1.000000
   73       -9.507876     -9.507884   1.000000   1.000000
   74       -9.503924     -9.503934   1.000000   1.000000
   75       -9.482251     -9.482259   1.000000   1.000000
   76       -9.462154     -9.462162   1.000000   1.000000
   77       -9.457371     -9.457380   1.000000   1.000000
   78       -9.447661     -9.447669   1.000000   1.000000
   79       -9.445910     -9.445919   1.000000   1.000000
   80       -9.429560     -9.429569   1.000000   1.000000
   81       -9.402018     -9.402027   1.000000   1.000000
   82       -9.376315     -9.376324   1.000000   1.000000
   83       -9.370757     -9.370764   1.000000   1.000000
   84       -9.347697     -9.347702   1.000000   1.000000
   85       -9.328419     -9.328425   1.000000   1.000000
   86       -9.322790     -9.322796   1.000000   1.000000
   87       -9.312131     -9.312138   1.000000   1.000000
   88       -9.301423     -9.301429   1.000000   1.000000
   89       -2.945052     -2.945068   1.000000   1.000000
   90       -2.810270     -2.810286   1.000000   1.000000
   91       -2.694590     -2.694605   1.000000   1.000000
   92       -2.692968     -2.692983   1.000000   1.000000
   93       -2.647481     -2.647501   1.000000   1.000000
   94       -2.602354     -2.602373   1.000000   1.000000
   95       -2.584352     -2.584370   1.000000   1.000000
   96       -2.578486     -2.578507   1.000000   1.000000
   97       -1.130071     -1.130072   1.000000   1.000000
   98       -1.125940     -1.125942   1.000000   1.000000
   99       -1.087848     -1.087849   1.000000   1.000000
  100       -1.072424     -1.072427   1.000000   1.000000
  101       -1.059334     -1.059336   1.000000   1.000000
  102       -1.046548     -1.046549   1.000000   1.000000
  103       -0.979839     -0.979840   1.000000   1.000000
  104       -0.872081     -0.872087   1.000000   1.000000
  105       -0.862219     -0.862225   1.000000   1.000000
  106       -0.852971     -0.852976   1.000000   1.000000
  107       -0.723963     -0.723972   1.000000   1.000000
  108       -0.715644     -0.715650   1.000000   1.000000
  109       -0.703853     -0.703859   1.000000   1.000000
  110       -0.684781     -0.684789   1.000000   1.000000
  111       -0.635385     -0.635396   1.000000   1.000000
  112       -0.609915     -0.609924   1.000000   1.000000
  113       -0.509506     -0.509515   1.000000   1.000000
  114       -0.482571     -0.482583   1.000000   1.000000
  115       -0.479333     -0.479343   1.000000   1.000000
  116       -0.440436     -0.440446   1.000000   1.000000
  117       -0.380304     -0.380317   1.000000   1.000000
  118       -0.370091     -0.370104   1.000000   1.000000
  119       -0.318686     -0.318699   1.000000   1.000000
  120       -0.295549     -0.295561   1.000000   1.000000
  121        1.121990      1.122000   1.000000   1.000000
  122        1.160517      1.160523   1.000000   1.000000
  123        1.260057      1.260058   1.000000   1.000000
  124        1.272073      1.272078   1.000000   1.000000
  125        1.320990      1.321000   1.000000   1.000000
  126        1.325012      1.325022   1.000000   1.000000
  127        1.354843      1.354851   1.000000   1.000000
  128        1.357974      1.357978   1.000000   1.000000
  129        1.379429      1.379438   1.000000   1.000000
  130        1.384676      1.384687   1.000000   1.000000
  131        1.410753      1.410758   1.000000   1.000000
  132        1.448136      1.448136   1.000000   1.000000
  133        1.543975      1.543980   1.000000   1.000000
  134        1.550567      1.550573   1.000000   1.000000
  135        1.593106      1.593107   1.000000   1.000000
  136        1.689496      1.689498   1.000000   1.000000
  137        1.744866      1.744870   1.000000   1.000000
  138        1.749950      1.749955   1.000000   1.000000
  139        1.795772      1.795770   1.000000   1.000000
  140        1.894265      1.894268   1.000000   1.000000
  141        1.911207      1.911210   1.000000   1.000000
  142        1.914068      1.914071   1.000000   1.000000
  143        1.928890      1.928895   1.000000   1.000000
  144        1.934019      1.934019   1.000000   1.000000
  145        1.946068      1.946072   1.000000   1.000000
  146        1.997369      1.997371   1.000000   1.000000
  147        2.019709      2.019712   1.000000   1.000000
  148        2.025460      2.025462   1.000000   1.000000
  149        2.098916      2.098918   1.000000   1.000000
  150        2.202744      2.202744   1.000000   1.000000
  151        2.237326      2.237330   1.000000   1.000000
  152        2.246613      2.246617   1.000000   1.000000
  153        2.297017      2.297019   1.000000   1.000000
  154        2.331535      2.331538   1.000000   1.000000
  155        2.343852      2.343854   1.000000   1.000000
  156        2.484108      2.484110   1.000000   1.000000
  157        2.496079      2.496082   1.000000   1.000000
  158        2.591092      2.591097   1.000000   1.000000
  159        2.595687      2.595692   1.000000   1.000000
  160        2.608510      2.608513   1.000000   1.000000
  161        2.690930      2.690936   1.000000   1.000000
  162        2.705787      2.705790   1.000000   1.000000
  163        2.738352      2.738357   1.000000   1.000000
  164        2.767055      2.767061   1.000000   1.000000
  165        2.866881      2.866887   1.000000   1.000000
  166        2.896311      2.896313   1.000000   1.000000
  167        2.911584      2.911584   1.000000   1.000000
  168        2.957858      2.957858   1.000000   1.000000
  169        3.047447      3.047448   1.000000   1.000000
  170        3.072242      3.072243   1.000000   1.000000
  171        3.117551      3.117551   1.000000   1.000000
  172        3.158334      3.158334   1.000000   1.000000
  173        3.199218      3.199218   1.000000   1.000000
  174        3.245362      3.245360   1.000000   1.000000
  175        3.267290      3.267290   1.000000   1.000000
  176        3.288536      3.288535   1.000000   1.000000
  177        3.318949      3.318947   1.000000   1.000000
  178        3.357071      3.357070   1.000000   1.000000
  179        3.386634      3.386633   1.000000   1.000000
  180        3.394705      3.394705   1.000000   1.000000
  181        3.514787      3.514786   1.000000   1.000000
  182        3.538669      3.538671   1.000000   1.000000
  183        3.544760      3.544761   1.000000   1.000000
  184        3.571493      3.571492   1.000000   1.000000
  185        7.227162      7.227250   0.000000   0.000000
  186        7.483688      7.483748   0.000000   0.000000
  187        7.498145      7.498221   0.000000   0.000000
  188        7.663927      7.663989   0.000000   0.000000
  189        8.085190      8.085260   0.000000   0.000000
  190        8.378252      8.378331   0.000000   0.000000
  191        8.459957      8.460036   0.000000   0.000000
  192        8.488760      8.488833   0.000000   0.000000
  193        8.557098      8.557153   0.000000   0.000000
  194        8.560183      8.560249   0.000000   0.000000
  195        8.727109      8.727176   0.000000   0.000000
  196        8.837433      8.837504   0.000000   0.000000
  197        8.902395      8.902465   0.000000   0.000000
  198        9.056996      9.057052   0.000000   0.000000
  199        9.071517      9.071573   0.000000   0.000000
  200        9.090568      9.090636   0.000000   0.000000
  201        9.322420      9.322485   0.000000   0.000000
  202        9.342084      9.342149   0.000000   0.000000
  203        9.396520      9.396592   0.000000   0.000000
  204        9.459990      9.460050   0.000000   0.000000
  205        9.521131      9.521203   0.000000   0.000000
  206        9.564510      9.564589   0.000000   0.000000
  207        9.613402      9.613480   0.000000   0.000000
  208        9.662802      9.662864   0.000000   0.000000
  209        9.809105      9.809228   0.000000   0.000000
  210        9.941360      9.941502   0.000000   0.000000
  211        9.968016      9.968059   0.000000   0.000000
  212        9.993499      9.993568   0.000000   0.000000
  213       10.081739     10.081812   0.000000   0.000000
  214       10.204235     10.204294   0.000000   0.000000
  215       10.293626     10.293688   0.000000   0.000000
  216       10.352900     10.352959   0.000000   0.000000
  217       11.026954     11.026934   0.000000   0.000000
  218       11.094878     11.094894   0.000000   0.000000
  219       11.157293     11.157237   0.000000   0.000000
  220       11.192842     11.192819   0.000000   0.000000
  221       11.282038     11.282018   0.000000   0.000000
  222       11.295202     11.295220   0.000000   0.000000
  223       11.447748     11.447570   0.000000   0.000000
  224       11.463446     11.463313   0.000000   0.000000
  225       11.524082     11.524055   0.000000   0.000000
  226       11.573695     11.573680   0.000000   0.000000
  227       11.625378     11.625311   0.000000   0.000000
  228       11.683299     11.683168   0.000000   0.000000
  229       11.697391     11.697370   0.000000   0.000000
  230       11.756707     11.756391   0.000000   0.000000
  231       11.791335     11.790921   0.000000   0.000000
  232       11.825732     11.825905   0.000000   0.000000
  233       11.902566     11.901840   0.000000   0.000000
  234       11.920356     11.918733   0.000000   0.000000
  235       11.940288     11.940120   0.000000   0.000000
  236       11.985977     11.986816   0.000000   0.000000
  237       12.063926     12.062664   0.000000   0.000000
  238       12.214482     12.215730   0.000000   0.000000
  239       12.219430     12.218810   0.000000   0.000000
  240       12.274139     12.272392   0.000000   0.000000
  241       12.420689     12.421296   0.000000   0.000000
  242       12.450180     12.451055   0.000000   0.000000
  243       12.609351     12.604880   0.000000   0.000000
  244       12.668789     12.679254   0.000000   0.000000
  245       12.781871     12.760002   0.000000   0.000000
  246       12.835786     12.839953   0.000000   0.000000
  247       12.892574     12.878065   0.000000   0.000000