 running on   48 total cores
 distrk:  each k-point on   48 cores,    1 groups
 distr:  one band on    6 cores,    8 groups
 using from now: INCAR     
 vasp.6.1.2 22Jul20 (build Mar 31 2021 18:09:49) complex                        
  
 POSCAR found type information on POSCAR LiP N 
 POSCAR found :  3 types and      96 ions
 scaLAPACK will be used
 LDA part: xc-table for Pade appr. of Perdew
 generate k-points for:    3    3    3
 POSCAR, INCAR and KPOINTS ok, starting setup
 FFT: planning ...
 WAVECAR not read
 entering main loop
       N       E                     dE             d eps       ncg     rms          rms(c)
DAV:   1     0.348393999471E+04    0.34839E+04   -0.15345E+05  8448   0.156E+03
DAV:   2     0.325390635312E+02   -0.34514E+04   -0.31051E+04  9032   0.436E+02
DAV:   3    -0.448494802616E+03   -0.48103E+03   -0.47466E+03 11344   0.146E+02
DAV:   4    -0.518949334563E+03   -0.70455E+02   -0.69734E+02 15208   0.473E+01
DAV:   5    -0.525687646122E+03   -0.67383E+01   -0.67332E+01 13560   0.124E+01    0.737E+01
RMM:   6    -0.469910429765E+03    0.55777E+02   -0.20730E+02 10173   0.208E+01    0.321E+01
RMM:   7    -0.483258076870E+03   -0.13348E+02   -0.46575E+01 13436   0.121E+01    0.173E+01
RMM:   8    -0.485837742796E+03   -0.25797E+01   -0.11601E+01 15163   0.565E+00    0.909E+00
RMM:   9    -0.486641178904E+03   -0.80344E+00   -0.53526E+00 13765   0.433E+00    0.305E+00
RMM:  10    -0.486723275101E+03   -0.82096E-01   -0.22125E+00 15107   0.281E+00    0.163E+00
RMM:  11    -0.486818799804E+03   -0.95525E-01   -0.13743E+00 15680   0.163E+00    0.127E+00
RMM:  12    -0.486893122452E+03   -0.74323E-01   -0.65831E-01 15978   0.107E+00    0.105E+00
RMM:  13    -0.486925279879E+03   -0.32157E-01   -0.27236E-01 15549   0.727E-01    0.506E-01
RMM:  14    -0.486938793222E+03   -0.13513E-01   -0.12025E-01 15918   0.520E-01    0.100E-01
RMM:  15    -0.486946155234E+03   -0.73620E-02   -0.68403E-02 16000   0.360E-01    0.777E-02
RMM:  16    -0.486949718883E+03   -0.35636E-02   -0.32546E-02 16000   0.253E-01    0.750E-02
RMM:  17    -0.486951552221E+03   -0.18333E-02   -0.18212E-02 14887   0.183E-01    0.391E-02
RMM:  18    -0.486952546757E+03   -0.99454E-03   -0.10219E-02 14338   0.137E-01    0.190E-02
RMM:  19    -0.486953191831E+03   -0.64507E-03   -0.60007E-03 14208   0.105E-01    0.218E-02
RMM:  20    -0.486953571740E+03   -0.37991E-03   -0.36367E-03 14208   0.795E-02    0.216E-02
RMM:  21    -0.486953811430E+03   -0.23969E-03   -0.23076E-03 14139   0.611E-02    0.269E-02
RMM:  22    -0.486953983658E+03   -0.17223E-03   -0.14955E-03 13838   0.475E-02    0.418E-02
RMM:  23    -0.486954046322E+03   -0.62663E-04   -0.94284E-04 13398   0.385E-02    0.223E-02
RMM:  24    -0.486954106680E+03   -0.60358E-04   -0.60968E-04 11079   0.299E-02    0.219E-02
RMM:  25    -0.486954150372E+03   -0.43692E-04   -0.42357E-04 11341   0.259E-02    0.231E-02
WARNING in EDDRMM: call to ZHEGV failed, returncode =   8  4     16
RMM:  26    -0.486954167009E+03   -0.16637E-04   -0.33236E-04 13183   0.230E-02    0.137E-02
RMM:  27    -0.486954179498E+03   -0.12489E-04   -0.23475E-04 12575   0.196E-02    0.169E-02
RMM:  28    -0.486954196333E+03   -0.16835E-04   -0.21262E-04 13488   0.196E-02    0.424E-02
RMM:  29    -0.486954201540E+03   -0.52075E-05   -0.91832E-05  9249   0.132E-02
   1 F= -.48695420E+03 E0= -.48695420E+03  d E =0.000000E+00  mag=     0.0001
