 running on   12 total cores
 distrk:  each k-point on   12 cores,    1 groups
 distr:  one band on    6 cores,    2 groups
 using from now: INCAR     
 vasp.6.1.2 22Jul20 (build Mar 20 2021 11:25:07) complex                        
  
 POSCAR found type information on POSCAR LiP N O 
 POSCAR found :  4 types and      12 ions
 scaLAPACK will be used
 LDA part: xc-table for Pade appr. of Perdew
 generate k-points for:    7    7    7
 POSCAR, INCAR and KPOINTS ok, starting setup
 FFT: planning ...
 WAVECAR not read
 entering main loop
       N       E                     dE             d eps       ncg     rms          rms(c)
DAV:   1     0.421441849952E+03    0.42144E+03   -0.27636E+04 16008   0.147E+03
DAV:   2    -0.437954701723E+02   -0.46524E+03   -0.44566E+03 18680   0.377E+02
DAV:   3    -0.811006047238E+02   -0.37305E+02   -0.37130E+02 23512   0.994E+01
DAV:   4    -0.843606710309E+02   -0.32601E+01   -0.32472E+01 25576   0.235E+01
DAV:   5    -0.845783089829E+02   -0.21764E+00   -0.21763E+00 22344   0.467E+00    0.358E+01
RMM:   6    -0.761731876828E+02    0.84051E+01   -0.30120E+01 17067   0.233E+01    0.155E+01
RMM:   7    -0.766081306098E+02   -0.43494E+00   -0.50505E+00 23709   0.103E+01    0.768E+00
RMM:   8    -0.767975690633E+02   -0.18944E+00   -0.83884E-01 25930   0.483E+00    0.385E+00
RMM:   9    -0.768331591359E+02   -0.35590E-01   -0.29837E-01 26134   0.313E+00    0.108E+00
RMM:  10    -0.768614375368E+02   -0.28278E-01   -0.20493E-01 29768   0.192E+00    0.363E-01
RMM:  11    -0.768720831367E+02   -0.10646E-01   -0.88274E-02 30834   0.113E+00    0.288E-01
RMM:  12    -0.768765077594E+02   -0.44246E-02   -0.34428E-02 31155   0.702E-01    0.198E-01
RMM:  13    -0.768782092977E+02   -0.17015E-02   -0.13112E-02 30879   0.452E-01    0.730E-02
RMM:  14    -0.768789635932E+02   -0.75430E-03   -0.57950E-03 30752   0.309E-01    0.349E-02
RMM:  15    -0.768792418063E+02   -0.27821E-03   -0.24688E-03 30240   0.193E-01    0.297E-02
RMM:  16    -0.768793518243E+02   -0.11002E-03   -0.10667E-03 29748   0.123E-01    0.148E-02
RMM:  17    -0.768793919240E+02   -0.40100E-04   -0.40006E-04 29334   0.804E-02    0.501E-03
RMM:  18    -0.768794108313E+02   -0.18907E-04   -0.16395E-04 26354   0.538E-02    0.422E-03
RMM:  19    -0.768794154187E+02   -0.45874E-05   -0.46046E-05 21529   0.398E-02
   1 F= -.76879415E+02 E0= -.76879415E+02  d E =0.000000E+00  mag=    -0.0000
