    4    4    1    2
  0.1178167E+02  0.3833224E-09  0.3650690E-09  0.3888635E-09  0.5000000E-15
  1.000000000000000E-004
  CAR 
 unknown system                          
     14    260     12
 
  0.0000000E+00  0.0000000E+00  0.0000000E+00  0.1250000E-02
    1      -43.617677    -43.617028   1.000000   1.000000
    2      -43.345072    -43.344411   1.000000   1.000000
    3      -42.936815    -42.936261   1.000000   1.000000
    4      -10.287552    -10.287645   1.000000   1.000000
    5       -0.263084     -0.263156   1.000000   1.000000
    6        0.823776      0.823659   1.000000   1.000000
    7        0.974944      0.974848   1.000000   1.000000
    8        2.044958      2.044849   0.000000   0.000001
    9        7.828492      7.828654   0.000000   0.000000
   10        8.275851      8.275983   0.000000   0.000000
   11        9.102711      9.102652   0.000000   0.000000
   12       12.596191     12.594946   0.000000   0.000000
 
  0.1000000E+00 -0.6841559E-17  0.0000000E+00  0.2500000E-02
    1      -43.612369    -43.611719   1.000000   1.000000
    2      -43.350189    -43.349527   1.000000   1.000000
    3      -42.936804    -42.936250   1.000000   1.000000
    4      -10.278623    -10.278718   1.000000   1.000000
    5       -0.208849     -0.208923   1.000000   1.000000
    6        0.443398      0.443309   1.000000   1.000000
    7        0.876537      0.876445   1.000000   1.000000
    8        2.427804      2.427693  -0.000000  -0.000000
    9        7.869904      7.870043   0.000000   0.000000
   10        8.507621      8.507651   0.000000   0.000000
   11        8.995611      8.995552   0.000000   0.000000
   12       12.322650     12.329173   0.000000   0.000000
 
  0.2000000E+00 -0.1368312E-16  0.0000000E+00  0.2500000E-02
    1      -43.597285    -43.596635   1.000000   1.000000
    2      -43.364784    -43.364123   1.000000   1.000000
    3      -42.936781    -42.936227   1.000000   1.000000
    4      -10.255198    -10.255296   1.000000   1.000000
    5       -0.180001     -0.180063   1.000000   1.000000
    6       -0.060599     -0.060675   1.000000   1.000000
    7        0.648170      0.648086   1.000000   1.000000
    8        3.093060      3.092948   0.000000   0.000000
    9        7.756094      7.756119   0.000000   0.000000
   10        8.711903      8.711850   0.000000   0.000000
   11        9.115661      9.115752   0.000000   0.000000
   12       12.086074     12.080728   0.000000   0.000000
 
  0.3000000E+00 -0.4388873E-16  0.0000000E+00  0.2500000E-02
    1      -43.575536    -43.574885   1.000000   1.000000
    2      -43.386034    -43.385374   1.000000   1.000000
    3      -42.936810    -42.936256   1.000000   1.000000
    4      -10.226011    -10.226113   1.000000   1.000000
    5       -0.716176     -0.716221   1.000000   1.000000
    6        0.137049      0.136972   1.000000   1.000000
    7        0.398067      0.397991   1.000000   1.000000
    8        3.815301      3.815196   0.000000   0.000000
    9        7.205310      7.205267   0.000000   0.000000
   10        8.347326      8.347283   0.000000   0.000000
   11        9.794236      9.794269   0.000000   0.000000
   12       12.346387     12.357082   0.000000   0.000000
 
  0.4000000E+00 -0.6097234E-16  0.0000000E+00  0.2500000E-02
    1      -43.553425    -43.552773   1.000000   1.000000
    2      -43.407679    -43.407020   1.000000   1.000000
    3      -42.936802    -42.936248   1.000000   1.000000
    4      -10.202076    -10.202183   1.000000   1.000000
    5       -1.066527     -1.066562   1.000000   1.000000
    6        0.215410      0.215339   1.000000   1.000000
    7        0.311009      0.310935   1.000000   1.000000
    8        4.595212      4.595116   0.000000   0.000000
    9        6.366038      6.365949   0.000000   0.000000
   10        8.034018      8.033997   0.000000   0.000000
   11       10.202681     10.202636   0.000000   0.000000
   12       12.399956     12.402536   0.000000   0.000000
 
  0.5000000E+00 -0.1106592E-15  0.0000000E+00  0.1250000E-02
    1      -43.542977    -43.542324   1.000000   1.000000
    2      -43.417973    -43.417315   1.000000   1.000000
    3      -42.936805    -42.936252   1.000000   1.000000
    4      -10.192879    -10.192988   1.000000   1.000000
    5       -1.187628     -1.187658   1.000000   1.000000
    6        0.149485      0.149415   1.000000   1.000000
    7        0.381377      0.381291   1.000000   1.000000
    8        5.346812      5.346857   0.000000   0.000000
    9        5.599386      5.595242   0.000000   0.000000
   10        7.908653      7.908617   0.000000   0.000000
   11       10.312533     10.312444   0.000000   0.000000
   12       12.162885     12.162767   0.000000   0.000000
 
  0.4794426E-18  0.1000000E+00  0.0000000E+00  0.2500000E-02
    1      -43.611093    -43.610444   1.000000   1.000000
    2      -43.351350    -43.350688   1.000000   1.000000
    3      -42.936766    -42.936212   1.000000   1.000000
    4      -10.274735    -10.274830   1.000000   1.000000
    5       -0.201578     -0.201651   1.000000   1.000000
    6        0.558773      0.558681   1.000000   1.000000
    7        0.722672      0.722597   1.000000   1.000000
    8        2.414741      2.414620  -0.000000  -0.000000
    9        8.074428      8.074561   0.000000   0.000000
   10        8.296542      8.296683   0.000000   0.000000
   11        9.011024      9.010972   0.000000   0.000000
   12       12.523523     12.520423   0.000000   0.000000
 
  0.1000000E+00  0.1000000E+00  0.0000000E+00  0.2500000E-02
    1      -43.600341    -43.599692   1.000000   1.000000
    2      -43.361786    -43.361125   1.000000   1.000000
    3      -42.936765    -42.936211   1.000000   1.000000
    4      -10.257240    -10.257337   1.000000   1.000000
    5       -0.097270     -0.097346   1.000000   1.000000
    6        0.038810      0.038742   1.000000   1.000000
    7        0.608593      0.608519   1.000000   1.000000
    8        2.896656      2.896536   0.000000   0.000000
    9        7.985357      7.985503   0.000000   0.000000
   10        8.737363      8.737332   0.000000   0.000000
   11        8.828003      8.827947   0.000000   0.000000
   12       12.206753     12.206728   0.000000   0.000000
 
  0.2000000E+00  0.1000000E+00  0.0000000E+00  0.2500000E-02
    1      -43.581215    -43.580564   1.000000   1.000000
    2      -43.380413    -43.379753   1.000000   1.000000
    3      -42.936774    -42.936220   1.000000   1.000000
    4      -10.230459    -10.230559   1.000000   1.000000
    5       -0.505237     -0.505291   1.000000   1.000000
    6        0.078121      0.078042   1.000000   1.000000
    7        0.376138      0.376076   1.000000   1.000000
    8        3.560693      3.560564   0.000000   0.000000
    9        7.625437      7.625416   0.000000   0.000000
   10        8.531030      8.530981   0.000000   0.000000
   11        9.238347      9.238473   0.000000   0.000000
   12       12.308152     12.300539   0.000000   0.000000
 
  0.3000000E+00  0.1000000E+00  0.0000000E+00  0.2500000E-02
    1      -43.558181    -43.557529   1.000000   1.000000
    2      -43.402942    -43.402283   1.000000   1.000000
    3      -42.936775    -42.936222   1.000000   1.000000
    4      -10.204474    -10.204580   1.000000   1.000000
    5       -0.916611     -0.916652   1.000000   1.000000
    6        0.156111      0.156050   1.000000   1.000000
    7        0.265474      0.265388   1.000000   1.000000
    8        4.313541      4.313425   0.000000   0.000000
    9        6.900533      6.900481   0.000000   0.000000
   10        8.230880      8.230830   0.000000   0.000000
   11        9.579715      9.580916   0.000000   0.000000
   12       12.252181     12.251327   0.000000   0.000000
 
  0.4000000E+00  0.1000000E+00  0.0000000E+00  0.2500000E-02
    1      -43.540494    -43.539842   1.000000   1.000000
    2      -43.420379    -43.419720   1.000000   1.000000
    3      -42.936805    -42.936251   1.000000   1.000000
    4      -10.189415    -10.189519   1.000000   1.000000
    5       -1.130343     -1.130376   1.000000   1.000000
    6        0.027559      0.027501   1.000000   1.000000
    7        0.386896      0.386809   1.000000   1.000000
    8        5.143735      5.143643   0.000000   0.000000
    9        6.021273      6.021166   0.000000   0.000000
   10        8.043064      8.043025   0.000000   0.000000
   11        9.730569      9.729487   0.000000   0.000000
   12       11.716609     11.716151   0.000000   0.000000
 
  0.5000000E+00  0.1000000E+00  0.0000000E+00  0.2500000E-02
    1      -43.541646    -43.540993   1.000000   1.000000
    2      -43.419208    -43.418550   1.000000   1.000000
    3      -42.936798    -42.936244   1.000000   1.000000
    4      -10.191185    -10.191293   1.000000   1.000000
    5       -1.121783     -1.121814   1.000000   1.000000
    6        0.026377      0.026315   1.000000   1.000000
    7        0.382387      0.382302   1.000000   1.000000
    8        5.145826      5.145729   0.000000   0.000000
    9        6.037417      6.037318   0.000000   0.000000
   10        8.049097      8.049063   0.000000   0.000000
   11        9.742091      9.743938   0.000000   0.000000
   12       11.696285     11.696271   0.000000   0.000000
 
 -0.4000000E+00  0.1000000E+00  0.0000000E+00  0.2500000E-02
    1      -43.560570    -43.559918   1.000000   1.000000
    2      -43.400629    -43.399970   1.000000   1.000000
    3      -42.936812    -42.936258   1.000000   1.000000
    4      -10.209068    -10.209171   1.000000   1.000000
    5       -0.895831     -0.895869   1.000000   1.000000
    6        0.155594      0.155531   1.000000   1.000000
    7        0.254379      0.254297   1.000000   1.000000
    8        4.335310      4.335188   0.000000   0.000000
    9        6.921235      6.921196   0.000000   0.000000
   10        8.241447      8.241403   0.000000   0.000000
   11        9.619637      9.619932   0.000000   0.000000
   12       12.197503     12.197717   0.000000   0.000000
 
 -0.3000000E+00  0.1000000E+00  0.0000000E+00  0.2500000E-02
    1      -43.583517    -43.582866   1.000000   1.000000
    2      -43.378254    -43.377594   1.000000   1.000000
    3      -42.936834    -42.936280   1.000000   1.000000
    4      -10.236061    -10.236162   1.000000   1.000000
    5       -0.486367     -0.486416   1.000000   1.000000
    6        0.065602      0.065523   1.000000   1.000000
    7        0.386009      0.385940   1.000000   1.000000
    8        3.593463      3.593341   0.000000   0.000000
    9        7.614606      7.614589   0.000000   0.000000
   10        8.534027      8.533982   0.000000   0.000000
   11        9.309777      9.309729   0.000000   0.000000
   12       12.243123     12.237411   0.000000   0.000000
 
 -0.2000000E+00  0.1000000E+00  0.0000000E+00  0.2500000E-02
    1      -43.601884    -43.601234   1.000000   1.000000
    2      -43.360297    -43.359636   1.000000   1.000000
    3      -42.936779    -42.936225   1.000000   1.000000
    4      -10.261634    -10.261731   1.000000   1.000000
    5       -0.106608     -0.106683   1.000000   1.000000
    6        0.032200      0.032137   1.000000   1.000000
    7        0.645586      0.645508   1.000000   1.000000
    8        2.922487      2.922372   0.000000   0.000000
    9        7.896577      7.896666   0.000000   0.000000
   10        8.822485      8.822438   0.000000   0.000000
   11        8.852238      8.852266   0.000000   0.000000
   12       12.169806     12.160186   0.000000   0.000000
 
 -0.1000000E+00  0.1000000E+00  0.0000000E+00  0.2500000E-02
    1      -43.611658    -43.611009   1.000000   1.000000
    2      -43.350790    -43.350128   1.000000   1.000000
    3      -42.936767    -42.936213   1.000000   1.000000
    4      -10.276351    -10.276445   1.000000   1.000000
    5       -0.204983     -0.205056   1.000000   1.000000
    6        0.505926      0.505854   1.000000   1.000000
    7        0.792833      0.792750   1.000000   1.000000
    8        2.420211      2.420086  -0.000000  -0.000000
    9        7.957403      7.957572   0.000000   0.000000
   10        8.416424      8.416435   0.000000   0.000000
   11        9.007030      9.006977   0.000000   0.000000
   12       12.513202     12.494208   0.000000   0.000000
 
  0.9588852E-18  0.2000000E+00  0.0000000E+00  0.2500000E-02
    1      -43.592193    -43.591543   1.000000   1.000000
    2      -43.369625    -43.368965   1.000000   1.000000
    3      -42.936720    -42.936166   1.000000   1.000000
    4      -10.241208    -10.241307   1.000000   1.000000
    5       -0.065363     -0.065415   1.000000   1.000000
    6       -0.033467     -0.033544   1.000000   1.000000
    7        0.413669      0.413597   1.000000   1.000000
    8        3.048661      3.048533   0.000000   0.000000
    9        7.999026      7.999161   0.000000   0.000000
   10        8.786254      8.786206   0.000000   0.000000
   11        8.818580      8.818626   0.000000   0.000000
   12       12.462124     12.456225   0.000000   0.000000
 
  0.1000000E+00  0.2000000E+00  0.0000000E+00  0.2500000E-02
    1      -43.576998    -43.576347   1.000000   1.000000
    2      -43.384387    -43.383727   1.000000   1.000000
    3      -42.936721    -42.936167   1.000000   1.000000
    4      -10.220317    -10.220420   1.000000   1.000000
    5       -0.432909     -0.432960   1.000000   1.000000
    6        0.097906      0.097827   1.000000   1.000000
    7        0.216517      0.216455   1.000000   1.000000
    8        3.539770      3.539644   0.000000   0.000000
    9        7.751558      7.751543   0.000000   0.000000
   10        8.610497      8.610448   0.000000   0.000000
   11        9.077456      9.077319   0.000000   0.000000
   12       12.433985     12.425809   0.000000   0.000000
 
  0.2000000E+00  0.2000000E+00  0.0000000E+00  0.2500000E-02
    1      -43.555364    -43.554712   1.000000   1.000000
    2      -43.405537    -43.404878   1.000000   1.000000
    3      -42.936726    -42.936172   1.000000   1.000000
    4      -10.196885    -10.196990   1.000000   1.000000
    5       -0.773418     -0.773463   1.000000   1.000000
    6       -0.036650     -0.036695   1.000000   1.000000
    7        0.264901      0.264819   1.000000   1.000000
    8        4.224843      4.224695   0.000000   0.000000
    9        7.366161      7.366080   0.000000   0.000000
   10        8.441477      8.441433   0.000000   0.000000
   11        8.930355      8.930637   0.000000   0.000000
   12       11.899172     11.899508   0.000000   0.000000
 
  0.3000000E+00  0.2000000E+00  0.0000000E+00  0.2500000E-02
    1      -43.533325    -43.532672   1.000000   1.000000
    2      -43.427216    -43.426558   1.000000   1.000000
    3      -42.936753    -42.936199   1.000000   1.000000
    4      -10.179858    -10.179965   1.000000   1.000000
    5       -0.991239     -0.991276   1.000000   1.000000
    6       -0.238289     -0.238326   1.000000   1.000000
    7        0.403959      0.403874   1.000000   1.000000
    8        5.023945      5.023785   0.000000   0.000000
    9        6.706059      6.706033   0.000000   0.000000
   10        8.361248      8.361210   0.000000   0.000000
   11        8.747531      8.749742   0.000000   0.000000
   12       10.976538     10.977063   0.000000   0.000000
 
  0.4000000E+00  0.2000000E+00  0.0000000E+00  0.2500000E-02
    1      -43.524290    -43.523637   1.000000   1.000000
    2      -43.436176    -43.435518   1.000000   1.000000
    3      -42.936780    -42.936227   1.000000   1.000000
    4      -10.175791    -10.175899   1.000000   1.000000
    5       -1.055423     -1.055457   1.000000   1.000000
    6       -0.313418     -0.313453   1.000000   1.000000
    7        0.453115      0.453028   1.000000   1.000000
    8        5.752457      5.750614   0.000000   0.000000
    9        6.036302      6.036324   0.000000   0.000000
   10        8.352986      8.352948   0.000000   0.000000
   11        8.695446      8.695832   0.000000   0.000000
   12       10.626587     10.626574   0.000000   0.000000
 
  0.5000000E+00  0.2000000E+00  0.0000000E+00  0.2500000E-02
    1      -43.537964    -43.537311   1.000000   1.000000
    2      -43.422666    -43.422008   1.000000   1.000000
    3      -42.936772    -42.936219   1.000000   1.000000
    4      -10.186116    -10.186224   1.000000   1.000000
    5       -0.968545     -0.968578   1.000000   1.000000
    6       -0.229481     -0.229521   1.000000   1.000000
    7        0.388434      0.388348   1.000000   1.000000
    8        5.035400      5.035184   0.000000   0.000000
    9        6.756007      6.755977   0.000000   0.000000
   10        8.360385      8.360353   0.000000   0.000000
   11        8.764661      8.764905   0.000000   0.000000
   12       10.962681     10.962688   0.000000   0.000000
 
 -0.4000000E+00  0.2000000E+00  0.0000000E+00  0.2500000E-02
    1      -43.560742    -43.560090   1.000000   1.000000
    2      -43.400334    -43.399675   1.000000   1.000000
    3      -42.936778    -42.936225   1.000000   1.000000
    4      -10.206927    -10.207032   1.000000   1.000000
    5       -0.752663     -0.752699   1.000000   1.000000
    6       -0.000475     -0.000525   1.000000   1.000000
    7        0.241442      0.241359   1.000000   1.000000
    8        4.264049      4.263904   0.000000   0.000000
    9        7.376954      7.376869   0.000000   0.000000
   10        8.426299      8.426268   0.000000   0.000000
   11        9.007527      9.008001   0.000000   0.000000
   12       11.878033     11.876770   0.000000   0.000000
 
 -0.3000000E+00  0.2000000E+00  0.0000000E+00  0.2500000E-02
    1      -43.581196    -43.580545   1.000000   1.000000
    2      -43.380339    -43.379679   1.000000   1.000000
    3      -42.936756    -42.936203   1.000000   1.000000
    4      -10.230206    -10.230308   1.000000   1.000000
    5       -0.444852     -0.444894   1.000000   1.000000
    6        0.076200      0.076121   1.000000   1.000000
    7        0.298002      0.297938   1.000000   1.000000
    8        3.579884      3.579753   0.000000   0.000000
    9        7.677330      7.677316   0.000000   0.000000
   10        8.580788      8.580759   0.000000   0.000000
   11        9.225739      9.225694   0.000000   0.000000
   12       12.322739     12.312878   0.000000   0.000000
 
 -0.2000000E+00  0.2000000E+00  0.0000000E+00  0.2500000E-02
    1      -43.594497    -43.593847   1.000000   1.000000
    2      -43.367410    -43.366750   1.000000   1.000000
    3      -42.936748    -42.936194   1.000000   1.000000
    4      -10.247181    -10.247280   1.000000   1.000000
    5       -0.115019     -0.115065   1.000000   1.000000
    6       -0.046128     -0.046205   1.000000   1.000000
    7        0.518858      0.518783   1.000000   1.000000
    8        3.066313      3.066181   0.000000   0.000000
    9        7.873809      7.873907   0.000000   0.000000
   10        8.760441      8.760398   0.000000   0.000000
   11        8.965992      8.966139   0.000000   0.000000
   12       12.341181     12.339669   0.000000   0.000000
 
 -0.1000000E+00  0.2000000E+00  0.0000000E+00  0.2500000E-02
    1      -43.598315    -43.597665   1.000000   1.000000
    2      -43.363640    -43.362980   1.000000   1.000000
    3      -42.936712    -42.936158   1.000000   1.000000
    4      -10.251380    -10.251479   1.000000   1.000000
    5       -0.086645     -0.086721   1.000000   1.000000
    6        0.085927      0.085879   1.000000   1.000000
    7        0.525306      0.525244   1.000000   1.000000
    8        2.865389      2.865256   0.000000   0.000000
    9        8.131708      8.131682   0.000000   0.000000
   10        8.561085      8.564918   0.000000   0.000000
   11        8.852298      8.852250   0.000000   0.000000
   12       12.520350     12.533392   0.000000   0.000000
 
  0.4520156E-16  0.3000000E+00  0.0000000E+00  0.2500000E-02
    1      -43.563302    -43.562650   1.000000   1.000000
    2      -43.397672    -43.397013   1.000000   1.000000
    3      -42.936670    -42.936116   1.000000   1.000000
    4      -10.199325    -10.199431   1.000000   1.000000
    5       -0.615449     -0.615478   1.000000   1.000000
    6        0.091452      0.091394   1.000000   1.000000
    7        0.190597      0.190515   1.000000   1.000000
    8        3.752445      3.752317   0.000000   0.000000
    9        7.369151      7.369160   0.000000   0.000000
   10        8.533084      8.533046   0.000000   0.000000
   11        9.455899      9.455935   0.000000   0.000000
   12       12.774647     12.713675   0.000000   0.000000
 
  0.1000000E+00  0.3000000E+00  0.0000000E+00  0.2500000E-02
    1      -43.545323    -43.544670   1.000000   1.000000
    2      -43.415297    -43.414638   1.000000   1.000000
    3      -42.936697    -42.936143   1.000000   1.000000
    4      -10.181769    -10.181877   1.000000   1.000000
    5       -0.819989     -0.820019   1.000000   1.000000
    6       -0.113431     -0.113485   1.000000   1.000000
    7        0.311600      0.311516   1.000000   1.000000
    8        4.271783      4.271650   0.000000   0.000000
    9        7.025213      7.025216   0.000000   0.000000
   10        8.449196      8.449161   0.000000   0.000000
   11        9.310223      9.310209   0.000000   0.000000
   12       11.929954     11.929890   0.000000   0.000000
 
  0.2000000E+00  0.3000000E+00  0.0000000E+00  0.2500000E-02
    1      -43.522861    -43.522207   1.000000   1.000000
    2      -43.437395    -43.436737   1.000000   1.000000
    3      -42.936703    -42.936149   1.000000   1.000000
    4      -10.167171    -10.167280   1.000000   1.000000
    5       -0.925050     -0.925081   1.000000   1.000000
    6       -0.390423     -0.390456   1.000000   1.000000
    7        0.430420      0.430333   1.000000   1.000000
    8        5.001659      5.001524   0.000000   0.000000
    9        6.758515      6.758438   0.000000   0.000000
   10        8.535065      8.535029   0.000000   0.000000
   11        8.611518      8.612522   0.000000   0.000000
   12       10.741622     10.741526   0.000000   0.000000
 
  0.3000000E+00  0.3000000E+00  0.0000000E+00  0.2500000E-02
    1      -43.503871    -43.503216   1.000000   1.000000
    2      -43.456226    -43.455569   1.000000   1.000000
    3      -42.936728    -42.936174   1.000000   1.000000
    4      -10.161077    -10.161188   1.000000   1.000000
    5       -0.909806     -0.909844   1.000000   1.000000
    6       -0.618427     -0.618445   1.000000   1.000000
    7        0.498950      0.498862   1.000000   1.000000
    8        5.784514      5.784180   0.000000   0.000000
    9        6.465832      6.465688   0.000000   0.000000
   10        7.976785      7.976924   0.000000   0.000000
   11        8.829290      8.829252   0.000000   0.000000
   12        9.822163      9.822166   0.000000   0.000000
 
  0.4000000E+00  0.3000000E+00  0.0000000E+00  0.2500000E-02
    1      -43.510571    -43.509917   1.000000   1.000000
    2      -43.449614    -43.448957   1.000000   1.000000
    3      -42.936751    -42.936197   1.000000   1.000000
    4      -10.165589    -10.165700   1.000000   1.000000
    5       -0.914651     -0.914680   1.000000   1.000000
    6       -0.588146     -0.588170   1.000000   1.000000
    7        0.487982      0.487893   1.000000   1.000000
    8        5.760311      5.759949   0.000000   0.000000
    9        6.530711      6.530542   0.000000   0.000000
   10        7.981228      7.982100   0.000000   0.000000
   11        8.769446      8.769425   0.000000   0.000000
   12        9.889356      9.889378   0.000000   0.000000
 
  0.5000000E+00  0.3000000E+00  0.0000000E+00  0.2500000E-02
    1      -43.532895    -43.532241   1.000000   1.000000
    2      -43.427577    -43.426919   1.000000   1.000000
    3      -42.936749    -42.936195   1.000000   1.000000
    4      -10.178809    -10.178918   1.000000   1.000000
    5       -0.932445     -0.932465   1.000000   1.000000
    6       -0.311551     -0.311592   1.000000   1.000000
    7        0.402721      0.402634   1.000000   1.000000
    8        5.025076      5.024894   0.000000   0.000000
    9        6.778083      6.777999   0.000000   0.000000
   10        8.452411      8.452394   0.000000   0.000000
   11        8.692707      8.693256   0.000000   0.000000
   12       10.840090     10.840140   0.000000   0.000000
 
 -0.4000000E+00  0.3000000E+00  0.0000000E+00  0.2500000E-02
    1      -43.553888    -43.553236   1.000000   1.000000
    2      -43.406952    -43.406293   1.000000   1.000000
    3      -42.936727    -42.936173   1.000000   1.000000
    4      -10.195928    -10.196037   1.000000   1.000000
    5       -0.843329     -0.843350   1.000000   1.000000
    6        0.010638      0.010578   1.000000   1.000000
    7        0.279226      0.279142   1.000000   1.000000
    8        4.310554      4.310413   0.000000   0.000000
    9        6.981762      6.981787   0.000000   0.000000
   10        8.360809      8.360799   0.000000   0.000000
   11        9.477177      9.477604   0.000000   0.000000
   12       12.027380     12.028214   0.000000   0.000000
 
 -0.3000000E+00  0.3000000E+00  0.0000000E+00  0.2500000E-02
    1      -43.568943    -43.568292   1.000000   1.000000
    2      -43.392237    -43.391578   1.000000   1.000000
    3      -42.936718    -42.936164   1.000000   1.000000
    4      -10.210636    -10.210740   1.000000   1.000000
    5       -0.661071     -0.661094   1.000000   1.000000
    6        0.165768      0.165687   1.000000   1.000000
    7        0.232591      0.232527   1.000000   1.000000
    8        3.777968      3.777832   0.000000   0.000000
    9        7.287034      7.286962   0.000000   0.000000
   10        8.455283      8.455262   0.000000   0.000000
   11        9.615398      9.615631   0.000000   0.000000
   12       12.542952     12.542760   0.000000   0.000000
 
 -0.2000000E+00  0.3000000E+00  0.0000000E+00  0.2500000E-02
    1      -43.575934    -43.575283   1.000000   1.000000
    2      -43.385423    -43.384763   1.000000   1.000000
    3      -42.936707    -42.936153   1.000000   1.000000
    4      -10.217180    -10.217279   1.000000   1.000000
    5       -0.468417     -0.468441   1.000000   1.000000
    6        0.103035      0.102956   1.000000   1.000000
    7        0.258647      0.258570   1.000000   1.000000
    8        3.511282      3.511167   0.000000   0.000000
    9        7.704748      7.704676   0.000000   0.000000
   10        8.596593      8.596565   0.000000   0.000000
   11        9.072146      9.076405   0.000000   0.000000
   12       12.587860     12.824020   0.000000   0.000000
 
 -0.1000000E+00  0.3000000E+00  0.0000000E+00  0.2500000E-02
    1      -43.573959    -43.573308   1.000000   1.000000
    2      -43.387287    -43.386627   1.000000   1.000000
    3      -42.936671    -42.936118   1.000000   1.000000
    4      -10.212910    -10.213012   1.000000   1.000000
    5       -0.434621     -0.434648   1.000000   1.000000
    6        0.112219      0.112139   1.000000   1.000000
    7        0.184114      0.184031   1.000000   1.000000
    8        3.503878      3.503729   0.000000   0.000000
    9        7.769724      7.769657   0.000000   0.000000
   10        8.629859      8.629824   0.000000   0.000000
   11        8.995584      8.999977   0.000000   0.000000
   12       12.718160     12.702984   0.000000   0.000000
 
 -0.2601947E-17  0.4000000E+00  0.0000000E+00  0.2500000E-02
    1      -43.529126    -43.528472   1.000000   1.000000
    2      -43.431149    -43.430491   1.000000   1.000000
    3      -42.936656    -42.936103   1.000000   1.000000
    4      -10.165082    -10.165194   1.000000   1.000000
    5       -0.979272     -0.979285   1.000000   1.000000
    6       -0.138824     -0.138883   1.000000   1.000000
    7        0.387694      0.387611   1.000000   1.000000
    8        4.524579      4.524456   0.000000   0.000000
    9        6.485279      6.485206   0.000000   0.000000
   10        8.343398      8.343377   0.000000   0.000000
   11        9.750818      9.750752   0.000000   0.000000
   12       11.957358     11.957738   0.000000   0.000000
 
  0.1000000E+00  0.4000000E+00  0.0000000E+00  0.2500000E-02
    1      -43.511886    -43.511232   1.000000   1.000000
    2      -43.448187    -43.447529   1.000000   1.000000
    3      -42.936674    -42.936121   1.000000   1.000000
    4      -10.156249    -10.156364   1.000000   1.000000
    5       -1.040116     -1.040128   1.000000   1.000000
    6       -0.292747     -0.292804   1.000000   1.000000
    7        0.456351      0.456265   1.000000   1.000000
    8        5.064984      5.064866   0.000000   0.000000
    9        6.132590      6.132406   0.000000   0.000000
   10        8.381633      8.381620   0.000000   0.000000
   11        9.374419      9.375272   0.000000   0.000000
   12       11.221060     11.221093   0.000000   0.000000
 
  0.2000000E+00  0.4000000E+00  0.0000000E+00  0.2500000E-02
    1      -43.492062    -43.491407   1.000000   1.000000
    2      -43.467901    -43.467244   1.000000   1.000000
    3      -42.936695    -42.936141   1.000000   1.000000
    4      -10.152528    -10.152640   1.000000   1.000000
    5       -0.974009     -0.974022   1.000000   1.000000
    6       -0.536262     -0.536303   1.000000   1.000000
    7        0.503235      0.503146   1.000000   1.000000
    8        5.776028      5.775906   0.000000   0.000000
    9        5.985012      5.981825   0.000000   0.000000
   10        8.516353      8.517160   0.000000   0.000000
   11        8.675448      8.675431   0.000000   0.000000
   12       10.222854     10.222827   0.000000   0.000000
 
  0.3000000E+00  0.4000000E+00  0.0000000E+00  0.2500000E-02
    1      -43.491014    -43.490358   1.000000   1.000000
    2      -43.468989    -43.468333   1.000000   1.000000