 running on   12 total cores
 distrk:  each k-point on   12 cores,    1 groups
 distr:  one band on    6 cores,    2 groups
 using from now: INCAR     
 vasp.6.1.2 22Jul20 (build Mar 20 2021 11:25:07) complex                        
  
 POSCAR found type information on POSCAR LiO 
 POSCAR found :  2 types and       9 ions
 scaLAPACK will be used
 LDA part: xc-table for Pade appr. of Perdew
 generate k-points for:    8    7    7
 POSCAR, INCAR and KPOINTS ok, starting setup
 FFT: planning ...
 WAVECAR not read
 entering main loop
       N       E                     dE             d eps       ncg     rms          rms(c)
DAV:   1     0.366160006121E+03    0.36616E+03   -0.28183E+04 26808   0.147E+03
DAV:   2    -0.184348458497E+02   -0.38459E+03   -0.37161E+03 34838   0.354E+02
DAV:   3    -0.433176812131E+02   -0.24883E+02   -0.24627E+02 39316   0.912E+01
DAV:   4    -0.442272763815E+02   -0.90960E+00   -0.90511E+00 45422   0.125E+01
DAV:   5    -0.442991140765E+02   -0.71838E-01   -0.71835E-01 35818   0.173E+00    0.147E+01
RMM:   6    -0.447694546876E+02   -0.47034E+00   -0.34369E+00 30852   0.977E+00    0.117E+01
RMM:   7    -0.439997207072E+02    0.76973E+00   -0.12691E+00 30406   0.610E+00    0.615E+00
RMM:   8    -0.437497696636E+02    0.24995E+00   -0.59432E-01 30709   0.445E+00    0.401E+00
RMM:   9    -0.437165635411E+02    0.33206E-01   -0.22076E-01 31460   0.270E+00    0.262E+00
RMM:  10    -0.436965679079E+02    0.19996E-01   -0.71830E-02 32698   0.158E+00    0.109E+00
RMM:  11    -0.437006469258E+02   -0.40790E-02   -0.19869E-02 35876   0.808E-01    0.101E+00
RMM:  12    -0.436969559188E+02    0.36910E-02   -0.76427E-03 35283   0.551E-01    0.326E-01
WARNING in EDDRMM: call to ZHEGV failed, returncode =   6  3      5
RMM:  13    -0.436988707049E+02   -0.19148E-02   -0.42153E-03 38553   0.410E-01    0.190E-01
RMM:  14    -0.436999327743E+02   -0.10621E-02   -0.19979E-03 41132   0.260E-01    0.191E-01
RMM:  15    -0.437010029849E+02   -0.10702E-02   -0.14998E-03 40632   0.225E-01    0.196E-01
WARNING in EDDRMM: call to ZHEGV failed, returncode =   8  4     14
RMM:  16    -0.437014588258E+02   -0.45584E-03   -0.58030E-04 43091   0.133E-01    0.201E-01
RMM:  17    -0.436983631566E+02    0.30957E-02   -0.79969E-03 51091   0.535E-01    0.214E-01
RMM:  18    -0.436991692643E+02   -0.80611E-03   -0.41248E-04 35227   0.177E-01    0.205E-01
RMM:  19    -0.437020609858E+02   -0.28917E-02   -0.38690E-02 52756   0.118E+00    0.247E-01
RMM:  20    -0.436954532129E+02    0.66078E-02   -0.52262E-02 52774   0.127E+00    0.545E-01
RMM:  21    -0.436997320655E+02   -0.42789E-02   -0.15307E-03 45386   0.327E-01    0.503E-01
RMM:  22    -0.437019100608E+02   -0.21780E-02   -0.43284E-03 50711   0.389E-01    0.413E-01
WARNING in EDDRMM: call to ZHEGV failed, returncode =   6  3     15
RMM:  23    -0.437019916241E+02   -0.81563E-04   -0.84038E-05 37513   0.772E-02    0.403E-01
RMM:  24    -0.437016005098E+02    0.39111E-03   -0.40500E-03 50536   0.369E-01    0.407E-01
RMM:  25    -0.437013977164E+02    0.20279E-03   -0.34865E-03 50778   0.346E-01    0.408E-01
RMM:  26    -0.437046268858E+02   -0.32292E-02   -0.16103E-03 49035   0.260E-01    0.263E-01
RMM:  27    -0.437031939645E+02    0.14329E-02   -0.25113E-03 50163   0.288E-01    0.338E-01
RMM:  28    -0.437071416229E+02   -0.39477E-02   -0.74592E-03 51588   0.509E-01    0.141E-01
RMM:  29    -0.437075592207E+02   -0.41760E-03   -0.27868E-04 35986   0.141E-01    0.143E-01
RMM:  30    -0.437085717737E+02   -0.10126E-02   -0.18521E-03 48572   0.237E-01    0.697E-02
RMM:  31    -0.437091280794E+02   -0.55631E-03   -0.80982E-04 43992   0.149E-01    0.590E-02
RMM:  32    -0.437093514384E+02   -0.22336E-03   -0.12607E-04 35744   0.734E-02    0.527E-02
RMM:  33    -0.437094163829E+02   -0.64944E-04   -0.30498E-04 38527   0.115E-01    0.269E-02
RMM:  34    -0.437094912308E+02   -0.74848E-04   -0.67956E-05 34336   0.527E-02    0.312E-02
WARNING in EDDRMM: call to ZHEGV failed, returncode =   6  3     13
RMM:  35    -0.437094640837E+02    0.27147E-04   -0.39929E-05 28456   0.389E-02    0.227E-02
RMM:  36    -0.437093309550E+02    0.13313E-03   -0.12016E-04 36455   0.620E-02    0.932E-03
WARNING in EDDRMM: call to ZHEGV failed, returncode =   6  3     16
WARNING in EDDRMM: call to ZHEGV failed, returncode =   8  4     16
RMM:  37    -0.437092976742E+02    0.33281E-04   -0.16116E-05 19065   0.247E-02    0.821E-03
RMM:  38    -0.437092975660E+02    0.10821E-06   -0.22850E-06 18502   0.903E-03
   1 F= -.43709298E+02 E0= -.43709298E+02  d E =0.000000E+00  mag=     0.3593
 -----------------------------------------------------------------------------
|                                                                             |
|           W    W    AA    RRRRR   N    N  II  N    N   GGGG   !!!           |
|           W    W   A  A   R    R  NN   N  II  NN   N  G    G  !!!           |
|           W    W  A    A  R    R  N N  N  II  N N  N  G       !!!           |
|           W WW W  AAAAAA  RRRRR   N  N N  II  N  N N  G  GGG   !            |
|           WW  WW  A    A  R   R   N   NN  II  N   NN  G    G                |
|           W    W  A    A  R    R  N    N  II  N    N   GGGG   !!!           |
|                                                                             |
|     Tetrahedron method does not include variations of the Fermi             |
|     occupations, so forces and stress will be inaccurate. We suggest        |
|     using a different smearing scheme ISMEAR = 1 or 2 for metals in         |
|     relaxations.                                                            |
|                                                                             |
 -----------------------------------------------------------------------------

