   26   26    1    2
  0.1076117E+02  0.5144598E-09  0.7070766E-09  0.8477094E-09  0.5000000E-15
  1.000000000000000E-004
  CAR 
 unknown system                          
    128     71     86
 
  0.0000000E+00  0.0000000E+00  0.0000000E+00  0.7142857E-02
    1      -41.409746    -41.409667   1.000000   1.000000
    2      -41.408901    -41.408822   1.000000   1.000000
    3      -41.238270    -41.238192   1.000000   1.000000
    4      -41.236550    -41.236472   1.000000   1.000000
    5      -41.198053    -41.197976   1.000000   1.000000
    6      -41.182299    -41.182221   1.000000   1.000000
    7      -41.140710    -41.140634   1.000000   1.000000
    8      -41.140656    -41.140580   1.000000   1.000000
    9      -20.058990    -20.058971   1.000000   1.000000
   10      -19.993259    -19.993240   1.000000   1.000000
   11      -18.740593    -18.740574   1.000000   1.000000
   12      -18.704289    -18.704269   1.000000   1.000000
   13      -17.391338    -17.391316   1.000000   1.000000
   14      -17.314069    -17.314048   1.000000   1.000000
   15      -16.756580    -16.756557   1.000000   1.000000
   16      -16.721181    -16.721158   1.000000   1.000000
   17      -16.546344    -16.546324   1.000000   1.000000
   18      -16.535203    -16.535182   1.000000   1.000000
   19      -16.480430    -16.480409   1.000000   1.000000
   20      -16.462923    -16.462901   1.000000   1.000000
   21      -16.411261    -16.411241   1.000000   1.000000
   22      -16.407430    -16.407409   1.000000   1.000000
   23       -8.362850     -8.362836   1.000000   1.000000
   24       -8.331818     -8.331805   1.000000   1.000000
   25       -5.705516     -5.705500   1.000000   1.000000
   26       -5.251601     -5.251586   1.000000   1.000000
   27       -4.784586     -4.784570   1.000000   1.000000
   28       -4.647345     -4.647331   1.000000   1.000000
   29       -4.386205     -4.386190   1.000000   1.000000
   30       -4.190025     -4.190009   1.000000   1.000000
   31       -4.053748     -4.053733   1.000000   1.000000
   32       -4.041034     -4.041019   1.000000   1.000000
   33       -3.598862     -3.598847   1.000000   1.000000
   34       -3.518084     -3.518070   1.000000   1.000000
   35       -3.456164     -3.456149   1.000000   1.000000
   36       -3.294523     -3.294506   1.000000   1.000000
   37       -2.923851     -2.923834   1.000000   1.000000
   38       -2.622999     -2.622983   1.000000   1.000000
   39       -2.252272     -2.252254   1.000000   1.000000
   40       -1.970543     -1.970525   1.000000   1.000000
   41       -1.962147     -1.962130   1.000000   1.000000
   42       -1.659493     -1.659475   1.000000   1.000000
   43       -1.618563     -1.618545   1.000000   1.000000
   44       -1.422003     -1.421984   1.000000   1.000000
   45       -1.294910     -1.294892   1.000000   1.000000
   46       -1.225786     -1.225767   1.000000   1.000000
   47       -1.173730     -1.173712   1.000000   1.000000
   48       -0.956033     -0.956015   1.000000   1.000000
   49       -0.817322     -0.817304   1.000000   1.000000
   50       -0.781158     -0.781139   1.000000   1.000000
   51       -0.737714     -0.737695   1.000000   1.000000
   52       -0.459241     -0.459221   1.000000   1.000000
   53       -0.340251     -0.340231   1.000000   1.000000
   54       -0.092807     -0.092787   1.000000   1.000000
   55        0.020657      0.020675   1.000000   1.000000
   56        0.022824      0.022843   1.000000   1.000000
   57        0.182684      0.182703   1.000000   1.000000
   58        0.248078      0.248099   1.000000   1.000000
   59        0.263972      0.263992   1.000000   1.000000
   60        0.393221      0.393241   1.000000   1.000000
   61        0.467866      0.467886   1.000000   1.000000
   62        0.533935      0.533954   1.000000   1.000000
   63        0.762535      0.762555   1.000000   1.000000
   64        0.779953      0.779973   1.000000   1.000000
   65        6.810285      6.810305   0.000001   0.000001
   66        9.146361      9.146349   0.000000   0.000000
   67        9.148850      9.148881   0.000000   0.000000
   68        9.497770      9.497803   0.000000   0.000000
   69        9.551285      9.551201   0.000000   0.000000
   70        9.697432      9.697461   0.000000   0.000000
   71        9.977029      9.977013   0.000000   0.000000
   72       10.068507     10.068587   0.000000   0.000000
   73       10.380415     10.380453   0.000000   0.000000
   74       10.531053     10.531112   0.000000   0.000000
   75       10.680494     10.679898   0.000000   0.000000
   76       10.985572     10.985823   0.000000   0.000000
   77       11.154670     11.155188   0.000000   0.000000
   78       11.181272     11.181836   0.000000   0.000000
   79       11.571485     11.568620   0.000000   0.000000
   80       11.589788     11.593274   0.000000   0.000000
   81       11.779970     11.797910   0.000000   0.000000
   82       11.858067     11.864196   0.000000   0.000000
   83       12.148874     12.131666   0.000000   0.000000
   84       12.228571     12.319038   0.000000   0.000000
   85       12.302397     12.705600   0.000000   0.000000
   86       12.775179     12.828850   0.000000   0.000000
 
  0.1428571E+00 -0.1983221E-16 -0.4998442E-15  0.1428571E-01
    1      -41.409743    -41.409665   1.000000   1.000000
    2      -41.408894    -41.408816   1.000000   1.000000
    3      -41.238200    -41.238122   1.000000   1.000000
    4      -41.236505    -41.236427   1.000000   1.000000
    5      -41.198031    -41.197953   1.000000   1.000000
    6      -41.182403    -41.182326   1.000000   1.000000
    7      -41.140766    -41.140690   1.000000   1.000000
    8      -41.140657    -41.140581   1.000000   1.000000
    9      -20.053446    -20.053428   1.000000   1.000000
   10      -19.993828    -19.993809   1.000000   1.000000
   11      -18.738922    -18.738902   1.000000   1.000000
   12      -18.706099    -18.706080   1.000000   1.000000
   13      -17.384534    -17.384513   1.000000   1.000000
   14      -17.315255    -17.315235   1.000000   1.000000
   15      -16.753785    -16.753762   1.000000   1.000000
   16      -16.720811    -16.720788   1.000000   1.000000
   17      -16.554862    -16.554841   1.000000   1.000000
   18      -16.541704    -16.541683   1.000000   1.000000
   19      -16.483007    -16.482986   1.000000   1.000000
   20      -16.466048    -16.466027   1.000000   1.000000
   21      -16.415790    -16.415769   1.000000   1.000000
   22      -16.410749    -16.410729   1.000000   1.000000
   23       -8.369700     -8.369687   1.000000   1.000000
   24       -8.337572     -8.337558   1.000000   1.000000
   25       -5.686113     -5.686097   1.000000   1.000000
   26       -5.251091     -5.251075   1.000000   1.000000
   27       -4.775158     -4.775143   1.000000   1.000000
   28       -4.633153     -4.633138   1.000000   1.000000
   29       -4.365660     -4.365645   1.000000   1.000000
   30       -4.182540     -4.182524   1.000000   1.000000
   31       -4.043162     -4.043147   1.000000   1.000000
   32       -3.996345     -3.996329   1.000000   1.000000
   33       -3.545305     -3.545290   1.000000   1.000000
   34       -3.516533     -3.516517   1.000000   1.000000
   35       -3.401225     -3.401210   1.000000   1.000000
   36       -3.267258     -3.267241   1.000000   1.000000
   37       -2.918866     -2.918849   1.000000   1.000000
   38       -2.579106     -2.579090   1.000000   1.000000
   39       -2.218042     -2.218025   1.000000   1.000000
   40       -2.013157     -2.013140   1.000000   1.000000
   41       -1.941927     -1.941909   1.000000   1.000000
   42       -1.723390     -1.723371   1.000000   1.000000
   43       -1.633877     -1.633858   1.000000   1.000000
   44       -1.399809     -1.399790   1.000000   1.000000
   45       -1.333419     -1.333400   1.000000   1.000000
   46       -1.198680     -1.198661   1.000000   1.000000
   47       -1.165199     -1.165181   1.000000   1.000000
   48       -0.978575     -0.978557   1.000000   1.000000
   49       -0.893941     -0.893923   1.000000   1.000000
   50       -0.855401     -0.855383   1.000000   1.000000
   51       -0.801398     -0.801379   1.000000   1.000000
   52       -0.501412     -0.501392   1.000000   1.000000
   53       -0.312650     -0.312630   1.000000   1.000000
   54       -0.113213     -0.113192   1.000000   1.000000
   55       -0.009122     -0.009104   1.000000   1.000000
   56        0.019031      0.019049   1.000000   1.000000
   57        0.146070      0.146089   1.000000   1.000000
   58        0.204923      0.204943   1.000000   1.000000
   59        0.300317      0.300337   1.000000   1.000000
   60        0.388810      0.388830   1.000000   1.000000
   61        0.485257      0.485278   1.000000   1.000000
   62        0.539540      0.539559   1.000000   1.000000
   63        0.754779      0.754799   1.000000   1.000000
   64        0.792206      0.792226   1.000000   1.000000
   65        7.010604      7.010623  -0.000000  -0.000000
   66        9.025395      9.025400   0.000000   0.000000
   67        9.155364      9.155251   0.000000   0.000000
   68        9.447213      9.447055   0.000000   0.000000
   69        9.493951      9.493961   0.000000   0.000000
   70        9.756963      9.756964   0.000000   0.000000
   71        9.920251      9.920148   0.000000   0.000000
   72       10.276144     10.275899   0.000000   0.000000
   73       10.392531     10.392575   0.000000   0.000000
   74       10.611177     10.611149   0.000000   0.000000
   75       10.708586     10.708649   0.000000   0.000000
   76       10.900717     10.900829   0.000000   0.000000
   77       11.023219     11.023776   0.000000   0.000000
   78       11.214321     11.213019   0.000000   0.000000
   79       11.275783     11.276197   0.000000   0.000000
   80       11.515192     11.516664   0.000000   0.000000
   81       11.664449     11.664907   0.000000   0.000000
   82       11.680927     11.706919   0.000000   0.000000
   83       11.900167     11.906997   0.000000   0.000000
   84       12.303860     12.246517   0.000000   0.000000
   85       12.555457     12.608811   0.000000   0.000000
   86       12.665069     12.909084   0.000000   0.000000
 
  0.2857143E+00  0.1081377E-17 -0.9881627E-15  0.1428571E-01
    1      -41.409701    -41.409622   1.000000   1.000000
    2      -41.408885    -41.408807   1.000000   1.000000
    3      -41.238006    -41.237928   1.000000   1.000000
    4      -41.236378    -41.236300   1.000000   1.000000
    5      -41.197952    -41.197874   1.000000   1.000000
    6      -41.182658    -41.182581   1.000000   1.000000
    7      -41.140835    -41.140759   1.000000   1.000000
    8      -41.140687    -41.140611   1.000000   1.000000
    9      -20.039261    -20.039242   1.000000   1.000000
   10      -19.996741    -19.996722   1.000000   1.000000
   11      -18.734867    -18.734847   1.000000   1.000000
   12      -18.710481    -18.710461   1.000000   1.000000
   13      -17.367234    -17.367213   1.000000   1.000000
   14      -17.319718    -17.319698   1.000000   1.000000
   15      -16.746581    -16.746558   1.000000   1.000000
   16      -16.720076    -16.720053   1.000000   1.000000
   17      -16.573484    -16.573464   1.000000   1.000000
   18      -16.558033    -16.558012   1.000000   1.000000
   19      -16.487853    -16.487832   1.000000   1.000000
   20      -16.473859    -16.473838   1.000000   1.000000
   21      -16.425102    -16.425081   1.000000   1.000000
   22      -16.418591    -16.418570   1.000000   1.000000
   23       -8.384425     -8.384411   1.000000   1.000000
   24       -8.351314     -8.351300   1.000000   1.000000
   25       -5.641370     -5.641354   1.000000   1.000000
   26       -5.252762     -5.252746   1.000000   1.000000
   27       -4.743910     -4.743895   1.000000   1.000000
   28       -4.613675     -4.613660   1.000000   1.000000
   29       -4.324340     -4.324324   1.000000   1.000000
   30       -4.170348     -4.170331   1.000000   1.000000
   31       -3.975333     -3.975317   1.000000   1.000000
   32       -3.914962     -3.914946   1.000000   1.000000
   33       -3.562419     -3.562404   1.000000   1.000000
   34       -3.366100     -3.366084   1.000000   1.000000
   35       -3.272433     -3.272417   1.000000   1.000000
   36       -3.180571     -3.180556   1.000000   1.000000
   37       -2.894786     -2.894769   1.000000   1.000000
   38       -2.495497     -2.495481   1.000000   1.000000
   39       -2.167785     -2.167767   1.000000   1.000000
   40       -2.027325     -2.027307   1.000000   1.000000
   41       -1.949792     -1.949774   1.000000   1.000000
   42       -1.800057     -1.800038   1.000000   1.000000
   43       -1.653230     -1.653211   1.000000   1.000000
   44       -1.457625     -1.457607   1.000000   1.000000
   45       -1.358916     -1.358898   1.000000   1.000000
   46       -1.242762     -1.242744   1.000000   1.000000
   47       -1.236606     -1.236587   1.000000   1.000000
   48       -1.089716     -1.089698   1.000000   1.000000
   49       -1.003071     -1.003053   1.000000   1.000000
   50       -0.958861     -0.958842   1.000000   1.000000
   51       -0.875416     -0.875398   1.000000   1.000000
   52       -0.596568     -0.596549   1.000000   1.000000
   53       -0.269700     -0.269680   1.000000   1.000000
   54       -0.160706     -0.160685   1.000000   1.000000
   55       -0.081911     -0.081893   1.000000   1.000000
   56       -0.007818     -0.007799   1.000000   1.000000
   57        0.097518      0.097537   1.000000   1.000000
   58        0.160766      0.160785   1.000000   1.000000
   59        0.314674      0.314693   1.000000   1.000000
   60        0.372494      0.372513   1.000000   1.000000
   61        0.532444      0.532464   1.000000   1.000000
   62        0.552979      0.552998   1.000000   1.000000
   63        0.756533      0.756553   1.000000   1.000000
   64        0.803959      0.803979   1.000000   1.000000
   65        7.521598      7.521616   0.000000   0.000000
   66        8.923838      8.923822   0.000000   0.000000
   67        9.121171      9.120971   0.000000   0.000000
   68        9.314591      9.314570   0.000000   0.000000
   69        9.559206      9.559181   0.000000   0.000000
   70        9.744675      9.744716   0.000000   0.000000
   71       10.040093     10.040212   0.000000   0.000000
   72       10.232234     10.232197   0.000000   0.000000
   73       10.319456     10.319531   0.000000   0.000000
   74       10.479172     10.479018   0.000000   0.000000
   75       10.633296     10.633369   0.000000   0.000000
   76       10.777558     10.777271   0.000000   0.000000
   77       10.892002     10.892131   0.000000   0.000000
   78       11.057224     11.057423   0.000000   0.000000
   79       11.156802     11.156391   0.000000   0.000000
   80       11.358162     11.356182   0.000000   0.000000
   81       11.447480     11.447129   0.000000   0.000000
   82       11.535255     11.535186   0.000000   0.000000
   83       11.798570     11.796393   0.000000   0.000000
   84       12.102889     12.116592   0.000000   0.000000
   85       12.370059     12.349811   0.000000   0.000000
   86       12.682442     12.674930   0.000000   0.000000
 
  0.4285714E+00  0.1276049E-16 -0.1505772E-14  0.1428571E-01
    1      -41.409651    -41.409573   1.000000   1.000000
    2      -41.408872    -41.408793   1.000000   1.000000
    3      -41.237838    -41.237759   1.000000   1.000000
    4      -41.236274    -41.236196   1.000000   1.000000
    5      -41.197882    -41.197804   1.000000   1.000000
    6      -41.182857    -41.182779   1.000000   1.000000
    7      -41.140888    -41.140812   1.000000   1.000000
    8      -41.140701    -41.140625   1.000000   1.000000
    9      -20.023550    -20.023532   1.000000   1.000000
   10      -20.003335    -20.003316   1.000000   1.000000
   11      -18.730810    -18.730790   1.000000   1.000000
   12      -18.714762    -18.714742   1.000000   1.000000
   13      -17.346803    -17.346782   1.000000   1.000000
   14      -17.329568    -17.329547   1.000000   1.000000
   15      -16.739508    -16.739485   1.000000   1.000000
   16      -16.719778    -16.719755   1.000000   1.000000
   17      -16.588407    -16.588386   1.000000   1.000000
   18      -16.572534    -16.572513   1.000000   1.000000
   19      -16.489238    -16.489217   1.000000   1.000000
   20      -16.482667    -16.482646   1.000000   1.000000
   21      -16.433294    -16.433274   1.000000   1.000000
   22      -16.423752    -16.423731   1.000000   1.000000
   23       -8.395713     -8.395700   1.000000   1.000000
   24       -8.363019     -8.363006   1.000000   1.000000
   25       -5.602649     -5.602634   1.000000   1.000000
   26       -5.259619     -5.259604   1.000000   1.000000
   27       -4.707922     -4.707908   1.000000   1.000000
   28       -4.610449     -4.610435   1.000000   1.000000
   29       -4.296186     -4.296170   1.000000   1.000000
   30       -4.165554     -4.165537   1.000000   1.000000
   31       -3.881331     -3.881315   1.000000   1.000000
   32       -3.846888     -3.846872   1.000000   1.000000
   33       -3.601349     -3.601333   1.000000   1.000000
   34       -3.247364     -3.247348   1.000000   1.000000
   35       -3.162613     -3.162598   1.000000   1.000000
   36       -3.052995     -3.052979   1.000000   1.000000
   37       -2.858747     -2.858730   1.000000   1.000000
   38       -2.447646     -2.447630   1.000000   1.000000
   39       -2.165894     -2.165877   1.000000   1.000000
   40       -1.971831     -1.971814   1.000000   1.000000
   41       -1.926742     -1.926723   1.000000   1.000000
   42       -1.865099     -1.865081   1.000000   1.000000
   43       -1.669833     -1.669816   1.000000   1.000000
   44       -1.560041     -1.560023   1.000000   1.000000
   45       -1.462645     -1.462627   1.000000   1.000000
   46       -1.406121     -1.406103   1.000000   1.000000
   47       -1.306958     -1.306940   1.000000   1.000000
   48       -1.151406     -1.151389   1.000000   1.000000
   49       -1.034056     -1.034038   1.000000   1.000000
   50       -0.988845     -0.988827   1.000000   1.000000
   51       -0.860571     -0.860552   1.000000   1.000000
   52       -0.707840     -0.707822   1.000000   1.000000
   53       -0.258674     -0.258654   1.000000   1.000000
   54       -0.191278     -0.191258   1.000000   1.000000
   55       -0.139028     -0.139010   1.000000   1.000000
   56       -0.038906     -0.038888   1.000000   1.000000
   57        0.087183      0.087202   1.000000   1.000000
   58        0.118658      0.118677   1.000000   1.000000
   59        0.311749      0.311769   1.000000   1.000000
   60        0.376339      0.376358   1.000000   1.000000
   61        0.552652      0.552671   1.000000   1.000000
   62        0.565807      0.565827   1.000000   1.000000
   63        0.778320      0.778340   1.000000   1.000000
   64        0.800834      0.800854   1.000000   1.000000
   65        8.079842      8.079853   0.000000   0.000000
   66        8.857607      8.857585   0.000000   0.000000
   67        9.194266      9.194309   0.000000   0.000000
   68        9.368672      9.368821   0.000000   0.000000
   69        9.533308      9.533449   0.000000   0.000000
   70        9.692829      9.692761   0.000000   0.000000
   71        9.833738      9.833662   0.000000   0.000000
   72       10.072301     10.072496   0.000000   0.000000
   73       10.149369     10.149385   0.000000   0.000000
   74       10.278309     10.278329   0.000000   0.000000
   75       10.428109     10.428351   0.000000   0.000000
   76       10.543013     10.543001   0.000000   0.000000
   77       10.915360     10.915635   0.000000   0.000000
   78       11.126002     11.126073   0.000000   0.000000
   79       11.188800     11.188666   0.000000   0.000000
   80       11.297411     11.298048   0.000000   0.000000
   81       11.429944     11.430061   0.000000   0.000000
   82       11.575976     11.576159   0.000000   0.000000
   83       11.767807     11.766761   0.000000   0.000000
   84       12.022745     12.023601   0.000000   0.000000
   85       12.311988     12.304099   0.000000   0.000000
   86       12.715268     12.708729   0.000000   0.000000
 
 -0.1896685E-21  0.2000000E+00  0.1318926E-14  0.1428571E-01
    1      -41.409676    -41.409598   1.000000   1.000000
    2      -41.408980    -41.408902   1.000000   1.000000
    3      -41.238264    -41.238186   1.000000   1.000000
    4      -41.236553    -41.236475   1.000000   1.000000
    5      -41.198060    -41.197983   1.000000   1.000000
    6      -41.182344    -41.182266   1.000000   1.000000
    7      -41.140721    -41.140645   1.000000   1.000000
    8      -41.140630    -41.140554   1.000000   1.000000
    9      -20.049482    -20.049463   1.000000   1.000000
   10      -19.997891    -19.997873   1.000000   1.000000
   11      -18.738197    -18.738177   1.000000   1.000000
   12      -18.723928    -18.723908   1.000000   1.000000
   13      -17.371886    -17.371865   1.000000   1.000000
   14      -17.323820    -17.323799   1.000000   1.000000
   15      -16.764092    -16.764068   1.000000   1.000000
   16      -16.705825    -16.705801   1.000000   1.000000
   17      -16.548062    -16.548041   1.000000   1.000000
   18      -16.537983    -16.537962   1.000000   1.000000
   19      -16.478553    -16.478532   1.000000   1.000000
   20      -16.463594    -16.463573   1.000000   1.000000
   21      -16.411858    -16.411838   1.000000   1.000000
   22      -16.404662    -16.404642   1.000000   1.000000
   23       -8.370032     -8.370018   1.000000   1.000000
   24       -8.355751     -8.355738   1.000000   1.000000
   25       -5.692832     -5.692817   1.000000   1.000000
   26       -5.230266     -5.230251   1.000000   1.000000
   27       -4.786618     -4.786603   1.000000   1.000000
   28       -4.635951     -4.635937   1.000000   1.000000
   29       -4.373308     -4.373293   1.000000   1.000000
   30       -4.156321     -4.156305   1.000000   1.000000
   31       -4.065980     -4.065964   1.000000   1.000000
   32       -4.053182     -4.053166   1.000000   1.000000
   33       -3.606349     -3.606334   1.000000   1.000000
   34       -3.587855     -3.587841   1.000000   1.000000
   35       -3.448978     -3.448964   1.000000   1.000000
   36       -3.250508     -3.250491   1.000000   1.000000
   37       -2.887388     -2.887371   1.000000   1.000000
   38       -2.649692     -2.649676   1.000000   1.000000
   39       -2.119888     -2.119870   1.000000   1.000000
   40       -1.975361     -1.975344   1.000000   1.000000
   41       -1.967225     -1.967208   1.000000   1.000000
   42       -1.835766     -1.835747   1.000000   1.000000
   43       -1.685798     -1.685779   1.000000   1.000000
   44       -1.379895     -1.379877   1.000000   1.000000
   45       -1.300956     -1.300938   1.000000   1.000000
   46       -1.155801     -1.155783   1.000000   1.000000
   47       -1.021844     -1.021825   1.000000   1.000000
   48       -0.987464     -0.987445   1.000000   1.000000
   49       -0.823703     -0.823685   1.000000   1.000000
   50       -0.792360     -0.792341   1.000000   1.000000
   51       -0.761641     -0.761622   1.000000   1.000000
   52       -0.549368     -0.549349   1.000000   1.000000
   53       -0.351646     -0.351626   1.000000   1.000000
   54       -0.101109     -0.101089   1.000000   1.000000
   55       -0.019500     -0.019482   1.000000   1.000000
   56        0.034787      0.034806   1.000000   1.000000
   57        0.170213      0.170233   1.000000   1.000000
   58        0.244454      0.244474   1.000000   1.000000
   59        0.302957      0.302978   1.000000   1.000000
   60        0.371525      0.371545   1.000000   1.000000
   61        0.471091      0.471111   1.000000   1.000000
   62        0.555366      0.555386   1.000000   1.000000
   63        0.742224      0.742243   1.000000   1.000000
   64        0.778823      0.778843   1.000000   1.000000
   65        7.045784      7.045803  -0.000000  -0.000000
   66        8.805263      8.805278   0.000000   0.000000
   67        9.098432      9.098542   0.000000   0.000000
   68        9.481259      9.481199   0.000000   0.000000
   69        9.629862      9.629902   0.000000   0.000000
   70        9.795900      9.795943   0.000000   0.000000
   71        9.982750      9.982781   0.000000   0.000000
   72       10.099355     10.099392   0.000000   0.000000
   73       10.405614     10.405586   0.000000   0.000000
   74       10.464179     10.464782   0.000000   0.000000
   75       10.674696     10.674680   0.000000   0.000000
   76       10.959214     10.959567   0.000000   0.000000
   77       11.041292     11.041466   0.000000   0.000000
   78       11.331109     11.330575   0.000000   0.000000
   79       11.419260     11.417569   0.000000   0.000000
   80       11.710160     11.702471   0.000000   0.000000
   81       11.839358     11.850307   0.000000   0.000000
   82       11.984881     11.988111   0.000000   0.000000
   83       12.048578     12.069311   0.000000   0.000000
   84       12.214930     12.230148   0.000000   0.000000
   85       12.576083     12.502149   0.000000   0.000000
   86       12.805190     12.750991   0.000000   0.000000
 
  0.1428571E+00  0.2000000E+00  0.8654395E-15  0.1428571E-01
    1      -41.409652    -41.409574   1.000000   1.000000
    2      -41.408968    -41.408889   1.000000   1.000000
    3      -41.238164    -41.238085   1.000000   1.000000
    4      -41.236497    -41.236419   1.000000   1.000000
    5      -41.197989    -41.197912   1.000000   1.000000
    6      -41.182498    -41.182420   1.000000   1.000000
    7      -41.140753    -41.140677   1.000000   1.000000
    8      -41.140613    -41.140537   1.000000   1.000000
    9      -20.039252    -20.039234   1.000000   1.000000
   10      -20.000690    -20.000672   1.000000   1.000000
   11      -18.753169    -18.753150   1.000000   1.000000
   12      -18.716518    -18.716498   1.000000   1.000000
   13      -17.356369    -17.356348   1.000000   1.000000
   14      -17.330287    -17.330266   1.000000   1.000000
   15      -16.760258    -16.760235   1.000000   1.000000
   16      -16.702179    -16.702156   1.000000   1.000000
   17      -16.561250    -16.561229   1.000000   1.000000
   18      -16.541310    -16.541289   1.000000   1.000000
   19      -16.478369    -16.478348   1.000000   1.000000
   20      -16.469144    -16.469122   1.000000   1.000000
   21      -16.416232    -16.416212   1.000000   1.000000
   22      -16.407215    -16.407194   1.000000   1.000000
   23       -8.397252     -8.397239   1.000000   1.000000
   24       -8.356968     -8.356954   1.000000   1.000000
   25       -5.671876     -5.671861   1.000000   1.000000
   26       -5.208284     -5.208268   1.000000   1.000000
   27       -4.773931     -4.773916   1.000000   1.000000
   28       -4.619977     -4.619962   1.000000   1.000000
   29       -4.354460     -4.354444   1.000000   1.000000
   30       -4.139976     -4.139959   1.000000   1.000000
   31       -4.053217     -4.053201   1.000000   1.000000
   32       -4.044036     -4.044021   1.000000   1.000000
   33       -3.627079     -3.627064   1.000000   1.000000
   34       -3.500406     -3.500391   1.000000   1.000000
   35       -3.369916     -3.369901   1.000000   1.000000
   36       -3.250682     -3.250666   1.000000   1.000000
   37       -2.849085     -2.849068   1.000000   1.000000
   38       -2.600881     -2.600865   1.000000   1.000000
   39       -2.079222     -2.079204   1.000000   1.000000
   40       -2.013350     -2.013332   1.000000   1.000000
   41       -1.928010     -1.927992   1.000000   1.000000
   42       -1.858618     -1.858600   1.000000   1.000000
   43       -1.736640     -1.736621   1.000000   1.000000
   44       -1.415857     -1.415839   1.000000   1.000000
   45       -1.275477     -1.275458   1.000000   1.000000
   46       -1.179349     -1.179331   1.000000   1.000000
   47       -1.019176     -1.019158   1.000000   1.000000
   48       -0.987882     -0.987863   1.000000   1.000000
   49       -0.902065     -0.902046   1.000000   1.000000
   50       -0.887090     -0.887072   1.000000   1.000000
   51       -0.807815     -0.807796   1.000000   1.000000
   52       -0.631369     -0.631349   1.000000   1.000000
   53       -0.315212     -0.315192   1.000000   1.000000
   54       -0.133645     -0.133625   1.000000   1.000000
   55       -0.068754     -0.068735   1.000000   1.000000
   56        0.035456      0.035475   1.000000   1.000000
   57        0.143658      0.143677   1.000000   1.000000
   58        0.197343      0.197363   1.000000   1.000000
   59        0.324811      0.324831   1.000000   1.000000
   60        0.387442      0.387462   1.000000   1.000000
   61        0.506617      0.506636   1.000000   1.000000
   62        0.537167      0.537186   1.000000   1.000000
   63        0.727160      0.727180   1.000000   1.000000
   64        0.795297      0.795317   1.000000   1.000000
   65        7.371246      7.371264   0.000000   0.000000
   66        8.683068      8.683095   0.000000   0.000000
   67        8.898933      8.898990   0.000000   0.000000
   68        9.523167      9.523109   0.000000   0.000000
   69        9.586761      9.586666   0.000000   0.000000
   70        9.796402      9.796418   0.000000   0.000000
   71       10.116501     10.116514   0.000000   0.000000
   72       10.178802     10.178854   0.000000   0.000000
   73       10.445957     10.445843   0.000000   0.000000
   74       10.618678     10.618749   0.000000   0.000000
   75       10.727658     10.727439   0.000000   0.000000
   76       10.785314     10.785595   0.000000   0.000000
   77       10.958249     10.958216   0.000000   0.000000