       N       E                     dE             d eps       ncg     rms          rms(c)
DAV:   1     0.112652358350E+04    0.11265E+04   -0.62677E+04 24432   0.153E+03
DAV:   2    -0.653757050893E+02   -0.11919E+04   -0.11211E+04 29192   0.401E+02
DAV:   3    -0.174638091131E+03   -0.10926E+03   -0.10860E+03 31522   0.124E+02
DAV:   4    -0.184588848119E+03   -0.99508E+01   -0.99098E+01 46456   0.297E+01
DAV:   5    -0.186028320311E+03   -0.14395E+01   -0.14391E+01 33768   0.657E+00    0.535E+01
RMM:   6    -0.165175492727E+03    0.20853E+02   -0.81520E+01 27197   0.268E+01    0.231E+01
RMM:   7    -0.167223486700E+03   -0.20480E+01   -0.97315E+00 35712   0.983E+00    0.114E+01
RMM:   8    -0.167738125158E+03   -0.51464E+00   -0.26774E+00 42058   0.507E+00    0.507E+00
RMM:   9    -0.167815475941E+03   -0.77351E-01   -0.61692E-01 39175   0.325E+00    0.145E+00
RMM:  10    -0.167870757012E+03   -0.55281E-01   -0.41024E-01 46249   0.198E+00    0.593E-01
RMM:  11    -0.167893825954E+03   -0.23069E-01   -0.19180E-01 47323   0.121E+00    0.373E-01
RMM:  12    -0.167906344462E+03   -0.12519E-01   -0.85005E-02 47645   0.809E-01    0.241E-01
RMM:  13    -0.167911021329E+03   -0.46769E-02   -0.36179E-02 47650   0.531E-01    0.126E-01
RMM:  14    -0.167912706166E+03   -0.16848E-02   -0.15860E-02 47605   0.383E-01    0.668E-02
RMM:  15    -0.167913590776E+03   -0.88461E-03   -0.88280E-03 46948   0.250E-01    0.343E-02
RMM:  16    -0.167913976134E+03   -0.38536E-03   -0.36911E-03 46422   0.168E-01    0.325E-02
RMM:  17    -0.167914144567E+03   -0.16843E-03   -0.17043E-03 45561   0.113E-01    0.266E-02
RMM:  18    -0.167914201746E+03   -0.57179E-04   -0.68243E-04 45030   0.808E-02    0.214E-02
RMM:  19    -0.167914234035E+03   -0.32289E-04   -0.40991E-04 44298   0.593E-02    0.477E-03
RMM:  20    -0.167914258869E+03   -0.24834E-04   -0.20474E-04 43444   0.418E-02    0.530E-03
RMM:  21    -0.167914261930E+03   -0.30607E-05   -0.37180E-05 29583   0.295E-02
   1 F= -.16791426E+03 E0= -.16791426E+03  d E =0.000000E+00  mag=     0.0002
