       N       E                     dE             d eps       ncg     rms          rms(c)
DAV:   1     0.258945037665E+03    0.25895E+03   -0.17673E+04 23088   0.148E+03
DAV:   2    -0.149072055630E+02   -0.27385E+03   -0.26477E+03 27758   0.370E+02
DAV:   3    -0.375658285781E+02   -0.22659E+02   -0.22505E+02 38090   0.898E+01
DAV:   4    -0.392534950006E+02   -0.16877E+01   -0.16830E+01 33572   0.225E+01
DAV:   5    -0.393043418166E+02   -0.50847E-01   -0.50842E-01 32778   0.330E+00    0.178E+01
RMM:   6    -0.381713837288E+02    0.11330E+01   -0.50064E+00 25492   0.120E+01    0.788E+00
RMM:   7    -0.387937844310E+02   -0.62240E+00   -0.84629E-01 29123   0.581E+00    0.391E+00
RMM:   8    -0.388754561383E+02   -0.81672E-01   -0.38954E-01 34642   0.360E+00    0.157E+00
RMM:   9    -0.388869009590E+02   -0.11445E-01   -0.13595E-01 36411   0.233E+00    0.396E-01
RMM:  10    -0.388981669881E+02   -0.11266E-01   -0.72898E-02 40697   0.135E+00    0.200E-01
RMM:  11    -0.389025260243E+02   -0.43590E-02   -0.27747E-02 41793   0.795E-01    0.146E-01
RMM:  12    -0.389041684192E+02   -0.16424E-02   -0.12423E-02 43331   0.478E-01    0.111E-01
RMM:  13    -0.389046109892E+02   -0.44257E-03   -0.42583E-03 40754   0.346E-01    0.562E-02
RMM:  14    -0.389049786637E+02   -0.36767E-03   -0.24731E-03 41426   0.245E-01    0.133E-02
RMM:  15    -0.389051177730E+02   -0.13911E-03   -0.12404E-03 39448   0.144E-01    0.108E-02
RMM:  16    -0.389051712082E+02   -0.53435E-04   -0.49253E-04 37991   0.937E-02    0.102E-02
RMM:  17    -0.389051877667E+02   -0.16558E-04   -0.19090E-04 37255   0.651E-02    0.456E-03
RMM:  18    -0.389051950609E+02   -0.72942E-05   -0.75727E-05 30356   0.451E-02
   1 F= -.38905195E+02 E0= -.38905195E+02  d E =0.000000E+00  mag=    -0.0000
