       N       E                     dE             d eps       ncg     rms          rms(c)
DAV:   1     0.862156050398E+02    0.86216E+02   -0.85318E+03 25952   0.119E+03
DAV:   2    -0.231990983237E+02   -0.10941E+03   -0.10589E+03 33934   0.273E+02
DAV:   3    -0.285169294596E+02   -0.53178E+01   -0.52973E+01 36312   0.651E+01
DAV:   4    -0.287302434858E+02   -0.21331E+00   -0.21320E+00 39466   0.110E+01
DAV:   5    -0.287330954070E+02   -0.28519E-02   -0.28517E-02 35832   0.132E+00    0.129E+01
RMM:   6    -0.274888559032E+02    0.12442E+01   -0.40032E+00 28270   0.140E+01    0.596E+00
RMM:   7    -0.274257462279E+02    0.63110E-01   -0.67508E-01 33493   0.775E+00    0.342E+00
RMM:   8    -0.274028645939E+02    0.22882E-01   -0.29132E-01 37191   0.433E+00    0.169E+00
RMM:   9    -0.274163143230E+02   -0.13450E-01   -0.75714E-02 40172   0.239E+00    0.649E-01
RMM:  10    -0.274172562377E+02   -0.94191E-03   -0.25724E-02 42440   0.126E+00    0.159E-01
RMM:  11    -0.274188084792E+02   -0.15522E-02   -0.10980E-02 44548   0.729E-01    0.912E-02
RMM:  12    -0.274195410514E+02   -0.73257E-03   -0.51787E-03 47739   0.459E-01    0.579E-02
RMM:  13    -0.274198033651E+02   -0.26231E-03   -0.21515E-03 47405   0.289E-01    0.238E-02
RMM:  14    -0.274199240329E+02   -0.12067E-03   -0.97481E-04 45954   0.202E-01    0.157E-02
RMM:  15    -0.274199781396E+02   -0.54107E-04   -0.45113E-04 43217   0.131E-01    0.955E-03
RMM:  16    -0.274200006266E+02   -0.22487E-04   -0.19871E-04 39574   0.892E-02    0.252E-03
RMM:  17    -0.274200112690E+02   -0.10642E-04   -0.87566E-05 34311   0.657E-02    0.206E-03
RMM:  18    -0.274200149113E+02   -0.36424E-05   -0.36557E-05 29879   0.529E-02
   1 F= -.27420015E+02 E0= -.27420015E+02  d E =0.000000E+00  mag=     0.0000
