Automatically generated mesh
      62
Reciprocal lattice
    0.00000000000000    0.00000000000000    0.00000000000000             1
    0.16666666666666   -0.00000000000000    0.00000000000001             2
    0.33333333333334   -0.00000000000000   -0.00000000000000             2
    0.50000000000000   -0.00000000000000    0.00000000000000             1
    0.00000000000000    0.20000000000000    0.00000000000000             2
    0.16666666666666    0.20000000000000   -0.00000000000000             2
    0.33333333333334    0.20000000000000    0.00000000000000             2
    0.50000000000000    0.20000000000000   -0.00000000000001             2
   -0.33333333333334    0.20000000000000   -0.00000000000000             2
   -0.16666666666666    0.20000000000000    0.00000000000000             2
   -0.00000000000000    0.40000000000000   -0.00000000000000             2
    0.16666666666666    0.40000000000000    0.00000000000000             2
    0.33333333333334    0.40000000000000    0.00000000000001             2
    0.50000000000000    0.40000000000000   -0.00000000000000             2
   -0.33333333333334    0.40000000000000    0.00000000000000             2
   -0.16666666666666    0.40000000000000   -0.00000000000000             2
   -0.00000000000000    0.00000000000000    0.25000000000000             2
    0.16666666666666    0.00000000000000    0.25000000000000             2
    0.33333333333334   -0.00000000000000    0.24999999999999             2
    0.50000000000000   -0.00000000000000    0.25000000000000             2
   -0.33333333333334   -0.00000000000000    0.25000000000000             2
   -0.16666666666666    0.00000000000000    0.25000000000000             2
    0.00000000000000    0.20000000000000    0.25000000000000             2
    0.16666666666666    0.20000000000000    0.25000000000001             2
    0.33333333333334    0.20000000000000    0.25000000000000             2
    0.50000000000000    0.20000000000000    0.25000000000000             2
   -0.33333333333334    0.20000000000000    0.25000000000000             2
   -0.16666666666666    0.20000000000000    0.25000000000000             2
   -0.00000000000000    0.40000000000000    0.25000000000001             2
    0.16666666666666    0.40000000000000    0.25000000000000             2
    0.33333333333334    0.40000000000000    0.25000000000000             2
    0.50000000000000    0.40000000000000    0.24999999999999             2
   -0.33333333333334    0.40000000000000    0.25000000000000             2
   -0.16666666666666    0.40000000000000    0.25000000000000             2
   -0.00000000000000   -0.40000000000000    0.25000000000000             2
    0.16666666666666   -0.40000000000000    0.25000000000000             2
    0.33333333333334   -0.40000000000000    0.25000000000000             2
    0.50000000000000   -0.40000000000000    0.25000000000000             2
   -0.33333333333334   -0.40000000000000    0.25000000000000             2
   -0.16666666666666   -0.40000000000000    0.25000000000000             2
   -0.00000000000000   -0.20000000000000    0.25000000000000             2
    0.16666666666666   -0.20000000000000    0.25000000000000             2
    0.33333333333334   -0.20000000000000    0.25000000000000             2
    0.50000000000000   -0.20000000000000    0.25000000000000             2
   -0.33333333333334   -0.20000000000000    0.24999999999999             2
   -0.16666666666666   -0.20000000000000    0.25000000000000             2
   -0.00000000000000    0.00000000000000    0.50000000000001             1
    0.16666666666666   -0.00000000000000    0.50000000000000             2
    0.33333333333334    0.00000000000000    0.50000000000000             2
    0.50000000000000    0.00000000000000    0.49999999999999             1
   -0.00000000000000    0.20000000000000    0.50000000000000             2
    0.16666666666666    0.20000000000000    0.50000000000000             2
    0.33333333333334    0.20000000000000    0.49999999999999             2
    0.50000000000000    0.20000000000000    0.50000000000000             2
   -0.33333333333334    0.20000000000000    0.50000000000000             2
   -0.16666666666666    0.20000000000000    0.50000000000000             2
    0.00000000000000    0.40000000000000    0.50000000000000             2
    0.16666666666666    0.40000000000000    0.49999999999999             2
    0.33333333333334    0.40000000000000    0.50000000000000             2
    0.50000000000000    0.40000000000000    0.50000000000000             2
   -0.33333333333334    0.40000000000000    0.50000000000000             2
   -0.16666666666666    0.40000000000000    0.50000000000000             2
Tetrahedra
       360    0.00138888888889
         2         1         2         5        18
         2         2         5         6        18
         2         5         6        18        24
         2         1         5        17        18
         2         5        17        18        23
         2         5        18        23        24
         2         2         3         6        19
         2         3         6         7        19
         2         6         7        19        25
         2         2         6        18        19
         2         6        18        19        24
         2         6        19        24        25
         2         3         4         7        20
         2         4         7         8        20
         2         7         8        20        26
         2         3         7        19        20
         2         7        19        20        25
         2         7        20        25        26
         2         3         4         8        21
         2         3         8         9        21
         2         8         9        21        27
         2         4         8        20        21
         2         8        20        21        26
         2         8        21        26        27
         2         2         3         9        22
         2         2         9        10        22
         2         9        10        22        28
         2         3         9        21        22
         2         9        21        22        27
         2         9        22        27        28
         2         1         2        10        17
         2         1         5        10        17
         2         5        10        17        23
         2         2        10        17        22
         2        10        17        22        28
         2        10        17        23        28
         2         5         6        11        24
         2         6        11        12        24
         2        11        12        24        30
         2         5        11        23        24
         2        11        23        24        29
         2        11        24        29        30
         2         6         7        12        25
         2         7        12        13        25
         2        12        13        25        31
         2         6        12        24        25
         2        12        24        25        30
         2        12        25        30        31
         2         7         8        13        26
         2         8        13        14        26
         2        13        14        26        32
         2         7        13        25        26
         2        13        25        26        31
         2        13        26        31        32
         2         8         9        14        27
         2         9        14        15        27
         2        14        15        27        33
         2         8        14        26        27
         2        14        26        27        32
         2        14        27        32        33
         2         9        10        15        28
         2        10        15        16        28
         2        15        16        28        34
         2         9        15        27        28
         2        15        27        28        33
         2        15        28        33        34
         2         5        10        16        23
         2         5        11        16        23
         2        11        16        23        29
         2        10        16        23        28
         2        16        23        28        34
         2        16        23        29        34
         2        11        11        12        30
         2        11        12        16        30
         2        11        16        30        36
         2        11        11        29        30
         2        11        29        30        35
         2        11        30        35        36
         2        12        13        16        31
         2        13        15        16        31
         2        15        16        31        37
         2        12        16        30        31
         2        16        30        31        36
         2        16        31        36        37
         2        13        14        15        32
         2        14        14        15        32
         2        14        15        32        38
         2        13        15        31        32
         2        15        31        32        37
         2        15        32        37        38
         2        14        14        15        33
         2        13        14        15        33
         2        13        14        33        39
         2        14        14        32        33
         2        14        32        33        38
         2        14        33        38        39
         2        13        15        16        34
         2        12        13        16        34
         2        12        13        34        40
         2        13        15        33        34
         2        13        33        34        39
         2        13        34        39        40
         2        11        12        16        29
         2        11        11        12        29
         2        11        12        29        35
         2        12        16        29        34
         2        12        29        34        40
         2        12        29        35        40
         2         5        11        16        36
         2         5        10        16        36
         2         5        10        36        42
         2         5        11        35        36
         2         5        35        36        41
         2         5        36        41        42
         2        10        15        16        37
         2         9        10        15        37
         2         9        10        37        43
         2        10        16        36        37
         2        10        36        37        42
         2        10        37        42        43
         2         9        14        15        38
         2         8         9        14        38
         2         8         9        38        44
         2         9        15        37        38
         2         9        37        38        43
         2         9        38        43        44
         2         8        13        14        39
         2         7         8        13        39
         2         7         8        39        45
         2         8        14        38        39
         2         8        38        39        44
         2         8        39        44        45
         2         7        12        13        40
         2         6         7        12        40
         2         6         7        40        46
         2         7        13        39        40
         2         7        39        40        45
         2         7        40        45        46
         2         6        11        12        35
         2         5         6        11        35
         2         5         6        35        41
         2         6        12        35        40
         2         6        35        40        46
         2         6        35        41        46
         2         1         5        10        42
         2         1         2        10        42
         2         1         2        18        42
         2         1         5        41        42
         2         1        17        41        42
         2         1        17        18        42
         2         2         9        10        43
         2         2         3         9        43
         2         2         3        19        43
         2         2        10        42        43
         2         2        18        42        43
         2         2        18        19        43
         2         3         8         9        44
         2         3         4         8        44
         2         3         4        20        44
         2         3         9        43        44
         2         3        19        43        44
         2         3        19        20        44
         2         4         7         8        45
         2         3         4         7        45
         2         3         4        21        45
         2         4         8        44        45
         2         4        20        44        45
         2         4        20        21        45
         2         3         6         7        46
         2         2         3         6        46
         2         2         3        22        46
         2         3         7        45        46
         2         3        21        45        46
         2         3        21        22        46
         2         2         5         6        41
         2         1         2         5        41
         2         1         2        17        41
         2         2         6        41        46
         2         2        22        41        46
         2         2        17        22        41
         2        17        18        23        48
         2        18        23        24        48
         2        23        24        48        52
         2        17        23        47        48
         2        23        47        48        51
         2        23        48        51        52
         2        18        19        24        49
         2        19        24        25        49
         2        24        25        49        53
         2        18        24        48        49
         2        24        48        49        52
         2        24        49        52        53
         2        19        20        25        50
         2        20        25        26        50
         2        25        26        50        54
         2        19        25        49        50
         2        25        49        50        53
         2        25        50        53        54
         2        20        21        26        49
         2        21        26        27        49
         2        26        27        49        55
         2        20        26        49        50
         2        26        49        50        54
         2        26        49        54        55
         2        21        22        27        48
         2        22        27        28        48
         2        27        28        48        56
         2        21        27        48        49
         2        27        48        49        55
         2        27        48        55        56
         2        17        22        28        47
         2        17        23        28        47
         2        23        28        47        51
         2        22        28        47        48
         2        28        47        48        56
         2        28        47        51        56
         2        23        24        29        52
         2        24        29        30        52
         2        29        30        52        58
         2        23        29        51        52
         2        29        51        52        57
         2        29        52        57        58
         2        24        25        30        53
         2        25        30        31        53
         2        30        31        53        59
         2        24        30        52        53
         2        30        52        53        58
         2        30        53        58        59
         2        25        26        31        54
         2        26        31        32        54
         2        31        32        54        60
         2        25        31        53        54
         2        31        53        54        59
         2        31        54        59        60
         2        26        27        32        55
         2        27        32        33        55
         2        32        33        55        61
         2        26        32        54        55
         2        32        54        55        60
         2        32        55        60        61
         2        27        28        33        56
         2        28        33        34        56
         2        33        34        56        62
         2        27        33        55        56
         2        33        55        56        61
         2        33        56        61        62
         2        23        28        34        51
         2        23        29        34        51
         2        29        34        51        57
         2        28        34        51        56
         2        34        51        56        62
         2        34        51        57        62
         2        29        30        35        58
         2        30        35        36        58
         2        35        36        58        62
         2        29        35        57        58
         2        35        57        57        58
         2        35        57        58        62
         2        30        31        36        59
         2        31        36        37        59
         2        36        37        59        61
         2        30        36        58        59
         2        36        58        59        62
         2        36        59        61        62
         2        31        32        37        60
         2        32        37        38        60
         2        37        38        60        60
         2        31        37        59        60
         2        37        59        60        61
         2        37        60        60        61
         2        32        33        38        61
         2        33        38        39        61
         2        38        39        59        61
         2        32        38        60        61
         2        38        60        60        61
         2        38        59        60        61
         2        33        34        39        62
         2        34        39        40        62
         2        39        40        58        62
         2        33        39        61        62
         2        39        59        61        62
         2        39        58        59        62
         2        29        34        40        57
         2        29        35        40        57
         2        35        40        57        57
         2        34        40        57        62
         2        40        57        58        62
         2        40        57        57        58
         2        35        36        41        62
         2        36        41        42        62
         2        41        42        56        62
         2        35        41        57        62
         2        41        51        57        62
         2        41        51        56        62
         2        36        37        42        61
         2        37        42        43        61
         2        42        43        55        61
         2        36        42        61        62
         2        42        56        61        62
         2        42        55        56        61
         2        37        38        43        60
         2        38        43        44        60
         2        43        44        54        60
         2        37        43        60        61
         2        43        55        60        61
         2        43        54        55        60
         2        38        39        44        59
         2        39        44        45        59
         2        44        45        53        59
         2        38        44        59        60
         2        44        54        59        60
         2        44        53        54        59
         2        39        40        45        58
         2        40        45        46        58
         2        45        46        52        58
         2        39        45        58        59
         2        45        53        58        59
         2        45        52        53        58
         2        35        40        46        57
         2        35        41        46        57
         2        41        46        51        57
         2        40        46        57        58
         2        46        52        57        58
         2        46        51        52        57
         2        17        41        42        56
         2        17        18        42        56
         2        17        18        48        56
         2        17        41        51        56
         2        17        47        51        56
         2        17        47        48        56
         2        18        42        43        55
         2        18        19        43        55
         2        18        19        49        55
         2        18        42        55        56
         2        18        48        55        56
         2        18        48        49        55
         2        19        43        44        54
         2        19        20        44        54
         2        19        20        50        54
         2        19        43        54        55
         2        19        49        54        55
         2        19        49        50        54
         2        20        44        45        53
         2        20        21        45        53
         2        20        21        49        53
         2        20        44        53        54
         2        20        50        53        54
         2        20        49        50        53
         2        21        45        46        52
         2        21        22        46        52
         2        21        22        48        52
         2        21        45        52        53
         2        21        49        52        53
         2        21        48        49        52
         2        22        41        46        51
         2        17        22        41        51
         2        17        22        47        51
         2        22        46        51        52
         2        22        48        51        52
         2        22        47        48        51
