    3    3    1    2
  0.7671276E+01  0.3192772E-09  0.3192772E-09  0.3192772E-09  0.5000000E-15
  1.000000000000000E-004
  CAR 
 unknown system                          
     12     72     16
 
  0.0000000E+00  0.0000000E+00  0.0000000E+00  0.5787037E-03
    1      -41.160483    -41.157476   1.000000   1.000000
    2      -40.750615    -40.747518   1.000000   1.000000
    3      -13.841014    -13.840779   1.000000   1.000000
    4        1.720285      1.720280   1.000000   1.000000
    5        1.720291      1.720280   0.999997   0.999998
    6        1.720291      1.720298   0.999997   0.999996
    7        7.514985      7.516190   0.000000   0.000000
    8       14.046914     14.048116   0.000000   0.000000
    9       14.046914     14.048116   0.000000   0.000000
   10       14.047088     14.048525   0.000000   0.000000
   11       21.443741     21.444758   0.000000   0.000000
   12       21.443741     21.444758   0.000000   0.000000
   13       21.443895     21.445056   0.000000   0.000000
   14       23.793877     23.793856   0.000000   0.000000
   15       23.793877     23.793856   0.000000   0.000000
   16       30.917451     30.915976   0.000000   0.000000
 
  0.8333333E-01  0.4507008E-18  0.4731341E-14  0.4629630E-02
    1      -41.152336    -41.149327   1.000000   1.000000
    2      -40.756508    -40.753412   1.000000   1.000000
    3      -13.827241    -13.827014   1.000000   1.000000
    4        1.467588      1.467644   1.000000   1.000000
    5        1.684001      1.684001   1.000000   1.000000
    6        1.684006      1.684018   1.000000   1.000000
    7        7.703437      7.704589   0.000000   0.000000
    8       14.084400     14.085730   0.000000   0.000000
    9       14.159321     14.160512   0.000000   0.000000
   10       14.159476     14.160875   0.000000   0.000000
   11       20.573188     20.573996   0.000000   0.000000
   12       20.573294     20.574207   0.000000   0.000000
   13       21.711676     21.715025   0.000000   0.000000
   14       25.031313     25.031479   0.000000   0.000000
   15       25.031340     25.031525   0.000000   0.000000
   16       29.925391     29.931356   0.000000   0.000000
 
  0.1666667E+00  0.4247593E-17 -0.4737641E-14  0.4629630E-02
    1      -41.128459    -41.125444   1.000000   1.000000
    2      -40.773941    -40.770849   1.000000   1.000000
    3      -13.788269    -13.788065   1.000000   1.000000
    4        0.839035      0.839222   1.000000   1.000000
    5        1.588051      1.588066   1.000000   1.000000
    6        1.588055      1.588086   1.000000   1.000000
    7        8.203927      8.204968   0.000000   0.000000
    8       14.120196     14.121473   0.000000   0.000000
    9       14.406990     14.408142   0.000000   0.000000
   10       14.407147     14.408501   0.000000   0.000000
   11       19.539585     19.540333   0.000000   0.000000
   12       19.539675     19.540528   0.000000   0.000000
   13       22.444189     22.445898   0.000000   0.000000
   14       27.121532     27.121644   0.000000   0.000000
   15       27.121561     27.121680   0.000000   0.000000
   16       28.960774     28.958211   0.000000   0.000000
 
  0.2500000E+00  0.4698294E-17 -0.6300004E-17  0.4629630E-02
    1      -41.091308    -41.088284   1.000000   1.000000
    2      -40.802373    -40.799286   1.000000   1.000000
    3      -13.732543    -13.732369   1.000000   1.000000
    4        0.082723      0.083039   1.000000   1.000000
    5        1.463900      1.463932   1.000000   1.000000
    6        1.463902      1.463956   1.000000   1.000000
    7        8.914518      8.915467   0.000000   0.000000
    8       13.987419     13.988738   0.000000   0.000000
    9       14.549572     14.550644   0.000000   0.000000
   10       14.549729     14.550984   0.000000   0.000000
   11       19.134990     19.135783   0.000000   0.000000
   12       19.135078     19.135998   0.000000   0.000000
   13       23.462246     23.463957   0.000000   0.000000
   14       28.268467     28.267229   0.000000   0.000000
   15       28.730854     28.730407   0.000000   0.000000
   16       28.730889     28.730459   0.000000   0.000000
 
  0.3333333E+00 -0.6941119E-17  0.4751009E-14  0.4629630E-02
    1      -41.044528    -41.041493   1.000000   1.000000
    2      -40.840457    -40.837378   1.000000   1.000000
    3      -13.673524    -13.673383   1.000000   1.000000
    4       -0.594311     -0.593900   1.000000   1.000000
    5        1.346922      1.346969   1.000000   1.000000
    6        1.346923      1.346997   1.000000   1.000000
    7        9.771206      9.772093   0.000000   0.000000
    8       13.558699     13.560030   0.000000   0.000000
    9       14.441134     14.442113   0.000000   0.000000
   10       14.441284     14.442425   0.000000   0.000000
   11       19.444127     19.445010   0.000000   0.000000
   12       19.444223     19.445265   0.000000   0.000000
   13       24.524667     24.526793   0.000000   0.000000
   14       27.935154     27.935604   0.000000   0.000000
   15       28.823212     28.822366   0.000000   0.000000
   16       28.823263     28.822514   0.000000   0.000000
 
  0.4166667E+00  0.1073356E-16 -0.4704095E-14  0.4629630E-02
    1      -40.992020    -40.988973   1.000000   1.000000
    2      -40.886537    -40.883468   1.000000   1.000000
    3      -13.627789    -13.627673   1.000000   1.000000
    4       -1.053488     -1.053019   1.000000   1.000000
    5        1.265387      1.265444   1.000000   1.000000
    6        1.265387      1.265474   1.000000   1.000000
    7       10.708418     10.709233   0.000000   0.000000
    8       12.851900     12.853245   0.000000   0.000000
    9       14.245639     14.246564   0.000000   0.000000
   10       14.245784     14.246856   0.000000   0.000000
   11       20.057852     20.058814   0.000000   0.000000
   12       20.057957     20.059108   0.000000   0.000000
   13       25.381150     25.383973   0.000000   0.000000
   14       27.857904     27.858700   0.000000   0.000000
   15       28.300363     28.299522   0.000000   0.000000
   16       28.300415     28.299689   0.000000   0.000000
 
  0.5000000E+00  0.9396588E-17 -0.1260001E-16  0.2314815E-02
    1      -40.938875    -40.935817   1.000000   1.000000
    2      -40.937330    -40.934271   1.000000   1.000000
    3      -13.610441    -13.610336   1.000000   1.000000
    4       -1.215329     -1.214840   1.000000   1.000000
    5        1.236349      1.236410   1.000000   1.000000
    6        1.236350      1.236441   1.000000   1.000000
    7       11.385690     11.386252   0.000000   0.000000
    8       12.242249     12.243830   0.000000   0.000000
    9       14.159116     14.160025   0.000000   0.000000
   10       14.159259     14.160310   0.000000   0.000000
   11       20.370331     20.371329   0.000000   0.000000
   12       20.370440     20.371640   0.000000   0.000000
   13       25.727425     25.730703   0.000000   0.000000
   14       27.862791     27.863855   0.000000   0.000000
   15       28.003967     28.003150   0.000000   0.000000
   16       28.004017     28.003313   0.000000   0.000000
 
  0.8333333E-01  0.8333333E-01  0.4629311E-17  0.3472222E-02
    1      -41.149715    -41.146706   1.000000   1.000000
    2      -40.758313    -40.755218   1.000000   1.000000
    3      -13.822692    -13.822468   1.000000   1.000000
    4        1.522608      1.522673   1.000000   1.000000
    5        1.604381      1.604390   1.000001   1.000001
    6        1.604384      1.604405   1.000001   1.000001
    7        7.747741      7.748872   0.000000   0.000000
    8       14.128483     14.129656   0.000000   0.000000
    9       14.128596     14.129919   0.000000   0.000000
   10       14.263446     14.264778   0.000000   0.000000
   11       19.398821     19.400396   0.000000   0.000000
   12       21.928470     21.929502   0.000000   0.000000
   13       21.928575     21.929711   0.000000   0.000000
   14       23.997678     23.997656   0.000000   0.000000
   15       25.797067     25.810033   0.000000   0.000000
   16       30.756394     30.234221   0.000000   0.000000
 
  0.1666667E+00  0.8333333E-01  0.1192217E-14  0.1388889E-01
    1      -41.131516    -41.128502   1.000000   1.000000
    2      -40.771409    -40.768316   1.000000   1.000000
    3      -13.792512    -13.792305   1.000000   1.000000
    4        1.043250      1.043407   1.000000   1.000000
    5        1.472428      1.472472   1.000000   1.000000
    6        1.571497      1.571524   1.000000   1.000000
    7        8.092306      8.093342   0.000000   0.000000
    8       14.186511     14.187755   0.000000   0.000000
    9       14.278212     14.279492   0.000000   0.000000
   10       14.588726     14.590071   0.000000   0.000000
   11       18.293392     18.294306   0.000000   0.000000
   12       21.449026     21.449910   0.000000   0.000000
   13       22.569355     22.571322   0.000000   0.000000
   14       25.538138     25.538373   0.000000   0.000000
   15       26.752152     26.757541   0.000000   0.000000
   16       29.938909     29.932925   0.000000   0.000000
 
  0.2500000E+00  0.8333333E-01 -0.4766464E-14  0.1388889E-01
    1      -41.099543    -41.096521   1.000000   1.000000
    2      -40.795449    -40.792361   1.000000   1.000000
    3      -13.742867    -13.742688   1.000000   1.000000
    4        0.335955      0.336233   1.000000   1.000000
    5        1.328916      1.328982   1.000000   1.000000
    6        1.493573      1.493616   1.000000   1.000000
    7        8.660684      8.661618   0.000000   0.000000
    8       14.074713     14.075940   0.000000   0.000000
    9       14.434039     14.435248   0.000000   0.000000
   10       14.954587     14.955896   0.000000   0.000000
   11       17.759622     17.760520   0.000000   0.000000
   12       20.835523     20.836377   0.000000   0.000000
   13       23.436388     23.437882   0.000000   0.000000
   14       27.227156     27.225872   0.000000   0.000000
   15       27.882032     27.882174   0.000000   0.000000
   16       29.614103     29.615208   0.000000   0.000000
 
  0.3333333E+00  0.8333333E-01  0.1860009E-16  0.1388889E-01
    1      -41.056866    -41.053834   1.000000   1.000000
    2      -40.829364    -40.826283   1.000000   1.000000
    3      -13.684998    -13.684852   1.000000   1.000000
    4       -0.360153     -0.359774   1.000000   1.000000
    5        1.213180      1.213264   1.000000   1.000000
    6        1.373899      1.373965   1.000000   1.000000
    7        9.388925      9.389776   0.000000   0.000000
    8       13.682342     13.683608   0.000000   0.000000
    9       14.450592     14.451712   0.000000   0.000000
   10       15.006070     15.007250   0.000000   0.000000
   11       18.095304     18.096296   0.000000   0.000000
   12       20.704759     20.705696   0.000000   0.000000
   13       24.361800     24.363508   0.000000   0.000000
   14       27.342737     27.342746   0.000000   0.000000
   15       28.923827     28.923189   0.000000   0.000000
   16       29.379958     29.384631   0.000000   0.000000
 
  0.4166667E+00  0.8333333E-01  0.1178978E-14  0.1388889E-01
    1      -41.007434    -41.004391   1.000000   1.000000
    2      -40.871625    -40.868552   1.000000   1.000000
    3      -13.634616    -13.634498   1.000000   1.000000
    4       -0.887445     -0.886998   1.000000   1.000000
    5        1.152383      1.152477   1.000000   1.000000
    6        1.247794      1.247880   1.000000   1.000000
    7       10.207744     10.208519   0.000000   0.000000
    8       13.077953     13.079274   0.000000   0.000000
    9       14.358766     14.359813   0.000000   0.000000
   10       14.788497     14.789551   0.000000   0.000000
   11       19.024113     19.025202   0.000000   0.000000
   12       20.798706     20.799764   0.000000   0.000000
   13       25.187535     25.189485   0.000000   0.000000
   14       27.470347     27.470938   0.000000   0.000000
   15       28.443955     28.443220   0.000000   0.000000
   16       28.927376     28.930389   0.000000   0.000000
 
  0.5000000E+00  0.8333333E-01 -0.4701588E-14  0.1388889E-01
    1      -40.955229    -40.952175   1.000000   1.000000
    2      -40.920142    -40.917080   1.000000   1.000000
    3      -13.607538    -13.607436   1.000000   1.000000
    4       -1.147598     -1.147120   1.000000   1.000000
    5        1.147923      1.148021   1.000000   1.000000
    6        1.158326      1.158420   1.000000   1.000000
    7       10.926392     10.927005   0.000000   0.000000
    8       12.452553     12.454025   0.000000   0.000000
    9       14.307213     14.308218   0.000000   0.000000
   10       14.601086     14.602087   0.000000   0.000000
   11       20.008157     20.009300   0.000000   0.000000
   12       20.569855     20.570996   0.000000   0.000000
   13       25.686466     25.688601   0.000000   0.000000
   14       27.709381     27.710132   0.000000   0.000000
   15       28.150706     28.149946   0.000000   0.000000
   16       28.319740     28.319857   0.000000   0.000000
 
 -0.4166667E+00  0.8333333E-01 -0.4755430E-16  0.1388889E-01
    1      -40.972008    -40.968957   1.000000   1.000000
    2      -40.904134    -40.901069   1.000000   1.000000
    3      -13.613117    -13.613011   1.000000   1.000000
    4       -1.096563     -1.096090   1.000000   1.000000
    5        1.098331      1.098434   1.000000   1.000000
    6        1.228136      1.228222   1.000000   1.000000
    7       10.821353     10.822002   0.000000   0.000000
    8       12.506724     12.508157   0.000000   0.000000
    9       14.412561     14.413558   0.000000   0.000000
   10       14.582671     14.583704   0.000000   0.000000
   11       19.749512     19.750651   0.000000   0.000000
   12       20.615132     20.616250   0.000000   0.000000
   13       25.584788     25.586867   0.000000   0.000000
   14       27.765300     27.765945   0.000000   0.000000
   15       28.184449     28.184664   0.000000   0.000000
   16       28.413309     28.412485   0.000000   0.000000
 
 -0.3333333E+00  0.8333333E-01  0.1187575E-14  0.1388889E-01
    1      -41.023829    -41.020790   1.000000   1.000000
    2      -40.857361    -40.854285   1.000000   1.000000
    3      -13.649413    -13.649287   1.000000   1.000000
    4       -0.743958     -0.743530   1.000000   1.000000
    5        1.112000      1.112098   1.000000   1.000000
    6        1.346084      1.346154   1.000000   1.000000
    7       10.035651     10.036445   0.000000   0.000000
    8       13.108143     13.109438   0.000000   0.000000
    9       14.662879     14.664006   0.000000   0.000000
   10       14.696369     14.697406   0.000000   0.000000
   11       18.650020     18.651100   0.000000   0.000000
   12       20.718381     20.719398   0.000000   0.000000
   13       24.952380     24.954191   0.000000   0.000000
   14       27.425154     27.425547   0.000000   0.000000
   15       28.849695     28.853545   0.000000   0.000000
   16       28.885662     28.884775   0.000000   0.000000
 
 -0.2500000E+00  0.8333333E-01 -0.4755652E-14  0.1388889E-01
    1      -41.071602    -41.068574   1.000000   1.000000
    2      -40.817642    -40.814558   1.000000   1.000000
    3      -13.704235    -13.704079   1.000000   1.000000
    4       -0.153941     -0.153591   1.000000   1.000000
    5        1.189712      1.189797   1.000000   1.000000
    6        1.485350      1.485400   1.000000   1.000000
    7        9.214601      9.215477   0.000000   0.000000
    8       13.641384     13.642622   0.000000   0.000000
    9       14.659755     14.660981   0.000000   0.000000
   10       14.991320     14.992484   0.000000   0.000000
   11       17.831044     17.831992   0.000000   0.000000
   12       20.614549     20.615495   0.000000   0.000000
   13       24.115105     24.116726   0.000000   0.000000
   14       27.106423     27.106014   0.000000   0.000000
   15       29.080404     29.079596   0.000000   0.000000
   16       29.424714     29.430248   0.000000   0.000000
 
 -0.1666667E+00  0.8333333E-01  0.5232197E-17  0.1388889E-01
    1      -41.111204    -41.108186   1.000000   1.000000
    2      -40.786738    -40.783648   1.000000   1.000000
    3      -13.760894    -13.760705   1.000000   1.000000
    4        0.550247      0.550489   1.000000   1.000000
    5        1.321123      1.321185   1.000000   1.000000
    6        1.610806      1.610835   1.000000   1.000000
    7        8.506983      8.507952   0.000000   0.000000
    8       13.977667     13.978899   0.000000   0.000000
    9       14.484413     14.485680   0.000000   0.000000
   10       14.868959     14.870273   0.000000   0.000000
   11       17.956808     17.957621   0.000000   0.000000
   12       20.635976     20.636936   0.000000   0.000000
   13       23.259199     23.260708   0.000000   0.000000
   14       26.330583     26.332756   0.000000   0.000000
   15       28.492940     28.492599   0.000000   0.000000
   16       29.390386     29.390345   0.000000   0.000000
 
 -0.8333333E-01  0.8333333E-01  0.1163822E-14  0.6944444E-02
    1      -41.138984    -41.135971   1.000000   1.000000
    2      -40.766099    -40.763005   1.000000   1.000000
    3      -13.805004    -13.804791   1.000000   1.000000
    4        1.166881      1.167008   1.000000   1.000000
    5        1.498241      1.498271   1.000000   1.000000
    6        1.685644      1.685659   1.000000   1.000000
    7        7.978437      7.979513   0.000000   0.000000
    8       14.101475     14.102708   0.000000   0.000000
    9       14.246749     14.248001   0.000000   0.000000
   10       14.445579     14.446930   0.000000   0.000000
   11       19.021865     19.022669   0.000000   0.000000
   12       20.814365     20.815989   0.000000   0.000000
   13       22.389972     22.391097   0.000000   0.000000
   14       25.231176     25.233970   0.000000   0.000000
   15       26.876099     26.876207   0.000000   0.000000
   16       29.562282     29.556323   0.000000   0.000000
 
  0.1666667E+00  0.1666667E+00  0.9258623E-17  0.3472222E-02
    1      -41.119940    -41.116923   1.000000   1.000000
    2      -40.779357    -40.776266   1.000000   1.000000
    3      -13.772683    -13.772489   1.000000   1.000000
    4        1.079592      1.079789   1.000000   1.000000
    5        1.301049      1.301096   1.000000   1.000000
    6        1.301050      1.301118   1.000000   1.000000
    7        8.159960      8.160918   0.000000   0.000000
    8       14.381971     14.383074   0.000000   0.000000
    9       14.382077     14.383317   0.000000   0.000000
   10       14.888076     14.889572   0.000000   0.000000
   11       17.276716     17.277714   0.000000   0.000000
   12       23.275229     23.276304   0.000000   0.000000
   13       23.275343     23.276548   0.000000   0.000000
   14       24.609108     24.609084   0.000000   0.000000
   15       26.206757     26.212802   0.000000   0.000000
   16       30.328304     30.327120   0.000000   0.000000
 
  0.2500000E+00  0.1666667E+00  0.4727418E-14  0.1388889E-01
    1      -41.095330    -41.092307   1.000000   1.000000
    2      -40.797347    -40.794259   1.000000   1.000000
    3      -13.732964    -13.732794   1.000000   1.000000
    4        0.566279      0.566540   1.000000   1.000000
    5        1.125306      1.125399   1.000000   1.000000
    6        1.255886      1.255975   1.000000   1.000000
    7        8.398316      8.399174   0.000000   0.000000
    8       14.402033     14.403166   0.000000   0.000000
    9       14.563018     14.564200   0.000000   0.000000
   10       15.381034     15.382593   0.000000   0.000000
   11       16.772247     16.773288   0.000000   0.000000
   12       22.903997     22.904844   0.000000   0.000000
   13       24.063504     24.065449   0.000000   0.000000
   14       26.041160     26.041059   0.000000   0.000000
   15       26.602711     26.603094   0.000000   0.000000
   16       29.978807     29.979670   0.000000   0.000000
 
  0.3333333E+00  0.1666667E+00 -0.1198356E-14  0.1388889E-01
    1      -41.059864    -41.056833   1.000000   1.000000
    2      -40.824754    -40.821671   1.000000   1.000000
    3      -13.681820    -13.681678   1.000000   1.000000
    4       -0.073815     -0.073469   1.000000   1.000000
    5        0.991589      0.991700   1.000000   1.000000
    6        1.188348      1.188467   1.000000   1.000000
    7        8.813634      8.814400   0.000000   0.000000
    8       14.081464     14.082667   0.000000   0.000000
    9       14.678361     14.679472   0.000000   0.000000
   10       15.706697     15.708132   0.000000   0.000000
   11       17.100147     17.101309   0.000000   0.000000
   12       22.376194     22.377067   0.000000   0.000000
   13       24.541171     24.542089   0.000000   0.000000
   14       26.411779     26.412245   0.000000   0.000000
   15       29.160785     29.160398   0.000000   0.000000
   16       29.723052     29.731984   0.000000   0.000000
 
  0.4166667E+00  0.1666667E+00  0.1753228E-16  0.1388889E-01
    1      -41.016919    -41.013878   1.000000   1.000000
    2      -40.860433    -40.857357   1.000000   1.000000
    3      -13.632339    -13.632226   1.000000   1.000000
    4       -0.617405     -0.616993   1.000000   1.000000
    5        0.930457      0.930577   1.000000   1.000000
    6        1.061087      1.061236   1.000000   1.000000
    7        9.377816      9.378509   0.000000   0.000000
    8       13.571505     13.572769   0.000000   0.000000
    9       14.691495     14.692534   0.000000   0.000000
   10       15.644477     15.645721   0.000000   0.000000
   11       18.101463     18.102797   0.000000   0.000000
   12       21.947433     21.948432   0.000000   0.000000
   13       24.989898     24.990586   0.000000   0.000000
   14       26.892671     26.893727   0.000000   0.000000
   15       28.844590     28.843803   0.000000   0.000000
   16       29.405166     29.410487   0.000000   0.000000
 
  0.5000000E+00  0.1666667E+00  0.4752449E-14  0.1388889E-01
    1      -40.970189    -40.967138   1.000000   1.000000
    2      -40.902735    -40.899668   1.000000   1.000000
    3      -13.599491    -13.599396   1.000000   1.000000
    4       -0.949611     -0.949162   1.000000   1.000000
    5        0.917537      0.917710   1.000000   1.000000
    6        0.953723      0.953843   1.000000   1.000000
    7        9.988623      9.989243   0.000000   0.000000
    8       12.988970     12.990282   0.000000   0.000000
    9       14.687451     14.688435   0.000000   0.000000
   10       15.489242     15.490410   0.000000   0.000000
   11       19.285356     19.286776   0.000000   0.000000
   12       21.188361     21.189473   0.000000   0.000000
   13       25.512928     25.513703   0.000000   0.000000
   14       27.330254     27.331531   0.000000   0.000000
   15       28.565382     28.564537   0.000000   0.000000
   16       28.868486     28.869624   0.000000   0.000000
 
 -0.4166667E+00  0.1666667E+00 -0.1273026E-14  0.1388889E-01
    1      -40.949166    -40.946110   1.000000   1.000000
    2      -40.923111    -40.920049   1.000000   1.000000
    3      -13.594028    -13.593935   1.000000   1.000000
    4       -1.010489     -1.010036   1.000000   1.000000
    5        0.804409      0.804596   1.000000   1.000000
    6        1.055100      1.055209   1.000000   1.000000
    7       10.389808     10.390349   0.000000   0.000000
    8       12.532904     12.534278   0.000000   0.000000
    9       14.790252     14.791200   0.000000   0.000000
   10       15.409589     15.410788   0.000000   0.000000
   11       19.937652     19.938813   0.000000   0.000000
   12       20.382997     20.384405   0.000000   0.000000
   13       25.722478     25.723415   0.000000   0.000000
   14       27.875661     27.876475   0.000000   0.000000
   15       28.190922     28.192187   0.000000   0.000000
   16       28.735214     28.734278   0.000000   0.000000
 
 -0.3333333E+00  0.1666667E+00  0.1403974E-16  0.1388889E-01
    1      -40.996722    -40.993676   1.000000   1.000000
    2      -40.879108    -40.876037   1.000000   1.000000
    3      -13.618110    -13.618004   1.000000   1.000000
    4       -0.797239     -0.796813   1.000000   1.000000
    5        0.759587      0.759772   1.000000   1.000000
    6        1.211831      1.211921   1.000000   1.000000
    7       10.194904     10.195504   0.000000   0.000000
    8       12.606022     12.607345   0.000000   0.000000
    9       15.096074     15.097008   0.000000   0.000000
   10       15.351494     15.352784   0.000000   0.000000
   11       18.456522     18.457693   0.000000   0.000000
   12       21.228074     21.229365   0.000000   0.000000
   13       25.363161     25.363957   0.000000   0.000000
   14       27.365380     27.366364   0.000000   0.000000
   15       28.710570     28.712179   0.000000   0.000000
   16       29.063243     29.062234   0.000000   0.000000
 
 -0.2500000E+00  0.1666667E+00  0.4757471E-14  0.1388889E-01
    1      -41.042127    -41.039092   1.000000   1.000000
    2      -40.840481    -40.837401   1.000000   1.000000
    3      -13.663514    -13.663382   1.000000   1.000000
    4       -0.370173     -0.369799   1.000000   1.000000
    5        0.813990      0.814155   1.000000   1.000000
    6        1.387095      1.387161   1.000000   1.000000
    7        9.601011      9.601744   0.000000   0.000000
    8       13.069268     13.070500   0.000000   0.000000
    9       15.171043     15.172400   0.000000   0.000000
   10       15.634434     15.635419   0.000000   0.000000
   11       17.075642     17.076767   0.000000   0.000000
   12       21.645486     21.646705   0.000000   0.000000
   13       24.963232     24.963848   0.000000   0.000000
   14       26.382777     26.383774   0.000000   0.000000
   15       29.251292     29.250298   0.000000   0.000000
   16       29.428998     29.434838   0.000000   0.000000
 
 -0.1666667E+00  0.1666667E+00 -0.1182181E-14  0.6944444E-02
    1      -41.081490    -41.078465   1.000000   1.000000
    2      -40.809216    -40.806131   1.000000   1.000000
    3      -13.715856    -13.715694   1.000000   1.000000
    4        0.135689      0.135997   1.000000   1.000000
    5        1.001490      1.001611   1.000000   1.000000
    6        1.534946      1.534990   1.000000   1.000000
    7        8.989990      8.990846   0.000000   0.000000
    8       13.577397     13.578583   0.000000   0.000000
    9       14.834973     14.836316   0.000000   0.000000
   10       15.638226     15.639549   0.000000   0.000000
   11       16.788403     16.789199   0.000000   0.000000
   12       21.382642     21.383812   0.000000   0.000000
   13       24.742295     24.744293   0.000000   0.000000
   14       25.452199     25.452709   0.000000   0.000000
   15       29.138709     29.137899   0.000000   0.000000
   16       29.936339     29.946413   0.000000   0.000000
 
  0.2500000E+00  0.2500000E+00 -0.9610259E-17  0.3472222E-02
    1      -41.079535    -41.076508   1.000000   1.000000
    2      -40.808081    -40.804995   1.000000   1.000000
    3      -13.705164    -13.705010   1.000000   1.000000
    4        0.628765      0.629088   1.000000   1.000000
    5        0.914426      0.914520   1.000000   1.000000
    6        0.914431      0.914551   1.000000   1.000000
    7        8.181516      8.182293   0.000000   0.000000
    8       14.797576     14.798594   0.000000   0.000000
    9       14.797672     14.798812   0.000000   0.000000
   10       15.835681     15.837464   0.000000   0.000000
   11       16.295593     16.296812   0.000000   0.000000
   12       25.076784     25.077118   0.000000   0.000000
   13       25.115095     25.116196   0.000000   0.000000
   14       25.115235     25.116529   0.000000   0.000000
   15       25.627708     25.627678   0.000000   0.000000
   16       29.894341     29.893282   0.000000   0.000000
 
  0.3333333E+00  0.2500000E+00  0.4741122E-14  0.1388889E-01
    1      -41.053490    -41.050457   1.000000   1.000000
    2      -40.827013    -40.823931   1.000000   1.000000
    3      -13.664612    -13.664483   1.000000   1.000000
    4        0.199944      0.200283   1.000000   1.000000
    5        0.751128      0.751268   1.000000   1.000000
    6        0.861519      0.861687   1.000000   1.000000
    7        8.155295      8.156002   0.000000   0.000000
    8       14.757421     14.758503   0.000000   0.000000
    9       15.003509     15.004593   0.000000   0.000000
   10       16.274032     16.275566   0.000000   0.000000
   11       16.611214     16.612814   0.000000   0.000000
   12       24.408718     24.409513   0.000000   0.000000
   13       24.493413     24.493600   0.000000   0.000000
   14       26.079042     26.080133   0.000000   0.000000
   15       28.060660     28.060945   0.000000   0.000000
   16       29.837096     29.826078   0.000000   0.000000
 
  0.4166667E+00  0.2500000E+00 -0.4768600E-14  0.1388889E-01
    1      -41.020020    -41.016979   1.000000   1.000000
    2      -40.853858    -40.850781   1.000000   1.000000
    3      -13.621818    -13.621715   1.000000   1.000000
    4       -0.286343     -0.285967   1.000000   1.000000
    5        0.671842      0.671993   1.000000   1.000000
    6        0.777507      0.777725   1.000000   1.000000
    7        8.410995      8.411647   0.000000   0.000000
    8       14.364002     14.365141   0.000000   0.000000
    9       15.111808     15.112831   0.000000   0.000000
   10       16.381939     16.383354   0.000000   0.000000
   11       17.591854     17.593609   0.000000   0.000000
   12       23.478464     23.479386   0.000000   0.000000
   13       24.458615     24.458433   0.000000   0.000000
   14       26.653613     26.654708   0.000000   0.000000
   15       29.272912     29.272027   0.000000   0.000000
   16       29.785757     29.793418   0.000000   0.000000
 
  0.5000000E+00  0.2500000E+00 -0.1129110E-16  0.1388889E-01