    4    4    1    2
  0.1078046E+02  0.3243469E-09  0.3243469E-09  0.4903847E-09  0.5000000E-15
  1.000000000000000E-004
  CAR 
 unknown system                          
     18    234     16
 
  0.0000000E+00  0.0000000E+00  0.0000000E+00  0.1180638E-02
    1      -42.812809    -42.812232   1.000000   1.000000
    2      -21.841282    -21.841331   1.000000   1.000000
    3      -17.430284    -17.430342   1.000000   1.000000
    4       -6.464482     -6.464548   1.000000   1.000000
    5       -5.077902     -5.077960   1.000000   1.000000
    6       -5.010137     -5.010197   1.000000   1.000000
    7       -3.330584     -3.330663   1.000000   1.000000
    8        0.949425      0.949324   1.000000   1.000000
    9        1.027882      1.027778   1.000000   1.000000
   10        6.845864      6.845869   0.000000   0.000000
   11        6.903489      6.903440   0.000000   0.000000
   12        7.309953      7.309885   0.000000   0.000000
   13       10.684490     10.684635   0.000000   0.000000
   14       12.441456     12.441453   0.000000   0.000000
   15       15.205841     15.205612   0.000000   0.000000
   16       15.224944     15.224969   0.000000   0.000000
 
  0.9090909E-01  0.3062841E-18 -0.2282042E-16  0.4722550E-02
    1      -42.812287    -42.811710   1.000000   1.000000
    2      -21.823460    -21.823508   1.000000   1.000000
    3      -17.420463    -17.420522   1.000000   1.000000
    4       -6.429998     -6.430064   1.000000   1.000000
    5       -5.175068     -5.175127   1.000000   1.000000
    6       -5.044866     -5.044925   1.000000   1.000000
    7       -3.333731     -3.333812   1.000000   1.000000
    8        0.831542      0.831445   1.000000   1.000000
    9        0.935052      0.934952   1.000000   1.000000
   10        6.772971      6.772956   0.000000   0.000000
   11        7.045293      7.045249   0.000000   0.000000
   12        7.367758      7.367706   0.000000   0.000000
   13       10.897646     10.897788   0.000000   0.000000
   14       12.461748     12.461745   0.000000   0.000000
   15       14.971812     14.971971   0.000000   0.000000
   16       15.284704     15.285559   0.000000   0.000000
 
  0.1818182E+00  0.1908791E-16 -0.5552460E-16  0.4722550E-02
    1      -42.810851    -42.810275   1.000000   1.000000
    2      -21.775050    -21.775100   1.000000   1.000000
    3      -17.394032    -17.394091   1.000000   1.000000
    4       -6.350601     -6.350662   1.000000   1.000000
    5       -5.430096     -5.430159   1.000000   1.000000
    6       -5.107967     -5.108026   1.000000   1.000000
    7       -3.344848     -3.344932   1.000000   1.000000
    8        0.424552      0.424467   1.000000   1.000000
    9        0.801166      0.801070   1.000000   1.000000
   10        6.549729      6.549712   0.000000   0.000000
   11        7.044093      7.044032   0.000000   0.000000
   12        7.914913      7.914886   0.000000   0.000000
   13       11.457000     11.457137   0.000000   0.000000
   14       12.498913     12.499267   0.000000   0.000000
   15       14.063003     14.054589   0.000000   0.000000
   16       15.240337     15.213310   0.000000   0.000000
 
  0.2727273E+00  0.3459499E-17 -0.4991353E-16  0.4722550E-02
    1      -42.808961    -42.808384   1.000000   1.000000
    2      -21.710548    -21.710598   1.000000   1.000000
    3      -17.359129    -17.359188   1.000000   1.000000
    4       -6.332340     -6.332394   1.000000   1.000000
    5       -5.637759     -5.637834   1.000000   1.000000
    6       -5.183807     -5.183866   1.000000   1.000000
    7       -3.370727     -3.370815   1.000000   1.000000
    8       -0.076357     -0.076427   1.000000   1.000000
    9        0.641254      0.641163   1.000000   1.000000
   10        6.129065      6.129055   0.000000   0.000000
   11        7.068041      7.067978   0.000000   0.000000
   12        8.677391      8.677296   0.000000   0.000000
   13       12.066387     12.066496   0.000000   0.000000
   14       12.513726     12.511349   0.000000   0.000000
   15       13.413187     13.409423   0.000000   0.000000
   16       15.072109     15.044815   0.000000   0.000000
 
  0.3636364E+00  0.2213908E-16 -0.1035342E-15  0.4722550E-02
    1      -42.807207    -42.806630   1.000000   1.000000
    2      -21.650113    -21.650163   1.000000   1.000000
    3      -17.326853    -17.326913   1.000000   1.000000
    4       -6.476827     -6.476876   1.000000   1.000000
    5       -5.620133     -5.620217   1.000000   1.000000
    6       -5.251754     -5.251814   1.000000   1.000000
    7       -3.414966     -3.415057   1.000000   1.000000
    8       -0.501718     -0.501776   1.000000   1.000000
    9        0.501584      0.501498   1.000000   1.000000
   10        5.718997      5.718994   0.000000   0.000000
   11        7.092369      7.092303   0.000000   0.000000
   12        9.242313      9.242115   0.000000   0.000000
   13       12.308396     12.308469   0.000000   0.000000
   14       12.562116     12.556924   0.000000   0.000000
   15       13.656910     13.654055   0.000000   0.000000
   16       14.917102     14.898047   0.000000   0.000000
 
  0.4545455E+00  0.3886656E-16 -0.8343706E-16  0.4722550E-02
    1      -42.806170    -42.805593   1.000000   1.000000
    2      -21.613623    -21.613673   1.000000   1.000000
    3      -17.307607    -17.307667   1.000000   1.000000
    4       -6.613639     -6.613689   1.000000   1.000000
    5       -5.533113     -5.533201   1.000000   1.000000
    6       -5.292388     -5.292448   1.000000   1.000000
    7       -3.457105     -3.457198   1.000000   1.000000
    8       -0.739475     -0.739527   1.000000   1.000000
    9        0.422095      0.422011   1.000000   1.000000
   10        5.472723      5.472723   0.000000   0.000000
   11        7.103642      7.103575   0.000000   0.000000
   12        9.435351      9.435373   0.000000   0.000000
   13       12.323177     12.323240   0.000000   0.000000
   14       12.808423     12.807878   0.000000   0.000000
   15       14.006015     14.007582   0.000000   0.000000
   16       14.809771     14.808401   0.000000   0.000000
 
  0.9090909E-01  0.9090909E-01 -0.3751756E-16  0.2361275E-02
    1      -42.812227    -42.811650   1.000000   1.000000
    2      -21.821284    -21.821333   1.000000   1.000000
    3      -17.422015    -17.422074   1.000000   1.000000
    4       -6.409571     -6.409637   1.000000   1.000000
    5       -5.124222     -5.124282   1.000000   1.000000
    6       -5.114211     -5.114269   1.000000   1.000000
    7       -3.355726     -3.355807   1.000000   1.000000
    8        0.767801      0.767706   1.000000   1.000000
    9        1.022244      1.022141   1.000000   1.000000
   10        6.707683      6.707674   0.000000   0.000000
   11        7.204086      7.204020   0.000000   0.000000
   12        7.321807      7.321768   0.000000   0.000000
   13       10.845876     10.846013   0.000000   0.000000
   14       12.385121     12.385128   0.000000   0.000000
   15       15.210406     15.210325   0.000000   0.000000
   16       15.279171     15.279328   0.000000   0.000000
 
  0.1818182E+00  0.9090909E-01 -0.4991353E-16  0.4722550E-02
    1      -42.811217    -42.810640   1.000000   1.000000
    2      -21.786268    -21.786317   1.000000   1.000000
    3      -17.405382    -17.405441   1.000000   1.000000
    4       -6.332058     -6.332123   1.000000   1.000000
    5       -5.339640     -5.339701   1.000000   1.000000
    6       -5.139300     -5.139359   1.000000   1.000000
    7       -3.384581     -3.384665   1.000000   1.000000
    8        0.502258      0.502171   1.000000   1.000000
    9        0.933459      0.933360   1.000000   1.000000
   10        6.640417      6.640405   0.000000   0.000000
   11        7.067723      7.067661   0.000000   0.000000
   12        7.769935      7.769901   0.000000   0.000000
   13       11.211099     11.211209   0.000000   0.000000
   14       12.351016     12.351285   0.000000   0.000000
   15       14.368541     14.367853   0.000000   0.000000
   16       15.205106     15.201071   0.000000   0.000000
 
  0.2727273E+00  0.9090909E-01 -0.1197808E-15  0.4722550E-02
    1      -42.809499    -42.808922   1.000000   1.000000
    2      -21.728640    -21.728689   1.000000   1.000000
    3      -17.375576    -17.375635   1.000000   1.000000
    4       -6.264329     -6.264388   1.000000   1.000000
    5       -5.579331     -5.579401   1.000000   1.000000
    6       -5.209867     -5.209926   1.000000   1.000000
    7       -3.421117     -3.421203   1.000000   1.000000
    8        0.102258      0.102183   1.000000   1.000000
    9        0.747768      0.747676   1.000000   1.000000
   10        6.314045      6.314031   0.000000   0.000000
   11        7.030734      7.030675   0.000000   0.000000
   12        8.490078      8.490060   0.000000   0.000000
   13       11.805609     11.805713   0.000000   0.000000
   14       12.358233     12.358515   0.000000   0.000000
   15       13.503584     13.502449   0.000000   0.000000
   16       15.152696     15.144034   0.000000   0.000000
 
  0.3636364E+00  0.9090909E-01 -0.2718239E-16  0.4722550E-02
    1      -42.807684    -42.807107   1.000000   1.000000
    2      -21.666136    -21.666185   1.000000   1.000000
    3      -17.341987    -17.342047   1.000000   1.000000
    4       -6.353786     -6.353838   1.000000   1.000000
    5       -5.629957     -5.630038   1.000000   1.000000
    6       -5.287800     -5.287860   1.000000   1.000000
    7       -3.468815     -3.468905   1.000000   1.000000
    8       -0.308206     -0.308270   1.000000   1.000000
    9        0.551197      0.551111   1.000000   1.000000
   10        5.883736      5.883728   0.000000   0.000000
   11        7.022396      7.022338   0.000000   0.000000
   12        9.241301      9.241248   0.000000   0.000000
   13       12.130522     12.130035   0.000000   0.000000
   14       12.438392     12.437117   0.000000   0.000000
   15       13.423400     13.422582   0.000000   0.000000
   16       15.053102     15.047467   0.000000   0.000000
 
  0.4545455E+00  0.9090909E-01 -0.5582492E-16  0.4722550E-02
    1      -42.806349    -42.805772   1.000000   1.000000
    2      -21.618945    -21.618995   1.000000   1.000000
    3      -17.315324    -17.315384   1.000000   1.000000
    4       -6.522145     -6.522194   1.000000   1.000000
    5       -5.560796     -5.560877   1.000000   1.000000
    6       -5.320547     -5.320613   1.000000   1.000000
    7       -3.515085     -3.515177   1.000000   1.000000
    8       -0.605587     -0.605643   1.000000   1.000000
    9        0.399480      0.399397   1.000000   1.000000
   10        5.555954      5.555953   0.000000   0.000000
   11        6.998971      6.998913   0.000000   0.000000
   12        9.657491      9.657484   0.000000   0.000000
   13       12.350986     12.350619   0.000000   0.000000
   14       12.528169     12.527691   0.000000   0.000000
   15       13.784595     13.784712   0.000000   0.000000
   16       14.942345     14.939775   0.000000   0.000000
 
 -0.4545455E+00  0.9090909E-01  0.4429572E-17  0.4722550E-02
    1      -42.805883    -42.805305   1.000000   1.000000
    2      -21.602821    -21.602871   1.000000   1.000000
    3      -17.304059    -17.304119   1.000000   1.000000
    4       -6.597338     -6.597387   1.000000   1.000000
    5       -5.545709     -5.545785   1.000000   1.000000
    6       -5.306321     -5.306393   1.000000   1.000000
    7       -3.518082     -3.518175   1.000000   1.000000
    8       -0.716943     -0.716996   1.000000   1.000000
    9        0.328742      0.328661   1.000000   1.000000
   10        5.443953      5.443953   0.000000   0.000000
   11        6.973252      6.973196   0.000000   0.000000
   12        9.749954      9.749974   0.000000   0.000000
   13       12.366860     12.366880   0.000000   0.000000
   14       12.810081     12.809828   0.000000   0.000000
   15       13.876185     13.876801   0.000000   0.000000
   16       14.851792     14.851404   0.000000   0.000000
 
 -0.3636364E+00  0.9090909E-01  0.2554368E-16  0.4722550E-02
    1      -42.806469    -42.805892   1.000000   1.000000
    2      -21.623477    -21.623529   1.000000   1.000000
    3      -17.311970    -17.312031   1.000000   1.000000
    4       -6.539579     -6.539628   1.000000   1.000000
    5       -5.568037     -5.568117   1.000000   1.000000
    6       -5.312633     -5.312700   1.000000   1.000000
    7       -3.456847     -3.456939   1.000000   1.000000
    8       -0.619507     -0.619561   1.000000   1.000000
    9        0.358782      0.358699   1.000000   1.000000
   10        5.578361      5.578359   0.000000   0.000000
   11        6.955741      6.955686   0.000000   0.000000
   12        9.658350      9.658276   0.000000   0.000000
   13       12.325417     12.324994   0.000000   0.000000
   14       12.780705     12.777297   0.000000   0.000000
   15       13.703220     13.704249   0.000000   0.000000
   16       14.809933     14.799761   0.000000   0.000000
 
 -0.2727273E+00  0.9090909E-01 -0.1640056E-16  0.4722550E-02
    1      -42.807888    -42.807310   1.000000   1.000000
    2      -21.673639    -21.673687   1.000000   1.000000
    3      -17.336524    -17.336584   1.000000   1.000000
    4       -6.409290     -6.409339   1.000000   1.000000
    5       -5.600934     -5.601013   1.000000   1.000000
    6       -5.283155     -5.283216   1.000000   1.000000
    7       -3.379188     -3.379279   1.000000   1.000000
    8       -0.325460     -0.325521   1.000000   1.000000
    9        0.483683      0.483596   1.000000   1.000000
   10        5.909574      5.909565   0.000000   0.000000
   11        6.943190      6.943136   0.000000   0.000000
   12        9.235490      9.234412   0.000000   0.000000
   13       12.265415     12.265225   0.000000   0.000000
   14       12.704854     12.696164   0.000000   0.000000
   15       13.334796     13.334930   0.000000   0.000000
   16       14.819423     14.747557   0.000000   0.000000
 
 -0.1818182E+00  0.9090909E-01  0.7149938E-17  0.4722550E-02
    1      -42.809734    -42.809157   1.000000   1.000000
    2      -21.736628    -21.736680   1.000000   1.000000
    3      -17.369863    -17.369922   1.000000   1.000000
    4       -6.350338     -6.350394   1.000000   1.000000
    5       -5.522791     -5.522861   1.000000   1.000000
    6       -5.196844     -5.196904   1.000000   1.000000
    7       -3.333298     -3.333384   1.000000   1.000000
    8        0.104449      0.104376   1.000000   1.000000
    9        0.661306      0.661213   1.000000   1.000000
   10        6.330791      6.330775   0.000000   0.000000
   11        6.925598      6.925545   0.000000   0.000000
   12        8.486801      8.486367   0.000000   0.000000
   13       11.894659     11.894652   0.000000   0.000000
   14       12.716877     12.714952   0.000000   0.000000
   15       13.484841     13.479186   0.000000   0.000000
   16       14.897335     14.812257   0.000000   0.000000
 
 -0.9090909E-01  0.9090909E-01 -0.3796009E-16  0.2361275E-02
    1      -42.811355    -42.810778   1.000000   1.000000
    2      -21.792178    -21.792227   1.000000   1.000000
    3      -17.401093    -17.401153   1.000000   1.000000
    4       -6.392207     -6.392269   1.000000   1.000000
    5       -5.329790     -5.329852   1.000000   1.000000
    6       -5.096745     -5.096805   1.000000   1.000000
    7       -3.322803     -3.322886   1.000000   1.000000
    8        0.551828      0.551741   1.000000   1.000000
    9        0.822021      0.821923   1.000000   1.000000
   10        6.705838      6.705819   0.000000   0.000000
   11        6.908585      6.908536   0.000000   0.000000
   12        7.763406      7.763405   0.000000   0.000000
   13       11.309174     11.309616   0.000000   0.000000
   14       12.585342     12.585376   0.000000   0.000000
   15       14.746147     14.548369   0.000000   0.000000
   16       15.408203     15.074562   0.000000   0.000000
 
  0.1818182E+00  0.1818182E+00 -0.6467828E-16  0.2361275E-02
    1      -42.810656    -42.810079   1.000000   1.000000
    2      -21.766870    -21.766919   1.000000   1.000000
    3      -17.400387    -17.400446   1.000000   1.000000
    4       -6.273707     -6.273771   1.000000   1.000000
    5       -5.383418     -5.383481   1.000000   1.000000
    6       -5.210173     -5.210232   1.000000   1.000000
    7       -3.438672     -3.438756   1.000000   1.000000
    8        0.311356      0.311275   1.000000   1.000000
    9        1.009995      1.009894   1.000000   1.000000
   10        6.664482      6.664472   0.000000   0.000000
   11        6.923172      6.923114   0.000000   0.000000
   12        8.018674      8.018638   0.000000   0.000000
   13       11.285524     11.285440   0.000000   0.000000
   14       12.296754     12.297550   0.000000   0.000000
   15       14.210211     14.209864   0.000000   0.000000
   16       15.159836     15.159597   0.000000   0.000000
 
  0.2727273E+00  0.1818182E+00 -0.9731485E-16  0.4722550E-02
    1      -42.809380    -42.808803   1.000000   1.000000
    2      -21.722514    -21.722563   1.000000   1.000000
    3      -17.380815    -17.380874   1.000000   1.000000
    4       -6.219731     -6.219791   1.000000   1.000000
    5       -5.517797     -5.517867   1.000000   1.000000
    6       -5.285446     -5.285504   1.000000   1.000000
    7       -3.502897     -3.502984   1.000000   1.000000
    8        0.012974      0.012902   1.000000   1.000000
    9        0.914287      0.914190   1.000000   1.000000
   10        6.449533      6.449514   0.000000   0.000000
   11        6.834803      6.834755   0.000000   0.000000
   12        8.581045      8.580985   0.000000   0.000000
   13       11.598116     11.598098   0.000000   0.000000
   14       12.378040     12.378016   0.000000   0.000000
   15       13.559886     13.563457   0.000000   0.000000
   16       15.071201     15.070565   0.000000   0.000000
 
  0.3636364E+00  0.1818182E+00 -0.9982707E-16  0.4722550E-02
    1      -42.807753    -42.807176   1.000000   1.000000
    2      -21.666588    -21.666638   1.000000   1.000000
    3      -17.352609    -17.352669   1.000000   1.000000
    4       -6.268242     -6.268296   1.000000   1.000000
    5       -5.558187     -5.558262   1.000000   1.000000
    6       -5.375233     -5.375296   1.000000   1.000000
    7       -3.578881     -3.578970   1.000000   1.000000
    8       -0.282239     -0.282303   1.000000   1.000000
    9        0.682708      0.682619   1.000000   1.000000
   10        6.047968      6.047954   0.000000   0.000000
   11        6.798369      6.798325   0.000000   0.000000
   12        9.400812      9.400697   0.000000   0.000000
   13       11.785281     11.785368   0.000000   0.000000
   14       12.553056     12.552963   0.000000   0.000000
   15       13.316810     13.316961   0.000000   0.000000
   16       14.985142     14.984967   0.000000   0.000000
 
  0.4545455E+00  0.1818182E+00 -0.4723677E-16  0.4722550E-02
    1      -42.806350    -42.805773   1.000000   1.000000
    2      -21.617041    -21.617090   1.000000   1.000000
    3      -17.324689    -17.324749   1.000000   1.000000
    4       -6.389107     -6.389158   1.000000   1.000000
    5       -5.633754     -5.633818   1.000000   1.000000
    6       -5.311580     -5.311661   1.000000   1.000000
    7       -3.657241     -3.657332   1.000000   1.000000
    8       -0.491540     -0.491599   1.000000   1.000000
    9        0.407675      0.407594   1.000000   1.000000
   10        5.684408      5.684401   0.000000   0.000000
   11        6.743208      6.743167   0.000000   0.000000
   12       10.164370     10.164338   0.000000   0.000000
   13       11.954533     11.954272   0.000000   0.000000
   14       12.533339     12.533383   0.000000   0.000000
   15       13.573643     13.573753   0.000000   0.000000
   16       14.881347     14.881721   0.000000   0.000000
 
 -0.4545455E+00  0.1818182E+00  0.3366697E-16  0.4722550E-02
    1      -42.805559    -42.804982   1.000000   1.000000
    2      -21.589924    -21.589974   1.000000   1.000000
    3      -17.305795    -17.305855   1.000000   1.000000
    4       -6.475721     -6.475771   1.000000   1.000000
    5       -5.714637     -5.714697   1.000000   1.000000
    6       -5.216611     -5.216699   1.000000   1.000000
    7       -3.688278     -3.688369   1.000000   1.000000
    8       -0.574963     -0.575020   1.000000   1.000000
    9        0.183540      0.183465   1.000000   1.000000
   10        5.481085      5.481082   0.000000   0.000000
   11        6.705326      6.705287   0.000000   0.000000
   12       10.460458     10.460463   0.000000   0.000000
   13       12.374751     12.374527   0.000000   0.000000
   14       12.587898     12.587856   0.000000   0.000000
   15       13.588093     13.588241   0.000000   0.000000
   16       14.774923     14.774990   0.000000   0.000000
 
 -0.3636364E+00  0.1818182E+00 -0.1697664E-16  0.4722550E-02
    1      -42.805677    -42.805099   1.000000   1.000000
    2      -21.594612    -21.594662   1.000000   1.000000
    3      -17.302164    -17.302224   1.000000   1.000000
    4       -6.491842     -6.491892   1.000000   1.000000
    5       -5.700963     -5.701024   1.000000   1.000000
    6       -5.248384     -5.248472   1.000000   1.000000
    7       -3.614790     -3.614882   1.000000   1.000000
    8       -0.550983     -0.551038   1.000000   1.000000
    9        0.102336      0.102262   1.000000   1.000000
   10        5.490635      5.490633   0.000000   0.000000
   11        6.711066      6.711027   0.000000   0.000000
   12       10.422223     10.422194   0.000000   0.000000
   13       12.318261     12.317876   0.000000   0.000000
   14       12.855021     12.854199   0.000000   0.000000
   15       13.524431     13.524478   0.000000   0.000000
   16       14.724362     14.723468   0.000000   0.000000
 
 -0.2727273E+00  0.1818182E+00 -0.1026490E-16  0.4722550E-02
    1      -42.806637    -42.806059   1.000000   1.000000
    2      -21.629295    -21.629344   1.000000   1.000000
    3      -17.315039    -17.315099   1.000000   1.000000
    4       -6.447923     -6.447971   1.000000   1.000000
    5       -5.579408     -5.579471   1.000000   1.000000
    6       -5.380628     -5.380711   1.000000   1.000000
    7       -3.478442     -3.478534   1.000000   1.000000
    8       -0.444384     -0.444440   1.000000   1.000000
    9        0.212238      0.212160   1.000000   1.000000
   10        5.691995      5.691988   0.000000   0.000000
   11        6.759286      6.759244   0.000000   0.000000
   12       10.049393     10.049055   0.000000   0.000000
   13       12.192238     12.191819   0.000000   0.000000
   14       12.942075     12.937759   0.000000   0.000000
   15       13.312893     13.311065   0.000000   0.000000
   16       14.730479     14.704189   0.000000   0.000000
 
 -0.1818182E+00  0.1818182E+00 -0.3160115E-16  0.2361275E-02
    1      -42.808135    -42.807557   1.000000   1.000000
    2      -21.682316    -21.682366   1.000000   1.000000
    3      -17.340330    -17.340389   1.000000   1.000000
    4       -6.382824     -6.382876   1.000000   1.000000
    5       -5.516318     -5.516397   1.000000   1.000000
    6       -5.373041     -5.373100   1.000000   1.000000
    7       -3.372542     -3.372633   1.000000   1.000000
    8       -0.223389     -0.223452   1.000000   1.000000
    9        0.440408      0.440322   1.000000   1.000000
   10        6.007566      6.007552   0.000000   0.000000
   11        6.832325      6.832279   0.000000   0.000000
   12        9.296651      9.294977   0.000000   0.000000
   13       12.238252     12.238375   0.000000   0.000000
   14       12.976303     12.970574   0.000000   0.000000
   15       12.983575     12.983603   0.000000   0.000000
   16       14.718420     14.665530   0.000000   0.000000
 
  0.2727273E+00  0.2727273E+00 -0.9982707E-16  0.2361275E-02
    1      -42.808578    -42.808001   1.000000   1.000000
    2      -21.693723    -21.693773   1.000000   1.000000
    3      -17.373270    -17.373330   1.000000   1.000000
    4       -6.230364     -6.230420   1.000000   1.000000
    5       -5.497474     -5.497550   1.000000   1.000000
    6       -5.332623     -5.332681   1.000000   1.000000
    7       -3.603082     -3.603171   1.000000   1.000000
    8       -0.227774     -0.227838   1.000000   1.000000
    9        1.000667      1.000568   1.000000   1.000000
   10        6.495548      6.495536   0.000000   0.000000
   11        6.562685      6.562634   0.000000   0.000000
   12        8.890088      8.889991   0.000000   0.000000
   13       11.509221     11.508468   0.000000   0.000000
   14       12.582064     12.581974   0.000000   0.000000
   15       13.445392     13.439386   0.000000   0.000000
   16       14.912593     14.910746   0.000000   0.000000
 
  0.3636364E+00  0.2727273E+00 -0.7695248E-16  0.4722550E-02
    1      -42.807375    -42.806798   1.000000   1.000000
    2      -21.651102    -21.651151   1.000000   1.000000
    3      -17.355465    -17.355525   1.000000   1.000000
    4       -6.307814     -6.307866   1.000000   1.000000
    5       -5.453350     -5.453412   1.000000   1.000000
    6       -5.377067     -5.377144   1.000000   1.000000
    7       -3.719451     -3.719542   1.000000   1.000000
    8       -0.462594     -0.462651   1.000000   1.000000
    9        0.897871      0.897776   1.000000   1.000000
   10        6.178920      6.178898   0.000000   0.000000
   11        6.512452      6.512418   0.000000   0.000000
   12        9.491681      9.491551   0.000000   0.000000
   13       11.540072     11.539988   0.000000   0.000000
   14       12.739649     12.739852   0.000000   0.000000
   15       13.355990     13.354016   0.000000   0.000000
   16       14.755937     14.758876   0.000000   0.000000
 
  0.4545455E+00  0.2727273E+00 -0.1218416E-15  0.4722550E-02
    1      -42.806145    -42.805568   1.000000   1.000000
    2      -21.608091    -21.608140   1.000000   1.000000
    3      -17.332812    -17.332872   1.000000   1.000000
    4       -6.368505     -6.368558   1.000000   1.000000
    5       -5.651521     -5.651579   1.000000   1.000000
    6       -5.193462     -5.193550   1.000000   1.000000
    7       -3.844301     -3.844392   1.000000   1.000000
    8       -0.596864     -0.596918   1.000000   1.000000
    9        0.626026      0.625939   1.000000   1.000000
   10        5.841518      5.841502   0.000000   0.000000
   11        6.445622      6.445593   0.000000   0.000000
   12       10.394105     10.394093   0.000000   0.000000
   13       11.598795     11.598828   0.000000   0.000000
   14       12.675088     12.675209   0.000000   0.000000
   15       13.455880     13.455930   0.000000   0.000000
   16       14.681614     14.681205   0.000000   0.000000
 
 -0.4545455E+00  0.2727273E+00  0.1609257E-16  0.4722550E-02
    1      -42.805318    -42.804740   1.000000   1.000000
    2      -21.578762    -21.578811   1.000000   1.000000
    3      -17.312383    -17.312443   1.000000   1.000000
    4       -6.352465     -6.352517   1.000000   1.000000
    5       -5.882700     -5.882755   1.000000   1.000000
    6       -5.038138     -5.038231   1.000000   1.000000
    7       -3.923636     -3.923725   1.000000   1.000000
    8       -0.582878     -0.582933   1.000000   1.000000
    9        0.268213      0.268137   1.000000   1.000000
   10        5.591572      5.591563   0.000000   0.000000
   11        6.409104      6.409079   0.000000   0.000000
   12       11.270290     11.270282   0.000000   0.000000
   13       11.773257     11.773250   0.000000   0.000000
   14       12.680784     12.680873   0.000000   0.000000
   15       13.250715     13.250780   0.000000   0.000000
   16       14.645332     14.645286   0.000000   0.000000
 
 -0.3636364E+00  0.2727273E+00 -0.1542721E-16  0.4722550E-02
    1      -42.805115    -42.804538   1.000000   1.000000
    2      -21.572543    -21.572593   1.000000   1.000000
    3      -17.300718    -17.300779   1.000000   1.000000
    4       -6.329307     -6.329359   1.000000   1.000000
    5       -5.982800     -5.982856   1.000000   1.000000
    6       -5.047253     -5.047349   1.000000   1.000000
    7       -3.856030     -3.856118   1.000000   1.000000
    8       -0.423886     -0.423945   1.000000   1.000000
    9       -0.075289     -0.075355   1.000000   1.000000
   10        5.485826      5.485821   0.000000   0.000000
   11        6.453615      6.453589   0.000000   0.000000
   12       11.312114     11.312105   0.000000   0.000000
   13       12.255728     12.255596   0.000000   0.000000
   14       12.777838     12.777876   0.000000   0.000000
   15       13.116998     13.117041   0.000000   0.000000
   16       14.601454     14.601474   0.000000   0.000000
 
 -0.2727273E+00  0.2727273E+00 -0.2608202E-16  0.2361275E-02
    1      -42.805607    -42.805030   1.000000   1.000000
    2      -21.591423    -21.591473   1.000000   1.000000
    3      -17.301645    -17.301706   1.000000   1.000000
    4       -6.408677     -6.408727   1.000000   1.000000
    5       -5.813584     -5.813640   1.000000   1.000000
    6       -5.209840     -5.209934   1.000000   1.000000
    7       -3.664002     -3.664093   1.000000   1.000000
    8       -0.373246     -0.373304   1.000000   1.000000
    9       -0.099649     -0.099719   1.000000   1.000000
   10        5.531699      5.531695   0.000000   0.000000
   11        6.581307      6.581274   0.000000   0.000000
   12       10.874564     10.874525   0.000000   0.000000
   13       12.092232     12.092290   0.000000   0.000000
   14       13.073595     13.073678   0.000000   0.000000
   15       13.234757     13.234293   0.000000   0.000000
   16       14.620030     14.617490   0.000000   0.000000
 
  0.3636364E+00  0.3636364E+00 -0.2070685E-15  0.2361275E-02