       N       E                     dE             d eps       ncg     rms          rms(c)
DAV:   1     0.789871456038E+02    0.78987E+02   -0.84495E+03 14984   0.104E+03
DAV:   2    -0.239789782584E+02   -0.10297E+03   -0.99331E+02 20408   0.248E+02
DAV:   3    -0.286756904470E+02   -0.46967E+01   -0.46793E+01 21280   0.552E+01
DAV:   4    -0.288260513455E+02   -0.15036E+00   -0.15031E+00 21032   0.861E+00
DAV:   5    -0.288276088910E+02   -0.15575E-02   -0.15575E-02 20296   0.845E-01    0.131E+01
RMM:   6    -0.275155011665E+02    0.13121E+01   -0.31894E+00 16462   0.112E+01    0.604E+00
RMM:   7    -0.274256998518E+02    0.89801E-01   -0.50321E-01 18766   0.592E+00    0.351E+00
RMM:   8    -0.273976808072E+02    0.28019E-01   -0.19855E-01 19896   0.333E+00    0.175E+00
RMM:   9    -0.274069958827E+02   -0.93151E-02   -0.42754E-02 21453   0.169E+00    0.649E-01
RMM:  10    -0.274080280543E+02   -0.10322E-02   -0.11972E-02 22870   0.818E-01    0.155E-01
RMM:  11    -0.274087478220E+02   -0.71977E-03   -0.28322E-03 23642   0.416E-01    0.811E-02
RMM:  12    -0.274090416875E+02   -0.29387E-03   -0.13746E-03 25089   0.248E-01    0.417E-02
RMM:  13    -0.274091369431E+02   -0.95256E-04   -0.48729E-04 24591   0.145E-01    0.134E-02
RMM:  14    -0.274091748974E+02   -0.37954E-04   -0.24529E-04 23762   0.979E-02    0.778E-03
RMM:  15    -0.274091899379E+02   -0.15040E-04   -0.10970E-04 21525   0.623E-02    0.439E-03
RMM:  16    -0.274091964747E+02   -0.65368E-05   -0.48233E-05 18861   0.428E-02
   1 F= -.27409196E+02 E0= -.27409196E+02  d E =0.000000E+00  mag=    -0.0000
