    8    8    1    2
  0.1037845E+02  0.5310273E-09  0.4871811E-09  0.4871811E-09  0.5000000E-15
  1.000000000000000E-004
  CAR 
 unknown system                          
     36    324     26
 
  0.0000000E+00  0.0000000E+00  0.0000000E+00  0.1562500E-02
    1      -39.530246    -39.530137   1.000000   1.000000
    2      -39.508881    -39.508785   1.000000   1.000000
    3      -14.219028    -14.219043   1.000000   1.000000
    4      -10.196591    -10.196607   1.000000   1.000000
    5      -10.066024    -10.066037   1.000000   1.000000
    6       -9.520396     -9.520406   1.000000   1.000000
    7       -7.689513     -7.689533   1.000000   1.000000
    8       -2.770480     -2.770495   1.000000   1.000000
    9       -2.645984     -2.645999   1.000000   1.000000
   10       -2.060561     -2.060578   1.000000   1.000000
   11        0.498977      0.498966   1.000000   1.000000
   12        1.093816      1.093820   1.000000   1.000000
   13        1.801737      1.801727   1.000000   1.000000
   14        2.705024      2.705013   1.000000   1.000000
   15        2.882754      2.882752   1.000000   1.000000
   16        3.095689      3.095687   1.000000   1.000000
   17        3.224166      3.224168   1.000000   1.000000
   18        3.354332      3.354324   1.000000   1.000000
   19        7.743334      7.743333   0.000003   0.000003
   20        8.519798      8.519790   0.000000   0.000000
   21       11.318063     11.318047   0.000000   0.000000
   22       11.739385     11.739364   0.000000   0.000000
   23       12.065855     12.065834   0.000000   0.000000
   24       12.455281     12.455292   0.000000   0.000000
   25       12.892131     12.892029   0.000000   0.000000
   26       13.506334     13.500797   0.000000   0.000000
 
  0.1250000E+00 -0.2022043E-17 -0.3961132E-16  0.3125000E-02
    1      -39.530022    -39.529914   1.000000   1.000000
    2      -39.509072    -39.508976   1.000000   1.000000
    3      -14.170950    -14.170966   1.000000   1.000000
    4      -10.258541    -10.258555   1.000000   1.000000
    5      -10.145187    -10.145202   1.000000   1.000000
    6       -9.683524     -9.683537   1.000000   1.000000
    7       -7.380169     -7.380187   1.000000   1.000000
    8       -2.773330     -2.773344   1.000000   1.000000
    9       -2.636966     -2.636981   1.000000   1.000000
   10       -2.033026     -2.033043   1.000000   1.000000
   11        0.473310      0.473299   1.000000   1.000000
   12        1.156500      1.156501   1.000000   1.000000
   13        1.814041      1.814031   1.000000   1.000000
   14        2.441917      2.441910   1.000000   1.000000
   15        2.885279      2.885273   1.000000   1.000000
   16        3.059954      3.059958   1.000000   1.000000
   17        3.297387      3.297377   1.000000   1.000000
   18        3.342313      3.342316   1.000000   1.000000
   19        7.987015      7.987012  -0.000000  -0.000000
   20        8.839417      8.839405   0.000000   0.000000
   21       10.706628     10.706619   0.000000   0.000000
   22       11.528696     11.528677   0.000000   0.000000
   23       12.152922     12.152909   0.000000   0.000000
   24       12.634267     12.633988   0.000000   0.000000
   25       12.970409     12.970194   0.000000   0.000000
   26       13.758656     13.759769   0.000000   0.000000
 
  0.2500000E+00 -0.4044086E-17 -0.7922264E-16  0.3125000E-02
    1      -39.529485    -39.529377   1.000000   1.000000
    2      -39.509598    -39.509502   1.000000   1.000000
    3      -14.043085    -14.043101   1.000000   1.000000
    4      -10.645710    -10.645722   1.000000   1.000000
    5      -10.198080    -10.198096   1.000000   1.000000
    6       -9.818472     -9.818485   1.000000   1.000000
    7       -6.794437     -6.794454   1.000000   1.000000
    8       -2.790818     -2.790832   1.000000   1.000000
    9       -2.571528     -2.571544   1.000000   1.000000
   10       -1.986047     -1.986063   1.000000   1.000000
   11        0.426548      0.426538   1.000000   1.000000
   12        1.125909      1.125900   1.000000   1.000000
   13        1.868453      1.868443   1.000000   1.000000
   14        2.031530      2.031533   1.000000   1.000000
   15        2.716159      2.716156   1.000000   1.000000
   16        3.151283      3.151280   1.000000   1.000000
   17        3.231575      3.231572   1.000000   1.000000
   18        3.566365      3.566363   1.000000   1.000000
   19        8.620035      8.620027   0.000000   0.000000
   20        9.315088      9.315070   0.000000   0.000000
   21       10.299009     10.299003   0.000000   0.000000
   22       11.086751     11.086740   0.000000   0.000000
   23       11.693735     11.693715   0.000000   0.000000
   24       12.893255     12.893331   0.000000   0.000000
   25       13.242249     13.240961   0.000000   0.000000
   26       13.820596     13.789194   0.000000   0.000000
 
  0.3750000E+00  0.5347825E-17 -0.6085898E-16  0.3125000E-02
    1      -39.528908    -39.528799   1.000000   1.000000
    2      -39.510157    -39.510061   1.000000   1.000000
    3      -13.892462    -13.892479   1.000000   1.000000
    4      -11.064768    -11.064779   1.000000   1.000000
    5      -10.221795    -10.221810   1.000000   1.000000
    6       -9.864607     -9.864621   1.000000   1.000000
    7       -6.301339     -6.301354   1.000000   1.000000
    8       -2.801673     -2.801688   1.000000   1.000000
    9       -2.422887     -2.422903   1.000000   1.000000
   10       -2.009640     -2.009657   1.000000   1.000000
   11        0.372542      0.372532   1.000000   1.000000
   12        0.803548      0.803538   1.000000   1.000000
   13        1.787449      1.787447   1.000000   1.000000
   14        2.102094      2.102094   1.000000   1.000000
   15        2.544483      2.544480   1.000000   1.000000
   16        3.087503      3.087500   1.000000   1.000000
   17        3.372583      3.372579   1.000000   1.000000
   18        3.786542      3.786535   1.000000   1.000000
   19        8.875347      8.875332   0.000000   0.000000
   20        9.747001      9.746991   0.000000   0.000000
   21       10.615326     10.615315   0.000000   0.000000
   22       10.975988     10.975980   0.000000   0.000000
   23       11.292227     11.292214   0.000000   0.000000
   24       12.733479     12.733528   0.000000   0.000000
   25       13.092938     13.098441   0.000000   0.000000
   26       13.237516     13.233606   0.000000   0.000000
 
  0.5000000E+00 -0.8088171E-17 -0.1584453E-15  0.1562500E-02
    1      -39.528668    -39.528558   1.000000   1.000000
    2      -39.510404    -39.510308   1.000000   1.000000
    3      -13.820544    -13.820561   1.000000   1.000000
    4      -11.237154    -11.237166   1.000000   1.000000
    5      -10.230356    -10.230372   1.000000   1.000000
    6       -9.877830     -9.877844   1.000000   1.000000
    7       -6.109913     -6.109929   1.000000   1.000000
    8       -2.796866     -2.796882   1.000000   1.000000
    9       -2.291954     -2.291971   1.000000   1.000000
   10       -2.091517     -2.091532   1.000000   1.000000
   11        0.284934      0.284923   1.000000   1.000000
   12        0.708147      0.708139   1.000000   1.000000
   13        1.697130      1.697130   1.000000   1.000000
   14        2.222596      2.222594   1.000000   1.000000
   15        2.489738      2.489735   1.000000   1.000000
   16        3.021975      3.021974   1.000000   1.000000
   17        3.469939      3.469933   1.000000   1.000000
   18        3.873894      3.873885   1.000000   1.000000
   19        8.730752      8.730741   0.000000   0.000000
   20       10.389827     10.389806   0.000000   0.000000
   21       10.607094     10.607075   0.000000   0.000000
   22       11.094403     11.094392   0.000000   0.000000
   23       11.239141     11.239133   0.000000   0.000000
   24       12.241172     12.241405   0.000000   0.000000
   25       12.725507     12.725773   0.000000   0.000000
   26       13.232173     13.234842   0.000000   0.000000
 
  0.2722020E-16  0.1250000E+00 -0.6303538E-16  0.3125000E-02
    1      -39.529807    -39.529698   1.000000   1.000000
    2      -39.509296    -39.509199   1.000000   1.000000
    3      -14.140575    -14.140590   1.000000   1.000000
    4      -10.502823    -10.502839   1.000000   1.000000
    5      -10.081902    -10.081915   1.000000   1.000000
    6       -9.547457     -9.547467   1.000000   1.000000
    7       -7.370419     -7.370438   1.000000   1.000000
    8       -2.796410     -2.796424   1.000000   1.000000
    9       -2.686641     -2.686656   1.000000   1.000000
   10       -1.966138     -1.966155   1.000000   1.000000
   11        0.405876      0.405865   1.000000   1.000000
   12        1.251672      1.251675   1.000000   1.000000
   13        1.796834      1.796824   1.000000   1.000000
   14        2.642172      2.642162   1.000000   1.000000
   15        2.784892      2.784886   1.000000   1.000000
   16        3.107803      3.107803   1.000000   1.000000
   17        3.171516      3.171511   1.000000   1.000000
   18        3.348859      3.348861   1.000000   1.000000
   19        8.040477      8.040474  -0.000000  -0.000000
   20        8.681247      8.681239   0.000000   0.000000
   21       11.154092     11.154096   0.000000   0.000000
   22       11.387666     11.387670   0.000000   0.000000
   23       12.044336     12.044370   0.000000   0.000000
   24       12.329836     12.329884   0.000000   0.000000
   25       13.085119     13.095613   0.000000   0.000000
   26       13.766668     14.005315   0.000000   0.000000
 
  0.1250000E+00  0.1250000E+00 -0.8753700E-16  0.3125000E-02
    1      -39.529476    -39.529367   1.000000   1.000000
    2      -39.509626    -39.509529   1.000000   1.000000
    3      -14.062749    -14.062764   1.000000   1.000000
    4      -10.664723    -10.664738   1.000000   1.000000
    5      -10.148409    -10.148423   1.000000   1.000000
    6       -9.710513     -9.710525   1.000000   1.000000
    7       -6.963719     -6.963737   1.000000   1.000000
    8       -2.899845     -2.899859   1.000000   1.000000
    9       -2.486131     -2.486146   1.000000   1.000000
   10       -2.009163     -2.009179   1.000000   1.000000
   11        0.434485      0.434476   1.000000   1.000000
   12        1.322955      1.322952   1.000000   1.000000
   13        1.767212      1.767203   1.000000   1.000000
   14        2.155491      2.155488   1.000000   1.000000
   15        2.738770      2.738763   1.000000   1.000000
   16        3.117197      3.117197   1.000000   1.000000
   17        3.276146      3.276141   1.000000   1.000000
   18        3.457746      3.457748   1.000000   1.000000
   19        8.354986      8.354980  -0.000000  -0.000000
   20        8.971516      8.971505   0.000000   0.000000
   21       10.601869     10.601863   0.000000   0.000000
   22       11.030570     11.030556   0.000000   0.000000
   23       12.088040     12.088036   0.000000   0.000000
   24       12.548451     12.549090   0.000000   0.000000
   25       13.248222     13.272128   0.000000   0.000000
   26       14.030359     14.343572   0.000000   0.000000
 
  0.2500000E+00  0.1250000E+00 -0.1858985E-16  0.3125000E-02
    1      -39.528919    -39.528810   1.000000   1.000000
    2      -39.510189    -39.510093   1.000000   1.000000
    3      -13.917654    -13.917670   1.000000   1.000000
    4      -11.012241    -11.012255   1.000000   1.000000
    5      -10.209354    -10.209368   1.000000   1.000000
    6       -9.827746     -9.827759   1.000000   1.000000
    7       -6.415965     -6.415982   1.000000   1.000000
    8       -2.999157     -2.999171   1.000000   1.000000
    9       -2.300056     -2.300071   1.000000   1.000000
   10       -2.011347     -2.011363   1.000000   1.000000
   11        0.442023      0.442014   1.000000   1.000000
   12        1.055045      1.055034   1.000000   1.000000
   13        1.726457      1.726453   1.000000   1.000000
   14        1.985837      1.985839   1.000000   1.000000
   15        2.602503      2.602497   1.000000   1.000000
   16        3.167148      3.167144   1.000000   1.000000
   17        3.385654      3.385649   1.000000   1.000000
   18        3.633845      3.633843   1.000000   1.000000
   19        8.737371      8.737357   0.000000   0.000000
   20        9.396547      9.396537   0.000000   0.000000
   21       10.508319     10.508311   0.000000   0.000000
   22       10.669455     10.669437   0.000000   0.000000
   23       11.827313     11.827246   0.000000   0.000000
   24       12.665286     12.665325   0.000000   0.000000
   25       13.274657     13.275888   0.000000   0.000000
   26       13.875815     13.861692   0.000000   0.000000
 
  0.3750000E+00  0.1250000E+00 -0.1087847E-15  0.3125000E-02
    1      -39.528423    -39.528314   1.000000   1.000000
    2      -39.510647    -39.510552   1.000000   1.000000
    3      -13.778323    -13.778340   1.000000   1.000000
    4      -11.319885    -11.319898   1.000000   1.000000
    5      -10.234784    -10.234798   1.000000   1.000000
    6       -9.879237     -9.879251   1.000000   1.000000
    7       -6.015884     -6.015900   1.000000   1.000000
    8       -3.070589     -3.070604   1.000000   1.000000
    9       -2.147774     -2.147789   1.000000   1.000000
   10       -2.044431     -2.044447   1.000000   1.000000
   11        0.358530      0.358520   1.000000   1.000000
   12        0.744139      0.744132   1.000000   1.000000
   13        1.608958      1.608956   1.000000   1.000000
   14        2.175216      2.175213   1.000000   1.000000
   15        2.551607      2.551603   1.000000   1.000000
   16        3.171546      3.171543   1.000000   1.000000
   17        3.477888      3.477882   1.000000   1.000000
   18        3.782319      3.782312   1.000000   1.000000
   19        8.731071      8.731059   0.000000   0.000000
   20       10.086196     10.086179   0.000000   0.000000
   21       10.426718     10.426710   0.000000   0.000000
   22       10.731059     10.731049   0.000000   0.000000
   23       11.811502     11.811480   0.000000   0.000000
   24       12.538763     12.539410   0.000000   0.000000
   25       12.845492     12.845549   0.000000   0.000000
   26       13.428417     13.411769   0.000000   0.000000
 
  0.5000000E+00  0.1250000E+00 -0.6759308E-16  0.3125000E-02
    1      -39.528349    -39.528239   1.000000   1.000000
    2      -39.510722    -39.510627   1.000000   1.000000
    3      -13.751873    -13.751890   1.000000   1.000000
    4      -11.372921    -11.372933   1.000000   1.000000
    5      -10.227406    -10.227421   1.000000   1.000000
    6       -9.891187     -9.891200   1.000000   1.000000
    7       -5.958106     -5.958122   1.000000   1.000000
    8       -3.112531     -3.112546   1.000000   1.000000
    9       -2.222867     -2.222883   1.000000   1.000000
   10       -1.938666     -1.938682   1.000000   1.000000
   11        0.254097      0.254088   1.000000   1.000000
   12        0.705790      0.705782   1.000000   1.000000
   13        1.647778      1.647776   1.000000   1.000000
   14        2.265632      2.265627   1.000000   1.000000
   15        2.616165      2.616161   1.000000   1.000000
   16        3.120363      3.120361   1.000000   1.000000
   17        3.474443      3.474437   1.000000   1.000000
   18        3.805685      3.805677   1.000000   1.000000
   19        8.775481      8.775468   0.000000   0.000000
   20       10.244920     10.244900   0.000000   0.000000
   21       10.678587     10.678571   0.000000   0.000000
   22       10.767402     10.767381   0.000000   0.000000
   23       11.523684     11.523674   0.000000   0.000000
   24       12.418259     12.418066   0.000000   0.000000
   25       12.883454     12.884097   0.000000   0.000000
   26       13.166895     13.165384   0.000000   0.000000
 
 -0.3750000E+00  0.1250000E+00  0.1046946E-16  0.3125000E-02
    1      -39.528725    -39.528616   1.000000   1.000000
    2      -39.510353    -39.510257   1.000000   1.000000
    3      -13.863435    -13.863451   1.000000   1.000000
    4      -11.135336    -11.135349   1.000000   1.000000
    5      -10.187910    -10.187925   1.000000   1.000000
    6       -9.865175     -9.865189   1.000000   1.000000
    7       -6.277297     -6.277313   1.000000   1.000000
    8       -3.109858     -3.109872   1.000000   1.000000
    9       -2.387372     -2.387387   1.000000   1.000000
   10       -1.821494     -1.821510   1.000000   1.000000
   11        0.254169      0.254161   1.000000   1.000000
   12        0.883913      0.883903   1.000000   1.000000
   13        1.835949      1.835945   1.000000   1.000000
   14        2.152707      2.152705   1.000000   1.000000
   15        2.751114      2.751111   1.000000   1.000000
   16        3.075397      3.075392   1.000000   1.000000
   17        3.379302      3.379301   1.000000   1.000000
   18        3.687560      3.687555   1.000000   1.000000
   19        9.024742      9.024726   0.000000   0.000000
   20        9.592686      9.592673   0.000000   0.000000
   21       10.532638     10.532623   0.000000   0.000000
   22       11.016814     11.016797   0.000000   0.000000
   23       11.456973     11.456966   0.000000   0.000000
   24       12.550586     12.550520   0.000000   0.000000
   25       13.062427     13.057944   0.000000   0.000000
   26       13.405369     13.425610   0.000000   0.000000
 
 -0.2500000E+00  0.1250000E+00 -0.1386283E-17  0.3125000E-02
    1      -39.529307    -39.529198   1.000000   1.000000
    2      -39.509782    -39.509685   1.000000   1.000000
    3      -14.017402    -14.017417   1.000000   1.000000
    4      -10.780024    -10.780038   1.000000   1.000000
    5      -10.120780    -10.120795   1.000000   1.000000
    6       -9.776553     -9.776566   1.000000   1.000000
    7       -6.812791     -6.812808   1.000000   1.000000
    8       -3.037548     -3.037562   1.000000   1.000000
    9       -2.536382     -2.536397   1.000000   1.000000
   10       -1.810956     -1.810974   1.000000   1.000000
   11        0.263273      0.263264   1.000000   1.000000
   12        1.220608      1.220599   1.000000   1.000000
   13        1.927264      1.927254   1.000000   1.000000
   14        2.101845      2.101847   1.000000   1.000000
   15        2.898789      2.898784   1.000000   1.000000
   16        3.059770      3.059761   1.000000   1.000000
   17        3.297339      3.297342   1.000000   1.000000
   18        3.481964      3.481964   1.000000   1.000000
   19        8.624856      8.624850   0.000000   0.000000
   20        9.337357      9.337337   0.000000   0.000000
   21       10.394934     10.394923   0.000000   0.000000
   22       11.319641     11.319625   0.000000   0.000000
   23       11.715485     11.715475   0.000000   0.000000
   24       12.506270     12.506192   0.000000   0.000000
   25       13.164472     13.164402   0.000000   0.000000
   26       13.538362     13.536744   0.000000   0.000000
 
 -0.1250000E+00  0.1250000E+00 -0.5609157E-16  0.3125000E-02
    1      -39.529739    -39.529630   1.000000   1.000000
    2      -39.509350    -39.509253   1.000000   1.000000
    3      -14.123601    -14.123616   1.000000   1.000000
    4      -10.543688    -10.543703   1.000000   1.000000
    5      -10.069742    -10.069756   1.000000   1.000000
    6       -9.595408     -9.595419   1.000000   1.000000
    7       -7.295589     -7.295608   1.000000   1.000000
    8       -2.900484     -2.900498   1.000000   1.000000
    9       -2.658291     -2.658306   1.000000   1.000000
   10       -1.882516     -1.882533   1.000000   1.000000
   11        0.332782      0.332772   1.000000   1.000000
   12        1.249559      1.249559   1.000000   1.000000
   13        1.865546      1.865535   1.000000   1.000000
   14        2.473910      2.473905   1.000000   1.000000
   15        2.936891      2.936883   1.000000   1.000000
   16        3.085596      3.085587   1.000000   1.000000
   17        3.196928      3.196931   1.000000   1.000000
   18        3.345116      3.345120   1.000000   1.000000
   19        8.126426      8.126422   0.000000   0.000000
   20        8.866047      8.866036   0.000000   0.000000
   21       10.958294     10.958279   0.000000   0.000000
   22       11.623169     11.623147   0.000000   0.000000
   23       11.981295     11.981269   0.000000   0.000000
   24       12.190017     12.189985   0.000000   0.000000
   25       13.125617     13.125565   0.000000   0.000000
   26       13.526434     13.525706   0.000000   0.000000
 
  0.5444041E-16  0.2500000E+00 -0.1260708E-15  0.3125000E-02
    1      -39.528650    -39.528540   1.000000   1.000000
    2      -39.510375    -39.510279   1.000000   1.000000
    3      -13.916890    -13.916906   1.000000   1.000000
    4      -11.137228    -11.137244   1.000000   1.000000
    5      -10.117645    -10.117659   1.000000   1.000000
    6       -9.601970     -9.601980   1.000000   1.000000
    7       -6.733072     -6.733090   1.000000   1.000000
    8       -2.967965     -2.967979   1.000000   1.000000
    9       -2.596476     -2.596490   1.000000   1.000000
   10       -1.803683     -1.803699   1.000000   1.000000
   11        0.297514      0.297504   1.000000   1.000000
   12        1.468628      1.468622   1.000000   1.000000
   13        1.802003      1.801996   1.000000   1.000000
   14        2.038926      2.038925   1.000000   1.000000
   15        2.617083      2.617078   1.000000   1.000000
   16        2.996269      2.996261   1.000000   1.000000
   17        3.408088      3.408089   1.000000   1.000000
   18        3.634828      3.634825   1.000000   1.000000
   19        8.603172      8.603158   0.000000   0.000000
   20        9.096502      9.096494   0.000000   0.000000
   21       10.672253     10.672247   0.000000   0.000000
   22       11.093724     11.093709   0.000000   0.000000
   23       11.730877     11.730869   0.000000   0.000000
   24       12.680950     12.680945   0.000000   0.000000
   25       13.309302     13.309668   0.000000   0.000000
   26       13.831334     13.876354   0.000000   0.000000
 
  0.1250000E+00  0.2500000E+00 -0.8241536E-16  0.3125000E-02
    1      -39.528284    -39.528174   1.000000   1.000000
    2      -39.510754    -39.510658   1.000000   1.000000
    3      -13.815401    -13.815418   1.000000   1.000000
    4      -11.319468    -11.319484   1.000000   1.000000
    5      -10.153256    -10.153269   1.000000   1.000000
    6       -9.733141     -9.733152   1.000000   1.000000
    7       -6.357805     -6.357823   1.000000   1.000000
    8       -3.096726     -3.096741   1.000000   1.000000
    9       -2.370677     -2.370692   1.000000   1.000000
   10       -1.868942     -1.868958   1.000000   1.000000
   11        0.407148      0.407138   1.000000   1.000000
   12        1.221685      1.221677   1.000000   1.000000
   13        1.707987      1.707979   1.000000   1.000000
   14        1.847360      1.847362   1.000000   1.000000
   15        2.648477      2.648471   1.000000   1.000000
   16        3.045865      3.045860   1.000000   1.000000
   17        3.514447      3.514444   1.000000   1.000000
   18        3.724926      3.724922   1.000000   1.000000
   19        8.663831      8.663815   0.000000   0.000000
   20        9.371327      9.371316   0.000000   0.000000
   21       10.471266     10.471264   0.000000   0.000000
   22       10.890284     10.890277   0.000000   0.000000
   23       11.716658     11.716722   0.000000   0.000000
   24       12.762945     12.763818   0.000000   0.000000
   25       13.293414     13.321019   0.000000   0.000000
   26       14.404091     14.651637   0.000000   0.000000
 
  0.2500000E+00  0.2500000E+00 -0.1750740E-15  0.3125000E-02
    1      -39.527788    -39.527677   1.000000   1.000000
    2      -39.511267    -39.511172   1.000000   1.000000
    3      -13.658349    -13.658366   1.000000   1.000000
    4      -11.580953    -11.580968   1.000000   1.000000
    5      -10.200482    -10.200496   1.000000   1.000000
    6       -9.849221     -9.849233   1.000000   1.000000
    7       -5.876825     -5.876841   1.000000   1.000000
    8       -3.335069     -3.335084   1.000000   1.000000
    9       -2.153520     -2.153534   1.000000   1.000000
   10       -1.884295     -1.884310   1.000000   1.000000
   11        0.448361      0.448352   1.000000   1.000000
   12        0.815345      0.815341   1.000000   1.000000
   13        1.526605      1.526599   1.000000   1.000000
   14        2.039255      2.039253   1.000000   1.000000
   15        2.748252      2.748244   1.000000   1.000000
   16        3.092370      3.092366   1.000000   1.000000
   17        3.612310      3.612305   1.000000   1.000000
   18        3.751427      3.751421   1.000000   1.000000
   19        8.673768      8.673753   0.000000   0.000000
   20        9.745360      9.745350   0.000000   0.000000
   21       10.467260     10.467259   0.000000   0.000000
   22       10.801859     10.801859   0.000000   0.000000
   23       11.859628     11.859642   0.000000   0.000000
   24       12.533079     12.532968   0.000000   0.000000
   25       13.225392     13.229899   0.000000   0.000000
   26       13.806528     14.149659   0.000000   0.000000
 
  0.3750000E+00  0.2500000E+00 -0.1893936E-15  0.3125000E-02
    1      -39.527450    -39.527340   1.000000   1.000000
    2      -39.511598    -39.511503   1.000000   1.000000
    3      -13.533348    -13.533366   1.000000   1.000000
    4      -11.772434    -11.772448   1.000000   1.000000
    5      -10.223988    -10.224002   1.000000   1.000000
    6       -9.906464     -9.906476   1.000000   1.000000
    7       -5.539228     -5.539244   1.000000   1.000000
    8       -3.590457     -3.590473   1.000000   1.000000
    9       -2.014670     -2.014686   1.000000   1.000000
   10       -1.880423     -1.880438   1.000000   1.000000
   11        0.307450      0.307444   1.000000   1.000000
   12        0.777157      0.777150   1.000000   1.000000
   13        1.382758      1.382754   1.000000   1.000000
   14        2.182148      2.182142   1.000000   1.000000
   15        2.852444      2.852439   1.000000   1.000000
   16        3.240743      3.240740   1.000000   1.000000
   17        3.595080      3.595075   1.000000   1.000000
   18        3.728931      3.728923   1.000000   1.000000
   19        8.712422      8.712408   0.000000   0.000000
   20       10.111684     10.111672   0.000000   0.000000
   21       10.506531     10.506510   0.000000   0.000000
   22       10.751062     10.751031   0.000000   0.000000
   23       11.892745     11.891850   0.000000   0.000000
   24       12.671331     12.664637   0.000000   0.000000
   25       12.935827     12.936396   0.000000   0.000000
   26       13.802228     13.362750   0.000000   0.000000
 
  0.5000000E+00  0.2500000E+00 -0.3717971E-16  0.3125000E-02
    1      -39.527494    -39.527383   1.000000   1.000000
    2      -39.511532    -39.511437   1.000000   1.000000
    3      -13.550703    -13.550720   1.000000   1.000000
    4      -11.738722    -11.738737   1.000000   1.000000
    5      -10.208922    -10.208936   1.000000   1.000000
    6       -9.906595     -9.906607   1.000000   1.000000
    7       -5.589939     -5.589955   1.000000   1.000000
    8       -3.695060     -3.695076   1.000000   1.000000
    9       -2.051370     -2.051386   1.000000   1.000000
   10       -1.751401     -1.751416   1.000000   1.000000
   11        0.198798      0.198792   1.000000   1.000000
   12        0.755157      0.755150   1.000000   1.000000
   13        1.576965      1.576961   1.000000   1.000000
   14        2.210996      2.210987   1.000000   1.000000
   15        2.874720      2.874717   1.000000   1.000000
   16        3.309394      3.309388   1.000000   1.000000
   17        3.498839      3.498836   1.000000   1.000000
   18        3.697080      3.697073   1.000000   1.000000
   19        8.863426      8.863411   0.000000   0.000000
   20       10.197857     10.197840   0.000000   0.000000
   21       10.590595     10.590575   0.000000   0.000000
   22       10.833592     10.833544   0.000000   0.000000
   23       11.631357     11.631362   0.000000   0.000000
   24       12.510422     12.510291   0.000000   0.000000
   25       12.988338     12.972211   0.000000   0.000000
   26       13.073339     13.065907   0.000000   0.000000
 
 -0.3750000E+00  0.2500000E+00 -0.4238389E-16  0.3125000E-02
    1      -39.527903    -39.527793   1.000000   1.000000
    2      -39.511128    -39.511033   1.000000   1.000000
    3      -13.692340    -13.692357   1.000000   1.000000
    4      -11.504857    -11.504872   1.000000   1.000000
    5      -10.168123    -10.168137   1.000000   1.000000
    6       -9.843659     -9.843671   1.000000   1.000000
    7       -5.998140     -5.998156   1.000000   1.000000
    8       -3.594957     -3.594971   1.000000   1.000000
    9       -2.195343     -2.195358   1.000000   1.000000
   10       -1.616416     -1.616433   1.000000   1.000000
   11        0.070672      0.070665   1.000000   1.000000
   12        1.020939      1.020930   1.000000   1.000000
   13        1.840984      1.840980   1.000000   1.000000
   14        2.156052      2.156043   1.000000   1.000000
   15        2.824859      2.824856   1.000000   1.000000
   16        3.091142      3.091137   1.000000   1.000000
   17        3.527998      3.527999   1.000000   1.000000
   18        3.632650      3.632646   1.000000   1.000000
   19        9.086803      9.086786   0.000000   0.000000
   20        9.742990      9.742982   0.000000   0.000000
   21       10.718224     10.718280   0.000000   0.000000
   22       11.036262     11.036288   0.000000   0.000000
   23       11.668130     11.668163   0.000000   0.000000
   24       12.031791     12.031734   0.000000   0.000000
   25       12.971820     12.996626   0.000000   0.000000