 running on   12 total cores
 distrk:  each k-point on   12 cores,    1 groups
 distr:  one band on    6 cores,    2 groups
 using from now: INCAR     
 vasp.6.1.2 22Jul20 (build Mar 20 2021 11:25:07) complex                        
  
 POSCAR found type information on POSCAR LiP N 
 POSCAR found :  3 types and       8 ions
 scaLAPACK will be used
 -----------------------------------------------------------------------------
|                                                                             |
|               ----> ADVICE to this user running VASP <----                  |
|                                                                             |
|     You have a (more or less) 'small supercell' and for smaller cells       |
|     it is recommended to use the reciprocal-space projection scheme!        |
|     The real-space optimization is not efficient for small cells and it     |
|     is also less accurate ...                                               |
|     Therefore, set LREAL=.FALSE. in the INCAR file.                         |
|                                                                             |
 -----------------------------------------------------------------------------

 LDA part: xc-table for Pade appr. of Perdew
 generate k-points for:    8    8   10
 POSCAR, INCAR and KPOINTS ok, starting setup
 FFT: planning ...
 WAVECAR not read
 entering main loop
       N       E                     dE             d eps       ncg     rms          rms(c)
DAV:   1     0.206977386708E+03    0.20698E+03   -0.17325E+04 33696   0.136E+03
DAV:   2    -0.392720334426E+02   -0.24625E+03   -0.23774E+03 42040   0.320E+02
DAV:   3    -0.579607567866E+02   -0.18689E+02   -0.18595E+02 55488   0.811E+01
DAV:   4    -0.590458823604E+02   -0.10851E+01   -0.10816E+01 50968   0.163E+01
DAV:   5    -0.591124953169E+02   -0.66613E-01   -0.66608E-01 50242   0.296E+00    0.252E+01
RMM:   6    -0.531470304924E+02    0.59655E+01   -0.20509E+01 36832   0.215E+01    0.108E+01
RMM:   7    -0.535137324992E+02   -0.36670E+00   -0.48287E+00 50534   0.124E+01    0.554E+00
RMM:   8    -0.536054750394E+02   -0.91743E-01   -0.68998E-01 55864   0.531E+00    0.310E+00
RMM:   9    -0.536098338962E+02   -0.43589E-02   -0.23501E-01 52336   0.334E+00    0.981E-01
WARNING in EDDRMM: call to ZHEGV failed, returncode =   8  4      9
RMM:  10    -0.536194689947E+02   -0.96351E-02   -0.10787E-01 59874   0.198E+00    0.381E-01
RMM:  11    -0.536223498238E+02   -0.28808E-02   -0.57757E-02 61722   0.114E+00    0.214E-01
RMM:  12    -0.536253981928E+02   -0.30484E-02   -0.25452E-02 65304   0.732E-01    0.167E-01
RMM:  13    -0.536265232577E+02   -0.11251E-02   -0.97484E-03 64223   0.446E-01    0.548E-02
RMM:  14    -0.536269668546E+02   -0.44360E-03   -0.38232E-03 64482   0.301E-01    0.409E-02
RMM:  15    -0.536271693396E+02   -0.20249E-03   -0.17583E-03 63932   0.202E-01    0.203E-02
RMM:  16    -0.536272484204E+02   -0.79081E-04   -0.75208E-04 62995   0.133E-01    0.994E-03
RMM:  17    -0.536272906178E+02   -0.42197E-04   -0.37058E-04 61614   0.933E-02    0.651E-03
RMM:  18    -0.536273068954E+02   -0.16278E-04   -0.14863E-04 55159   0.656E-02    0.280E-03
RMM:  19    -0.536273118311E+02   -0.49357E-05   -0.46294E-05 42900   0.504E-02
   1 F= -.53627312E+02 E0= -.53627312E+02  d E =0.000000E+00  mag=     0.0000
