   96   96    1    2
  0.8658485E+01  0.9410218E-09  0.9410217E-09  0.9410218E-09  0.5000000E-15
  1.000000000000000E-004
  CAR 
 unknown system                          
    368      8    264
 
  0.0000000E+00  0.0000000E+00  0.0000000E+00  0.3703704E-01
    1      -40.857989    -40.857994   1.000000   1.000000
    2      -40.856473    -40.856479   1.000000   1.000000
    3      -40.852670    -40.852675   1.000000   1.000000
    4      -40.851465    -40.851470   1.000000   1.000000
    5      -40.828614    -40.828622   1.000000   1.000000
    6      -40.827938    -40.827945   1.000000   1.000000
    7      -40.822815    -40.822823   1.000000   1.000000
    8      -40.822338    -40.822345   1.000000   1.000000
    9      -40.656603    -40.656608   1.000000   1.000000
   10      -40.656433    -40.656439   1.000000   1.000000
   11      -40.644687    -40.644693   1.000000   1.000000
   12      -40.644294    -40.644299   1.000000   1.000000
   13      -40.590117    -40.590123   1.000000   1.000000
   14      -40.589714    -40.589721   1.000000   1.000000
   15      -40.556822    -40.556827   1.000000   1.000000
   16      -40.555862    -40.555867   1.000000   1.000000
   17      -40.546322    -40.546327   1.000000   1.000000
   18      -40.545770    -40.545774   1.000000   1.000000
   19      -40.538961    -40.538965   1.000000   1.000000
   20      -40.532698    -40.532702   1.000000   1.000000
   21      -40.525379    -40.525384   1.000000   1.000000
   22      -40.522146    -40.522150   1.000000   1.000000
   23      -40.517911    -40.517916   1.000000   1.000000
   24      -40.516285    -40.516290   1.000000   1.000000
   25      -40.505737    -40.505742   1.000000   1.000000
   26      -40.500756    -40.500761   1.000000   1.000000
   27      -40.490849    -40.490851   1.000000   1.000000
   28      -40.490258    -40.490260   1.000000   1.000000
   29      -40.480384    -40.480389   1.000000   1.000000
   30      -40.479670    -40.479676   1.000000   1.000000
   31      -40.470988    -40.470992   1.000000   1.000000
   32      -40.466392    -40.466396   1.000000   1.000000
   33      -40.459577    -40.459584   1.000000   1.000000
   34      -40.458833    -40.458839   1.000000   1.000000
   35      -40.431757    -40.431763   1.000000   1.000000
   36      -40.429957    -40.429963   1.000000   1.000000
   37      -40.429384    -40.429390   1.000000   1.000000
   38      -40.429064    -40.429070   1.000000   1.000000
   39      -40.394802    -40.394806   1.000000   1.000000
   40      -40.394799    -40.394803   1.000000   1.000000
   41      -40.369060    -40.369064   1.000000   1.000000
   42      -40.368933    -40.368936   1.000000   1.000000
   43      -40.347469    -40.347473   1.000000   1.000000
   44      -40.347015    -40.347019   1.000000   1.000000
   45      -40.282006    -40.282010   1.000000   1.000000
   46      -40.281176    -40.281180   1.000000   1.000000
   47      -40.281013    -40.281017   1.000000   1.000000
   48      -40.277184    -40.277188   1.000000   1.000000
   49      -40.275988    -40.275993   1.000000   1.000000
   50      -40.275911    -40.275915   1.000000   1.000000
   51      -39.899368    -39.899374   1.000000   1.000000
   52      -39.899187    -39.899192   1.000000   1.000000
   53      -39.888521    -39.888527   1.000000   1.000000
   54      -39.883005    -39.883011   1.000000   1.000000
   55      -39.879840    -39.879847   1.000000   1.000000
   56      -39.879826    -39.879833   1.000000   1.000000
   57      -12.837224    -12.837237   1.000000   1.000000
   58      -12.832429    -12.832442   1.000000   1.000000
   59      -12.705590    -12.705602   1.000000   1.000000
   60      -12.700984    -12.700997   1.000000   1.000000
   61      -12.699084    -12.699095   1.000000   1.000000
   62      -12.697338    -12.697350   1.000000   1.000000
   63      -12.686926    -12.686938   1.000000   1.000000
   64      -12.686130    -12.686141   1.000000   1.000000
   65       -9.641412     -9.641417   1.000000   1.000000
   66       -9.634187     -9.634191   1.000000   1.000000
   67       -9.621033     -9.621038   1.000000   1.000000
   68       -9.599942     -9.599947   1.000000   1.000000
   69       -9.554478     -9.554480   1.000000   1.000000
   70       -9.540820     -9.540823   1.000000   1.000000
   71       -9.534659     -9.534661   1.000000   1.000000
   72       -9.530363     -9.530366   1.000000   1.000000
   73       -9.525196     -9.525199   1.000000   1.000000
   74       -9.503811     -9.503814   1.000000   1.000000
   75       -9.461798     -9.461800   1.000000   1.000000
   76       -9.447423     -9.447426   1.000000   1.000000
   77       -9.446499     -9.446502   1.000000   1.000000
   78       -9.443453     -9.443456   1.000000   1.000000
   79       -9.410684     -9.410686   1.000000   1.000000
   80       -9.393266     -9.393269   1.000000   1.000000
   81       -9.359207     -9.359211   1.000000   1.000000
   82       -9.351865     -9.351868   1.000000   1.000000
   83       -9.329304     -9.329308   1.000000   1.000000
   84       -9.325749     -9.325752   1.000000   1.000000
   85       -9.301070     -9.301074   1.000000   1.000000
   86       -9.296364     -9.296367   1.000000   1.000000
   87       -9.276158     -9.276161   1.000000   1.000000
   88       -9.260566     -9.260569   1.000000   1.000000
   89       -3.001008     -3.001018   1.000000   1.000000
   90       -2.719584     -2.719593   1.000000   1.000000
   91       -2.706638     -2.706647   1.000000   1.000000
   92       -2.677340     -2.677350   1.000000   1.000000
   93       -2.672593     -2.672604   1.000000   1.000000
   94       -2.597224     -2.597236   1.000000   1.000000
   95       -2.597204     -2.597217   1.000000   1.000000
   96       -2.555990     -2.556002   1.000000   1.000000
   97       -1.159388     -1.159390   1.000000   1.000000
   98       -1.149416     -1.149418   1.000000   1.000000
   99       -1.128146     -1.128147   1.000000   1.000000
  100       -1.111534     -1.111536   1.000000   1.000000
  101       -1.092161     -1.092164   1.000000   1.000000
  102       -1.086133     -1.086135   1.000000   1.000000
  103       -0.932670     -0.932672   1.000000   1.000000
  104       -0.845857     -0.845862   1.000000   1.000000
  105       -0.815281     -0.815285   1.000000   1.000000
  106       -0.805343     -0.805346   1.000000   1.000000
  107       -0.801206     -0.801211   1.000000   1.000000
  108       -0.793386     -0.793390   1.000000   1.000000
  109       -0.755083     -0.755087   1.000000   1.000000
  110       -0.736121     -0.736126   1.000000   1.000000
  111       -0.659326     -0.659332   1.000000   1.000000
  112       -0.583680     -0.583685   1.000000   1.000000
  113       -0.462040     -0.462048   1.000000   1.000000
  114       -0.424519     -0.424526   1.000000   1.000000
  115       -0.422777     -0.422785   1.000000   1.000000
  116       -0.394819     -0.394826   1.000000   1.000000
  117       -0.389370     -0.389378   1.000000   1.000000
  118       -0.312698     -0.312707   1.000000   1.000000
  119       -0.285796     -0.285804   1.000000   1.000000
  120       -0.282785     -0.282793   1.000000   1.000000
  121        1.094000      1.094004   1.000000   1.000000
  122        1.098262      1.098265   1.000000   1.000000
  123        1.312117      1.312120   1.000000   1.000000
  124        1.313072      1.313076   1.000000   1.000000
  125        1.325152      1.325156   1.000000   1.000000
  126        1.348152      1.348154   1.000000   1.000000
  127        1.350337      1.350340   1.000000   1.000000
  128        1.402248      1.402248   1.000000   1.000000
  129        1.417577      1.417579   1.000000   1.000000
  130        1.445671      1.445670   1.000000   1.000000
  131        1.468035      1.468044   1.000000   1.000000
  132        1.472768      1.472777   1.000000   1.000000
  133        1.492032      1.492039   1.000000   1.000000
  134        1.651725      1.651727   1.000000   1.000000
  135        1.704309      1.704313   1.000000   1.000000
  136        1.730780      1.730783   1.000000   1.000000
  137        1.734971      1.734974   1.000000   1.000000
  138        1.750165      1.750164   1.000000   1.000000
  139        1.765066      1.765065   1.000000   1.000000
  140        1.882073      1.882075   1.000000   1.000000
  141        1.901429      1.901428   1.000000   1.000000
  142        1.921378      1.921379   1.000000   1.000000
  143        1.944394      1.944394   1.000000   1.000000
  144        1.961195      1.961196   1.000000   1.000000
  145        1.985995      1.985997   1.000000   1.000000
  146        1.991838      1.991840   1.000000   1.000000
  147        1.997953      1.997955   1.000000   1.000000
  148        2.014983      2.014985   1.000000   1.000000
  149        2.044255      2.044256   1.000000   1.000000
  150        2.080862      2.080860   1.000000   1.000000
  151        2.092331      2.092330   1.000000   1.000000
  152        2.275967      2.275969   1.000000   1.000000
  153        2.325158      2.325160   1.000000   1.000000
  154        2.358542      2.358543   1.000000   1.000000
  155        2.376126      2.376129   1.000000   1.000000
  156        2.404081      2.404082   1.000000   1.000000
  157        2.444462      2.444464   1.000000   1.000000
  158        2.536137      2.536138   1.000000   1.000000
  159        2.539449      2.539451   1.000000   1.000000
  160        2.563691      2.563693   1.000000   1.000000
  161        2.643857      2.643857   1.000000   1.000000
  162        2.646571      2.646573   1.000000   1.000000
  163        2.668391      2.668392   1.000000   1.000000
  164        2.696432      2.696435   1.000000   1.000000
  165        2.877038      2.877038   1.000000   1.000000
  166        2.926644      2.926645   1.000000   1.000000
  167        2.931065      2.931065   1.000000   1.000000
  168        2.937913      2.937913   1.000000   1.000000
  169        2.954121      2.954122   1.000000   1.000000
  170        3.059621      3.059620   1.000000   1.000000
  171        3.172192      3.172192   1.000000   1.000000
  172        3.179808      3.179807   1.000000   1.000000
  173        3.209665      3.209664   1.000000   1.000000
  174        3.313647      3.313646   1.000000   1.000000
  175        3.354017      3.354017   1.000000   1.000000
  176        3.357551      3.357549   1.000000   1.000000
  177        3.367261      3.367260   1.000000   1.000000
  178        3.417198      3.417197   1.000000   1.000000
  179        3.466189      3.466187   1.000000   1.000000
  180        3.468913      3.468912   1.000000   1.000000
  181        3.531806      3.531805   1.000000   1.000000
  182        3.600916      3.600913   1.000000   1.000000
  183        3.635473      3.635472   1.000000   1.000000
  184        3.659984      3.659983   1.000000   1.000000
  185        7.077046      7.077104   0.000000   0.000000
  186        7.112372      7.112418   0.000000   0.000000
  187        7.112605      7.112646   0.000000   0.000000
  188        7.717015      7.717063   0.000000   0.000000
  189        7.961929      7.961990   0.000000   0.000000
  190        8.347911      8.347950   0.000000   0.000000
  191        8.361295      8.361340   0.000000   0.000000
  192        8.425167      8.425204   0.000000   0.000000
  193        8.442482      8.442556   0.000000   0.000000
  194        8.491059      8.491111   0.000000   0.000000
  195        8.885172      8.885205   0.000000   0.000000
  196        8.905663      8.905775   0.000000   0.000000
  197        9.038355      9.038389   0.000000   0.000000
  198        9.149974      9.150013   0.000000   0.000000
  199        9.291873      9.291917   0.000000   0.000000
  200        9.295338      9.295403   0.000000   0.000000
  201        9.334641      9.334693   0.000000   0.000000
  202        9.375919      9.375965   0.000000   0.000000
  203        9.389293      9.389349   0.000000   0.000000
  204        9.398050      9.398102   0.000000   0.000000
  205        9.717508      9.717539   0.000000   0.000000
  206        9.717639      9.717676   0.000000   0.000000
  207        9.809339      9.809377   0.000000   0.000000
  208        9.812073      9.812124   0.000000   0.000000
  209        9.898569      9.898810   0.000000   0.000000
  210        9.933290      9.933342   0.000000   0.000000
  211        9.959389      9.959437   0.000000   0.000000
  212       10.090685     10.090721   0.000000   0.000000
  213       10.182840     10.182876   0.000000   0.000000
  214       10.228397     10.228468   0.000000   0.000000
  215       10.278581     10.278611   0.000000   0.000000
  216       10.315839     10.315869   0.000000   0.000000
  217       10.966009     10.966087   0.000000   0.000000
  218       11.009297     11.009290   0.000000   0.000000
  219       11.135153     11.135264   0.000000   0.000000
  220       11.152701     11.152880   0.000000   0.000000
  221       11.237036     11.237180   0.000000   0.000000
  222       11.262777     11.262796   0.000000   0.000000
  223       11.289888     11.290013   0.000000   0.000000
  224       11.310153     11.310374   0.000000   0.000000
  225       11.378805     11.379039   0.000000   0.000000
  226       11.568612     11.568666   0.000000   0.000000
  227       11.581126     11.581024   0.000000   0.000000
  228       11.602227     11.602220   0.000000   0.000000
  229       11.618041     11.618069   0.000000   0.000000
  230       11.656073     11.656161   0.000000   0.000000
  231       11.668805     11.668855   0.000000   0.000000
  232       11.679271     11.678850   0.000000   0.000000
  233       11.768241     11.767879   0.000000   0.000000
  234       11.832040     11.832111   0.000000   0.000000
  235       11.908061     11.908617   0.000000   0.000000
  236       11.925397     11.925058   0.000000   0.000000
  237       12.027729     12.027754   0.000000   0.000000
  238       12.208059     12.207608   0.000000   0.000000
  239       12.243203     12.243250   0.000000   0.000000
  240       12.279956     12.282098   0.000000   0.000000
  241       12.341898     12.338481   0.000000   0.000000
  242       12.558991     12.562330   0.000000   0.000000
  243       12.592997     12.594603   0.000000   0.000000
  244       12.788222     12.784509   0.000000   0.000000
  245       12.850371     12.847752   0.000000   0.000000
  246       12.892119     12.887786   0.000000   0.000000
  247       12.908683     12.913881   0.000000   0.000000
  248       12.986949     12.974747   0.000000   0.000000
  249       12.994306     12.990078   0.000000   0.000000
  250       13.043794     13.056107   0.000000   0.000000
  251       13.094747     13.084787   0.000000   0.000000
  252       13.108912     13.113711   0.000000   0.000000
  253       13.144512     13.141310   0.000000   0.000000
  254       13.148876     13.165033   0.000000   0.000000
  255       13.228266     13.211268   0.000000   0.000000
  256       13.244741     13.324439   0.000000   0.000000
  257       13.327587     13.380789   0.000000   0.000000
  258       13.407689     13.402638   0.000000   0.000000
  259       13.440017     13.462450   0.000000   0.000000
  260       13.550672     13.516231   0.000000   0.000000
  261       13.623505     13.635600   0.000000   0.000000
  262       13.760932     13.762720   0.000000   0.000000
  263       13.881839     13.873975   0.000000   0.000000
  264       13.903513     13.969381   0.000000   0.000000
 
  0.3333333E+00 -0.7325019E-18  0.0000000E+00  0.1481481E+00
    1      -40.857395    -40.857400   1.000000   1.000000
    2      -40.856624    -40.856629   1.000000   1.000000
    3      -40.852198    -40.852204   1.000000   1.000000
    4      -40.851563    -40.851568   1.000000   1.000000
    5      -40.828744    -40.828752   1.000000   1.000000
    6      -40.828385    -40.828392   1.000000   1.000000
    7      -40.822915    -40.822922   1.000000   1.000000
    8      -40.822691    -40.822698   1.000000   1.000000
    9      -40.656350    -40.656355   1.000000   1.000000
   10      -40.654471    -40.654477   1.000000   1.000000
   11      -40.646988    -40.646993   1.000000   1.000000
   12      -40.644351    -40.644356   1.000000   1.000000
   13      -40.589892    -40.589899   1.000000   1.000000
   14      -40.589416    -40.589423   1.000000   1.000000
   15      -40.556269    -40.556274   1.000000   1.000000
   16      -40.554526    -40.554531   1.000000   1.000000
   17      -40.548630    -40.548635   1.000000   1.000000
   18      -40.546075    -40.546080   1.000000   1.000000
   19      -40.537242    -40.537246   1.000000   1.000000
   20      -40.533826    -40.533830   1.000000   1.000000
   21      -40.523668    -40.523672   1.000000   1.000000
   22      -40.521648    -40.521652   1.000000   1.000000
   23      -40.518954    -40.518959   1.000000   1.000000
   24      -40.516558    -40.516563   1.000000   1.000000
   25      -40.507042    -40.507048   1.000000   1.000000
   26      -40.502498    -40.502503   1.000000   1.000000
   27      -40.490910    -40.490912   1.000000   1.000000
   28      -40.490095    -40.490096   1.000000   1.000000
   29      -40.479630    -40.479635   1.000000   1.000000
   30      -40.478395    -40.478400   1.000000   1.000000
   31      -40.469641    -40.469645   1.000000   1.000000
   32      -40.466267    -40.466271   1.000000   1.000000
   33      -40.461642    -40.461648   1.000000   1.000000
   34      -40.458391    -40.458398   1.000000   1.000000
   35      -40.433792    -40.433798   1.000000   1.000000
   36      -40.429777    -40.429782   1.000000   1.000000
   37      -40.429610    -40.429616   1.000000   1.000000
   38      -40.426823    -40.426829   1.000000   1.000000
   39      -40.394752    -40.394756   1.000000   1.000000
   40      -40.391752    -40.391756   1.000000   1.000000
   41      -40.376036    -40.376039   1.000000   1.000000
   42      -40.368972    -40.368975   1.000000   1.000000
   43      -40.347223    -40.347227   1.000000   1.000000
   44      -40.342558    -40.342562   1.000000   1.000000
   45      -40.282350    -40.282354   1.000000   1.000000
   46      -40.281196    -40.281201   1.000000   1.000000
   47      -40.279838    -40.279842   1.000000   1.000000
   48      -40.277488    -40.277493   1.000000   1.000000
   49      -40.277262    -40.277266   1.000000   1.000000
   50      -40.276009    -40.276013   1.000000   1.000000
   51      -39.899295    -39.899300   1.000000   1.000000
   52      -39.898930    -39.898936   1.000000   1.000000
   53      -39.888527    -39.888533   1.000000   1.000000
   54      -39.882997    -39.883003   1.000000   1.000000
   55      -39.880127    -39.880134   1.000000   1.000000
   56      -39.879833    -39.879840   1.000000   1.000000
   57      -12.835368    -12.835382   1.000000   1.000000
   58      -12.832992    -12.833005   1.000000   1.000000
   59      -12.704689    -12.704707   1.000000   1.000000
   60      -12.700973    -12.700987   1.000000   1.000000
   61      -12.699940    -12.699952   1.000000   1.000000
   62      -12.698077    -12.698088   1.000000   1.000000
   63      -12.687121    -12.687132   1.000000   1.000000
   64      -12.686738    -12.686749   1.000000   1.000000
   65       -9.643812     -9.643816   1.000000   1.000000
   66       -9.624927     -9.624931   1.000000   1.000000
   67       -9.617948     -9.617952   1.000000   1.000000
   68       -9.604121     -9.604126   1.000000   1.000000
   69       -9.549549     -9.549552   1.000000   1.000000
   70       -9.541722     -9.541725   1.000000   1.000000
   71       -9.540038     -9.540041   1.000000   1.000000
   72       -9.523834     -9.523836   1.000000   1.000000
   73       -9.522223     -9.522226   1.000000   1.000000
   74       -9.509674     -9.509677   1.000000   1.000000
   75       -9.472517     -9.472520   1.000000   1.000000
   76       -9.449116     -9.449119   1.000000   1.000000
   77       -9.444900     -9.444902   1.000000   1.000000
   78       -9.434573     -9.434575   1.000000   1.000000
   79       -9.409977     -9.409979   1.000000   1.000000
   80       -9.395571     -9.395573   1.000000   1.000000
   81       -9.359722     -9.359725   1.000000   1.000000
   82       -9.353647     -9.353651   1.000000   1.000000
   83       -9.328981     -9.328984   1.000000   1.000000
   84       -9.319187     -9.319191   1.000000   1.000000
   85       -9.304563     -9.304567   1.000000   1.000000
   86       -9.291965     -9.291968   1.000000   1.000000
   87       -9.279841     -9.279844   1.000000   1.000000
   88       -9.267417     -9.267420   1.000000   1.000000
   89       -2.942648     -2.942658   1.000000   1.000000
   90       -2.810160     -2.810170   1.000000   1.000000
   91       -2.696444     -2.696454   1.000000   1.000000
   92       -2.692953     -2.692964   1.000000   1.000000
   93       -2.644637     -2.644648   1.000000   1.000000
   94       -2.602009     -2.602021   1.000000   1.000000
   95       -2.584178     -2.584190   1.000000   1.000000
   96       -2.577835     -2.577847   1.000000   1.000000
   97       -1.138850     -1.138852   1.000000   1.000000
   98       -1.130647     -1.130648   1.000000   1.000000
   99       -1.096948     -1.096950   1.000000   1.000000
  100       -1.072243     -1.072246   1.000000   1.000000
  101       -1.053758     -1.053760   1.000000   1.000000
  102       -1.037127     -1.037129   1.000000   1.000000
  103       -0.976027     -0.976029   1.000000   1.000000
  104       -0.881322     -0.881325   1.000000   1.000000
  105       -0.860928     -0.860932   1.000000   1.000000
  106       -0.847488     -0.847491   1.000000   1.000000
  107       -0.745688     -0.745694   1.000000   1.000000
  108       -0.720975     -0.720979   1.000000   1.000000
  109       -0.707221     -0.707225   1.000000   1.000000
  110       -0.683096     -0.683101   1.000000   1.000000
  111       -0.634524     -0.634530   1.000000   1.000000
  112       -0.593192     -0.593197   1.000000   1.000000
  113       -0.513895     -0.513902   1.000000   1.000000
  114       -0.487603     -0.487610   1.000000   1.000000
  115       -0.479844     -0.479851   1.000000   1.000000
  116       -0.433208     -0.433216   1.000000   1.000000
  117       -0.384777     -0.384785   1.000000   1.000000
  118       -0.367822     -0.367830   1.000000   1.000000
  119       -0.304392     -0.304400   1.000000   1.000000
  120       -0.280309     -0.280317   1.000000   1.000000
  121        1.125222      1.125227   1.000000   1.000000
  122        1.161838      1.161842   1.000000   1.000000
  123        1.257162      1.257164   1.000000   1.000000
  124        1.273022      1.273025   1.000000   1.000000
  125        1.320847      1.320852   1.000000   1.000000
  126        1.327936      1.327942   1.000000   1.000000
  127        1.358773      1.358777   1.000000   1.000000
  128        1.362922      1.362926   1.000000   1.000000
  129        1.383656      1.383662   1.000000   1.000000
  130        1.392829      1.392836   1.000000   1.000000
  131        1.415328      1.415329   1.000000   1.000000
  132        1.453726      1.453727   1.000000   1.000000
  133        1.546005      1.546006   1.000000   1.000000
  134        1.551564      1.551565   1.000000   1.000000
  135        1.592468      1.592469   1.000000   1.000000
  136        1.689133      1.689133   1.000000   1.000000
  137        1.744719      1.744721   1.000000   1.000000
  138        1.756192      1.756195   1.000000   1.000000
  139        1.797920      1.797921   1.000000   1.000000
  140        1.886614      1.886616   1.000000   1.000000
  141        1.905993      1.905994   1.000000   1.000000
  142        1.919569      1.919571   1.000000   1.000000
  143        1.930463      1.930464   1.000000   1.000000
  144        1.939768      1.939768   1.000000   1.000000
  145        1.954250      1.954252   1.000000   1.000000
  146        1.999014      1.999015   1.000000   1.000000
  147        2.031211      2.031213   1.000000   1.000000
  148        2.038314      2.038315   1.000000   1.000000
  149        2.101444      2.101445   1.000000   1.000000
  150        2.206727      2.206727   1.000000   1.000000
  151        2.233249      2.233251   1.000000   1.000000
  152        2.248880      2.248882   1.000000   1.000000
  153        2.308411      2.308411   1.000000   1.000000
  154        2.335289      2.335291   1.000000   1.000000
  155        2.357461      2.357462   1.000000   1.000000
  156        2.485536      2.485537   1.000000   1.000000
  157        2.511236      2.511237   1.000000   1.000000
  158        2.590892      2.590892   1.000000   1.000000
  159        2.600311      2.600312   1.000000   1.000000
  160        2.615546      2.615547   1.000000   1.000000
  161        2.685638      2.685639   1.000000   1.000000
  162        2.703249      2.703249   1.000000   1.000000
  163        2.757273      2.757273   1.000000   1.000000
  164        2.780953      2.780954   1.000000   1.000000
  165        2.874485      2.874487   1.000000   1.000000
  166        2.901733      2.901734   1.000000   1.000000
  167        2.931082      2.931083   1.000000   1.000000
  168        2.962185      2.962185   1.000000   1.000000
  169        3.038797      3.038797   1.000000   1.000000
  170        3.088916      3.088916   1.000000   1.000000
  171        3.137223      3.137223   1.000000   1.000000
  172        3.157019      3.157020   1.000000   1.000000
  173        3.205975      3.205975   1.000000   1.000000
  174        3.254574      3.254573   1.000000   1.000000
  175        3.283412      3.283412   1.000000   1.000000
  176        3.296155      3.296154   1.000000   1.000000
  177        3.337097      3.337096   1.000000   1.000000
  178        3.376192      3.376191   1.000000   1.000000
  179        3.395672      3.395671   1.000000   1.000000
  180        3.414246      3.414245   1.000000   1.000000
  181        3.523545      3.523543   1.000000   1.000000
  182        3.547404      3.547403   1.000000   1.000000
  183        3.559392      3.559391   1.000000   1.000000
  184        3.585926      3.585925   1.000000   1.000000
  185        7.227397      7.227454   0.000000   0.000000
  186        7.464228      7.464271   0.000000   0.000000
  187        7.496087      7.496133   0.000000   0.000000
  188        7.659675      7.659739   0.000000   0.000000
  189        8.019821      8.019868   0.000000   0.000000
  190        8.330284      8.330334   0.000000   0.000000
  191        8.435401      8.435451   0.000000   0.000000
  192        8.480818      8.480861   0.000000   0.000000
  193        8.512911      8.512947   0.000000   0.000000
  194        8.520384      8.520423   0.000000   0.000000
  195        8.692149      8.692193   0.000000   0.000000
  196        8.785208      8.785250   0.000000   0.000000
  197        8.889503      8.889567   0.000000   0.000000
  198        9.034704      9.034752   0.000000   0.000000
  199        9.042855      9.042888   0.000000   0.000000
  200        9.088642      9.088687   0.000000   0.000000
  201        9.260036      9.260078   0.000000   0.000000
  202        9.307639      9.307686   0.000000   0.000000
  203        9.354919      9.354956   0.000000   0.000000
  204        9.418019      9.418057   0.000000   0.000000
  205        9.504062      9.504118   0.000000   0.000000
  206        9.542031      9.542072   0.000000   0.000000
  207        9.616139      9.616186   0.000000   0.000000
  208        9.688617      9.688659   0.000000   0.000000
  209        9.794391      9.794434   0.000000   0.000000
  210        9.899308      9.899351   0.000000   0.000000
  211        9.926764      9.926873   0.000000   0.000000
  212        9.969100      9.969139   0.000000   0.000000
  213       10.068200     10.068238   0.000000   0.000000
  214       10.190762     10.190812   0.000000   0.000000
  215       10.304931     10.304970   0.000000   0.000000
  216       10.390295     10.390320   0.000000   0.000000
  217       10.922671     10.922702   0.000000   0.000000
  218       11.018143     11.018158   0.000000   0.000000
  219       11.073190     11.073226   0.000000   0.000000
  220       11.149785     11.149782   0.000000   0.000000
  221       11.227320     11.227109   0.000000   0.000000
  222       11.250963     11.250897   0.000000   0.000000
  223       11.354431     11.354438   0.000000   0.000000
  224       11.431654     11.431472   0.000000   0.000000
  225       11.501425     11.501479   0.000000   0.000000
  226       11.546122     11.545939   0.000000   0.000000
  227       11.611138     11.611210   0.000000   0.000000
  228       11.665687     11.665870   0.000000   0.000000
  229       11.708910     11.708749   0.000000   0.000000
  230       11.739000     11.739197   0.000000   0.000000
  231       11.803679     11.803576   0.000000   0.000000
  232       11.844260     11.844486   0.000000   0.000000
  233       11.907604     11.908208   0.000000   0.000000
  234       11.943777     11.941579   0.000000   0.000000
  235       11.956423     11.955738   0.000000   0.000000
  236       12.029716     12.030741   0.000000   0.000000
  237       12.098400     12.097338   0.000000   0.000000
  238       12.210103     12.211354   0.000000   0.000000
  239       12.258870     12.259685   0.000000   0.000000
  240       12.293307     12.292195   0.000000   0.000000
  241       12.425171     12.431422   0.000000   0.000000
  242       12.483006     12.485589   0.000000   0.000000
  243       12.585681     12.595287   0.000000   0.000000
  244       12.680803     12.685969   0.000000   0.000000
  245       12.729253     12.742610   0.000000   0.000000
  246       12.829465     12.835334   0.000000   0.000000
  247       12.882638     12.891898   0.000000   0.000000