       N       E                     dE             d eps       ncg     rms          rms(c)
DAV:   1     0.348505163778E+04    0.34851E+04   -0.15334E+05  8448   0.156E+03
DAV:   2     0.363073169753E+02   -0.34487E+04   -0.31106E+04  8984   0.436E+02
DAV:   3    -0.448828441225E+03   -0.48514E+03   -0.47861E+03 11440   0.146E+02
DAV:   4    -0.518548100568E+03   -0.69720E+02   -0.68986E+02 15112   0.473E+01
DAV:   5    -0.525415861071E+03   -0.68678E+01   -0.68624E+01 13568   0.125E+01    0.739E+01
RMM:   6    -0.469181100718E+03    0.56235E+02   -0.20833E+02 10140   0.209E+01    0.322E+01
RMM:   7    -0.482523048450E+03   -0.13342E+02   -0.46909E+01 13475   0.121E+01    0.173E+01
RMM:   8    -0.485111856621E+03   -0.25888E+01   -0.11662E+01 15168   0.564E+00    0.911E+00
RMM:   9    -0.485902461833E+03   -0.79061E+00   -0.53374E+00 13745   0.433E+00    0.302E+00
RMM:  10    -0.485989173815E+03   -0.86712E-01   -0.22306E+00 15121   0.282E+00    0.162E+00
RMM:  11    -0.486085659774E+03   -0.96486E-01   -0.13726E+00 15674   0.163E+00    0.127E+00
RMM:  12    -0.486159375023E+03   -0.73715E-01   -0.65241E-01 15991   0.107E+00    0.105E+00
RMM:  13    -0.486191678911E+03   -0.32304E-01   -0.27220E-01 15551   0.728E-01    0.490E-01
RMM:  14    -0.486205156064E+03   -0.13477E-01   -0.12051E-01 15964   0.522E-01    0.996E-02
RMM:  15    -0.486212511250E+03   -0.73552E-02   -0.68508E-02 16000   0.360E-01    0.812E-02
RMM:  16    -0.486216064310E+03   -0.35531E-02   -0.32476E-02 16000   0.253E-01    0.768E-02
RMM:  17    -0.486217871751E+03   -0.18074E-02   -0.17978E-02 14857   0.183E-01    0.408E-02
RMM:  18    -0.486218848565E+03   -0.97681E-03   -0.10101E-02 14384   0.137E-01    0.192E-02
RMM:  19    -0.486219486948E+03   -0.63838E-03   -0.58758E-03 14208   0.105E-01    0.232E-02
RMM:  20    -0.486219854432E+03   -0.36748E-03   -0.35419E-03 14208   0.793E-02    0.226E-02
RMM:  21    -0.486220086101E+03   -0.23167E-03   -0.22424E-03 14148   0.608E-02    0.271E-02
RMM:  22    -0.486220253981E+03   -0.16788E-03   -0.14448E-03 13935   0.473E-02    0.429E-02
RMM:  23    -0.486220309981E+03   -0.56000E-04   -0.90571E-04 13363   0.384E-02    0.214E-02
RMM:  24    -0.486220361111E+03   -0.51131E-04   -0.59159E-04 12087   0.301E-02    0.153E-02
RMM:  25    -0.486220390084E+03   -0.28973E-04   -0.41659E-04 12294   0.259E-02    0.101E-02
RMM:  26    -0.486220407881E+03   -0.17797E-04   -0.32105E-04 12967   0.236E-02    0.260E-02
RMM:  27    -0.486220422864E+03   -0.14983E-04   -0.17856E-04  9794   0.179E-02    0.258E-02
RMM:  28    -0.486220435992E+03   -0.13128E-04   -0.13723E-04 10624   0.171E-02    0.204E-02
RMM:  29    -0.486220445246E+03   -0.92537E-05   -0.10230E-04 10463   0.147E-02    0.183E-02
RMM:  30    -0.486220452250E+03   -0.70044E-05   -0.75666E-05  9938   0.135E-02
   1 F= -.48622045E+03 E0= -.48622045E+03  d E =0.000000E+00  mag=    -0.0000
