 running on   24 total cores
 distrk:  each k-point on   24 cores,    1 groups
 distr:  one band on    6 cores,    4 groups
 using from now: INCAR     
 vasp.6.1.2 22Jul20 (build Mar 31 2021 18:09:49) complex                        
  
 POSCAR found type information on POSCAR LiP 
 POSCAR found :  2 types and       8 ions
 scaLAPACK will be used
 -----------------------------------------------------------------------------
|                                                                             |
|               ----> ADVICE to this user running VASP <----                  |
|                                                                             |
|     You have a (more or less) 'small supercell' and for smaller cells       |
|     it is recommended to use the reciprocal-space projection scheme!        |
|     The real-space optimization is not efficient for small cells and it     |
|     is also less accurate ...                                               |
|     Therefore, set LREAL=.FALSE. in the INCAR file.                         |
|                                                                             |
 -----------------------------------------------------------------------------

 LDA part: xc-table for Pade appr. of Perdew
 generate k-points for:    9    9    4
 POSCAR, INCAR and KPOINTS ok, starting setup
 FFT: planning ...
 WAVECAR not read
 entering main loop
       N       E                     dE             d eps       ncg     rms          rms(c)
DAV:   1     0.158222736538E+03    0.15822E+03   -0.11786E+04  9128   0.118E+03
DAV:   2     0.169682918779E+01   -0.15653E+03   -0.14793E+03  9928   0.299E+02
DAV:   3    -0.237155135248E+02   -0.25412E+02   -0.25180E+02 16352   0.696E+01
DAV:   4    -0.264431272679E+02   -0.27276E+01   -0.27064E+01 13520   0.308E+01
DAV:   5    -0.266456416332E+02   -0.20251E+00   -0.20250E+00 14560   0.670E+00    0.149E+01
RMM:   6    -0.271095224180E+02   -0.46388E+00   -0.16296E+00 11114   0.630E+00    0.756E+00
RMM:   7    -0.278155352627E+02   -0.70601E+00   -0.49194E-01 12514   0.424E+00    0.285E+00
RMM:   8    -0.278870008925E+02   -0.71466E-01   -0.38970E-01 14283   0.285E+00    0.118E+00
RMM:   9    -0.278958599666E+02   -0.88591E-02   -0.96339E-02 15144   0.169E+00    0.517E-01
RMM:  10    -0.279040916901E+02   -0.82317E-02   -0.42615E-02 15855   0.100E+00    0.268E-01
RMM:  11    -0.279062509902E+02   -0.21593E-02   -0.15528E-02 16125   0.579E-01    0.197E-01
RMM:  12    -0.279069978431E+02   -0.74685E-03   -0.57286E-03 15748   0.441E-01    0.501E-02
RMM:  13    -0.279075836559E+02   -0.58581E-03   -0.32486E-03 16225   0.269E-01    0.187E-02
RMM:  14    -0.279077842019E+02   -0.20055E-03   -0.15994E-03 15939   0.171E-01    0.221E-02
RMM:  15    -0.279078696766E+02   -0.85475E-04   -0.73322E-04 14262   0.114E-01    0.189E-02
RMM:  16    -0.279079130077E+02   -0.43331E-04   -0.37882E-04 14050   0.816E-02    0.250E-02
RMM:  17    -0.279079304182E+02   -0.17411E-04   -0.20989E-04 13803   0.677E-02    0.185E-02
RMM:  18    -0.279079440196E+02   -0.13601E-04   -0.12156E-04 12629   0.503E-02    0.178E-02
RMM:  19    -0.279079511348E+02   -0.71152E-05   -0.80759E-05 11766   0.426E-02
   1 F= -.27907951E+02 E0= -.27907951E+02  d E =0.000000E+00  mag=    -0.0001
