 running on   12 total cores
 distrk:  each k-point on   12 cores,    1 groups
 distr:  one band on    6 cores,    2 groups
 using from now: INCAR     
 vasp.6.1.2 22Jul20 (build Mar 20 2021 11:25:07) complex                        
  
 POSCAR found type information on POSCAR LiO 
 POSCAR found :  2 types and       3 ions
 scaLAPACK will be used
 -----------------------------------------------------------------------------
|                                                                             |
|               ----> ADVICE to this user running VASP <----                  |
|                                                                             |
|     You have a (more or less) 'small supercell' and for smaller cells       |
|     it is recommended to use the reciprocal-space projection scheme!        |
|     The real-space optimization is not efficient for small cells and it     |
|     is also less accurate ...                                               |
|     Therefore, set LREAL=.FALSE. in the INCAR file.                         |
|                                                                             |
 -----------------------------------------------------------------------------

 LDA part: xc-table for Pade appr. of Perdew
 generate k-points for:   13   12   12
 POSCAR, INCAR and KPOINTS ok, starting setup
 FFT: planning ...
 WAVECAR not read
 entering main loop
       N       E                     dE             d eps       ncg     rms          rms(c)
DAV:   1     0.447567804486E+02    0.44757E+02   -0.57197E+03 24624   0.104E+03
DAV:   2    -0.971561516969E+01   -0.54472E+02   -0.52564E+02 29636   0.229E+02
DAV:   3    -0.152441470221E+02   -0.55285E+01   -0.54836E+01 45908   0.543E+01
DAV:   4    -0.152925110961E+02   -0.48364E-01   -0.48357E-01 28072   0.660E+00
DAV:   5    -0.152929268855E+02   -0.41579E-03   -0.41578E-03 34208   0.445E-01    0.117E+01
RMM:   6    -0.141326878887E+02    0.11602E+01   -0.34437E+00 26800   0.125E+01    0.494E+00
RMM:   7    -0.142498870421E+02   -0.11720E+00   -0.11145E-01 31209   0.279E+00    0.215E+00
RMM:   8    -0.142586912131E+02   -0.88042E-02   -0.46383E-02 35531   0.209E+00    0.116E+00
RMM:   9    -0.142705961637E+02   -0.11905E-01   -0.31345E-02 35335   0.197E+00    0.242E-01
RMM:  10    -0.142718949010E+02   -0.12987E-02   -0.93479E-03 40505   0.749E-01    0.136E-01
RMM:  11    -0.142727403747E+02   -0.84547E-03   -0.50164E-03 38877   0.566E-01    0.153E-01
RMM:  12    -0.142726750750E+02    0.65300E-04   -0.16419E-03 39732   0.334E-01    0.710E-02
RMM:  13    -0.142726908970E+02   -0.15822E-04   -0.75107E-04 39811   0.225E-01    0.204E-02
RMM:  14    -0.142727317276E+02   -0.40831E-04   -0.32178E-04 38801   0.129E-01    0.335E-02
WARNING in EDDRMM: call to ZHEGV failed, returncode =   6  3      3
RMM:  15    -0.142727477868E+02   -0.16059E-04   -0.12236E-04 36123   0.835E-02    0.265E-02
RMM:  16    -0.142727519851E+02   -0.41983E-05   -0.57964E-05 33262   0.585E-02
   1 F= -.14272752E+02 E0= -.14272752E+02  d E =0.000000E+00  mag=     0.0000
