       N       E                     dE             d eps       ncg     rms          rms(c)
DAV:   1     0.111032107351E+04    0.11103E+04   -0.61208E+04 21328   0.151E+03
DAV:   2    -0.587121111217E+02   -0.11690E+04   -0.10988E+04 25776   0.388E+02
DAV:   3    -0.173003672740E+03   -0.11429E+03   -0.11352E+03 27576   0.124E+02
DAV:   4    -0.182483768756E+03   -0.94801E+01   -0.94385E+01 39384   0.296E+01
DAV:   5    -0.184169664516E+03   -0.16859E+01   -0.16853E+01 30832   0.718E+00    0.472E+01
DAV:   6    -0.164817413445E+03    0.19352E+02   -0.91002E+01 26614   0.319E+01    0.234E+01
DAV:   7    -0.166781537790E+03   -0.19641E+01   -0.73603E+00 27792   0.929E+00    0.828E+00
DAV:   8    -0.167075884060E+03   -0.29435E+00   -0.77000E-01 28392   0.348E+00    0.422E+00
DAV:   9    -0.167210350337E+03   -0.13447E+00   -0.13718E-01 29568   0.159E+00    0.168E+00
DAV:  10    -0.167241251147E+03   -0.30901E-01   -0.55202E-02 26408   0.113E+00    0.481E-01
DAV:  11    -0.167251847295E+03   -0.10596E-01   -0.11571E-02 26856   0.437E-01    0.280E-01
DAV:  12    -0.167254866191E+03   -0.30189E-02   -0.23102E-03 28192   0.210E-01    0.144E-01
DAV:  13    -0.167256469280E+03   -0.16031E-02   -0.12659E-03 24704   0.133E-01    0.494E-02
DAV:  14    -0.167256686415E+03   -0.21713E-03   -0.15651E-04 26616   0.619E-02    0.222E-02
DAV:  15    -0.167256752526E+03   -0.66112E-04   -0.75771E-05 22032   0.375E-02    0.142E-02
DAV:  16    -0.167256759514E+03   -0.69880E-05   -0.86401E-06 18352   0.153E-02
   1 F= -.16725676E+03 E0= -.16725676E+03  d E =0.000000E+00  mag=    -0.0009
