 running on   24 total cores
 distrk:  each k-point on   24 cores,    1 groups
 distr:  one band on    6 cores,    4 groups
 using from now: INCAR     
 vasp.6.1.2 22Jul20 (build Mar 31 2021 18:09:49) complex                        
  
 POSCAR found type information on POSCAR LiP 
 POSCAR found :  2 types and       8 ions
 scaLAPACK will be used
 -----------------------------------------------------------------------------
|                                                                             |
|               ----> ADVICE to this user running VASP <----                  |
|                                                                             |
|     You have a (more or less) 'small supercell' and for smaller cells       |
|     it is recommended to use the reciprocal-space projection scheme!        |
|     The real-space optimization is not efficient for small cells and it     |
|     is also less accurate ...                                               |
|     Therefore, set LREAL=.FALSE. in the INCAR file.                         |
|                                                                             |
 -----------------------------------------------------------------------------

 LDA part: xc-table for Pade appr. of Perdew
 generate k-points for:    9    9    4
 POSCAR, INCAR and KPOINTS ok, starting setup
 FFT: planning ...
 WAVECAR not read
 entering main loop
       N       E                     dE             d eps       ncg     rms          rms(c)
DAV:   1     0.157591143682E+03    0.15759E+03   -0.11741E+04  9120   0.118E+03
DAV:   2     0.173766566438E+01   -0.15585E+03   -0.14705E+03  9888   0.299E+02
DAV:   3    -0.236552138278E+02   -0.25393E+02   -0.25159E+02 16240   0.696E+01
DAV:   4    -0.264525826587E+02   -0.27974E+01   -0.27763E+01 13472   0.310E+01
DAV:   5    -0.266567853796E+02   -0.20420E+00   -0.20419E+00 14472   0.672E+00    0.149E+01
RMM:   6    -0.271207227037E+02   -0.46394E+00   -0.16279E+00 11108   0.629E+00    0.756E+00
RMM:   7    -0.278269630095E+02   -0.70624E+00   -0.49005E-01 12458   0.424E+00    0.285E+00
RMM:   8    -0.278985393966E+02   -0.71576E-01   -0.38982E-01 14251   0.285E+00    0.118E+00
RMM:   9    -0.279074292016E+02   -0.88898E-02   -0.96234E-02 15084   0.168E+00    0.516E-01
RMM:  10    -0.279156365051E+02   -0.82073E-02   -0.42588E-02 15847   0.100E+00    0.269E-01
RMM:  11    -0.279177950775E+02   -0.21586E-02   -0.15513E-02 16095   0.577E-01    0.197E-01
RMM:  12    -0.279185364637E+02   -0.74139E-03   -0.56423E-03 15719   0.438E-01    0.511E-02
RMM:  13    -0.279191163723E+02   -0.57991E-03   -0.32110E-03 16204   0.266E-01    0.186E-02
RMM:  14    -0.279193138696E+02   -0.19750E-03   -0.15664E-03 15910   0.169E-01    0.220E-02
RMM:  15    -0.279193969027E+02   -0.83033E-04   -0.71332E-04 14229   0.111E-01    0.185E-02
RMM:  16    -0.279194382492E+02   -0.41346E-04   -0.36265E-04 14046   0.796E-02    0.237E-02
RMM:  17    -0.279194566530E+02   -0.18404E-04   -0.20216E-04 13739   0.664E-02    0.210E-02
RMM:  18    -0.279194701588E+02   -0.13506E-04   -0.11432E-04 12420   0.491E-02    0.224E-02
RMM:  19    -0.279194775653E+02   -0.74065E-05   -0.78464E-05 11818   0.419E-02
   1 F= -.27919478E+02 E0= -.27919478E+02  d E =0.000000E+00  mag=     0.0000
