   12   12    1    2
  0.1077788E+02  0.5477419E-09  0.5477419E-09  0.4896308E-09  0.5000000E-15
  1.000000000000000E-004
  CAR 
 unknown system                          
     56     64     40
 
  0.0000000E+00  0.0000000E+00  0.0000000E+00  0.2915452E-02
    1      -41.131171    -41.131068   1.000000   1.000000
    2      -41.117198    -41.117095   1.000000   1.000000
    3      -41.116152    -41.116049   1.000000   1.000000
    4      -41.115809    -41.115706   1.000000   1.000000
    5      -17.178566    -17.178604   1.000000   1.000000
    6      -16.618932    -16.618976   1.000000   1.000000
    7      -15.366514    -15.366559   1.000000   1.000000
    8      -15.348176    -15.348221   1.000000   1.000000
    9      -13.169185    -13.169218   1.000000   1.000000
   10      -11.620132    -11.620161   1.000000   1.000000
   11       -7.524896     -7.524926   1.000000   1.000000
   12       -4.284865     -4.284882   1.000000   1.000000
   13       -3.981931     -3.981949   1.000000   1.000000
   14       -3.359531     -3.359545   1.000000   1.000000
   15       -3.324364     -3.324376   1.000000   1.000000
   16       -2.285467     -2.285491   1.000000   1.000000
   17       -1.275657     -1.275666   1.000000   1.000000
   18       -1.260991     -1.260996   1.000000   1.000000
   19       -0.363451     -0.363465   1.000000   1.000000
   20       -0.201974     -0.201986   1.000000   1.000000
   21       -0.045708     -0.045721   1.000000   1.000000
   22        0.590584      0.590563   1.000000   1.000000
   23        0.610082      0.610060   1.000000   1.000000
   24        0.681088      0.681072   1.000000   1.000000
   25        0.813505      0.813487   1.000000   1.000000
   26        1.351910      1.351894   1.000000   1.000000
   27        1.434442      1.434437   1.000000   1.000000
   28        2.076899      2.076900   1.000000   1.000000
   29        6.978405      6.978454   0.000002   0.000001
   30        8.684194      8.684210   0.000000   0.000000
   31        8.859571      8.859580   0.000000   0.000000
   32        9.925278      9.925307   0.000000   0.000000
   33       10.048204     10.048159   0.000000   0.000000
   34       11.087003     11.087019   0.000000   0.000000
   35       11.235851     11.235315   0.000000   0.000000
   36       12.070133     12.069069   0.000000   0.000000
   37       12.151192     12.121958   0.000000   0.000000
   38       12.217307     12.195483   0.000000   0.000000
   39       12.452154     12.406969   0.000000   0.000000
   40       12.892048     12.778751   0.000000   0.000000
 
  0.1428571E+00 -0.1525349E-16  0.0000000E+00  0.1166181E-01
    1      -41.130664    -41.130561   1.000000   1.000000
    2      -41.118641    -41.118538   1.000000   1.000000
    3      -41.116184    -41.116081   1.000000   1.000000
    4      -41.114860    -41.114757   1.000000   1.000000
    5      -17.160866    -17.160905   1.000000   1.000000
    6      -16.634857    -16.634901   1.000000   1.000000
    7      -15.371954    -15.371998   1.000000   1.000000
    8      -15.350148    -15.350193   1.000000   1.000000
    9      -13.172325    -13.172358   1.000000   1.000000
   10      -11.619008    -11.619038   1.000000   1.000000
   11       -7.528290     -7.528320   1.000000   1.000000
   12       -4.257233     -4.257250   1.000000   1.000000
   13       -3.973661     -3.973679   1.000000   1.000000
   14       -3.390974     -3.390989   1.000000   1.000000
   15       -3.254471     -3.254484   1.000000   1.000000
   16       -2.303158     -2.303181   1.000000   1.000000
   17       -1.354858     -1.354864   1.000000   1.000000
   18       -1.059176     -1.059185   1.000000   1.000000
   19       -0.341202     -0.341217   1.000000   1.000000
   20       -0.177677     -0.177689   1.000000   1.000000
   21       -0.051235     -0.051247   1.000000   1.000000
   22        0.426409      0.426391   1.000000   1.000000
   23        0.544544      0.544531   1.000000   1.000000
   24        0.661278      0.661257   1.000000   1.000000
   25        0.780855      0.780836   1.000000   1.000000
   26        1.305581      1.305565   1.000000   1.000000
   27        1.486232      1.486226   1.000000   1.000000
   28        2.074136      2.074138   1.000000   1.000000
   29        7.204115      7.204160  -0.000000  -0.000000
   30        8.667944      8.667956   0.000000   0.000000
   31        8.935185      8.935188   0.000000   0.000000
   32        9.773929      9.773941   0.000000   0.000000
   33       10.166771     10.166707   0.000000   0.000000
   34       10.744992     10.745086   0.000000   0.000000
   35       11.238101     11.238000   0.000000   0.000000
   36       11.540726     11.540681   0.000000   0.000000
   37       11.998944     11.998661   0.000000   0.000000
   38       12.157042     12.156306   0.000000   0.000000
   39       12.268912     12.266583   0.000000   0.000000
   40       13.148953     12.938979   0.000000   0.000000
 
  0.2857143E+00  0.3125794E-17  0.0000000E+00  0.1166181E-01
    1      -41.129168    -41.129065   1.000000   1.000000
    2      -41.121104    -41.121001   1.000000   1.000000
    3      -41.115999    -41.115896   1.000000   1.000000
    4      -41.114096    -41.113993   1.000000   1.000000
    5      -17.115933    -17.115973   1.000000   1.000000
    6      -16.675855    -16.675898   1.000000   1.000000
    7      -15.383595    -15.383639   1.000000   1.000000
    8      -15.355282    -15.355327   1.000000   1.000000
    9      -13.178925    -13.178958   1.000000   1.000000
   10      -11.616854    -11.616884   1.000000   1.000000
   11       -7.535367     -7.535396   1.000000   1.000000
   12       -4.209742     -4.209761   1.000000   1.000000
   13       -3.925836     -3.925854   1.000000   1.000000
   14       -3.475427     -3.475441   1.000000   1.000000
   15       -3.074607     -3.074623   1.000000   1.000000
   16       -2.358035     -2.358057   1.000000   1.000000
   17       -1.263615     -1.263624   1.000000   1.000000
   18       -0.831830     -0.831841   1.000000   1.000000
   19       -0.363247     -0.363261   1.000000   1.000000
   20       -0.148828     -0.148841   1.000000   1.000000
   21       -0.046744     -0.046754   1.000000   1.000000
   22        0.128880      0.128867   1.000000   1.000000
   23        0.406663      0.406649   1.000000   1.000000
   24        0.590666      0.590651   1.000000   1.000000
   25        0.720056      0.720033   1.000000   1.000000
   26        1.190382      1.190370   1.000000   1.000000
   27        1.606016      1.606005   1.000000   1.000000
   28        2.066059      2.066061   1.000000   1.000000
   29        7.752255      7.752290   0.000000   0.000000
   30        8.602218      8.602221   0.000000   0.000000
   31        9.100649      9.100644   0.000000   0.000000
   32        9.580178      9.580176   0.000000   0.000000
   33       10.150875     10.150879   0.000000   0.000000
   34       10.303844     10.303808   0.000000   0.000000
   35       10.816784     10.816821   0.000000   0.000000
   36       11.241117     11.240416   0.000000   0.000000
   37       11.607533     11.607490   0.000000   0.000000
   38       12.185451     12.185677   0.000000   0.000000
   39       12.374881     12.374438   0.000000   0.000000
   40       13.025540     13.029977   0.000000   0.000000
 
  0.4285714E+00  0.5883822E-17  0.0000000E+00  0.1166181E-01
    1      -41.127130    -41.127027   1.000000   1.000000
    2      -41.123629    -41.123526   1.000000   1.000000
    3      -41.115818    -41.115715   1.000000   1.000000
    4      -41.113764    -41.113661   1.000000   1.000000
    5      -17.071887    -17.071928   1.000000   1.000000
    6      -16.716888    -16.716930   1.000000   1.000000
    7      -15.392388    -15.392432   1.000000   1.000000
    8      -15.359732    -15.359777   1.000000   1.000000
    9      -13.183839    -13.183871   1.000000   1.000000
   10      -11.615424    -11.615453   1.000000   1.000000
   11       -7.540413     -7.540442   1.000000   1.000000
   12       -4.192808     -4.192828   1.000000   1.000000
   13       -3.835972     -3.835991   1.000000   1.000000
   14       -3.569755     -3.569768   1.000000   1.000000
   15       -2.886257     -2.886276   1.000000   1.000000
   16       -2.432809     -2.432829   1.000000   1.000000
   17       -1.077269     -1.077283   1.000000   1.000000
   18       -0.716209     -0.716225   1.000000   1.000000
   19       -0.446508     -0.446510   1.000000   1.000000
   20       -0.238148     -0.238159   1.000000   1.000000
   21       -0.173891     -0.173901   1.000000   1.000000
   22        0.109637      0.109623   1.000000   1.000000
   23        0.370693      0.370680   1.000000   1.000000
   24        0.539447      0.539433   1.000000   1.000000
   25        0.665229      0.665205   1.000000   1.000000
   26        1.074690      1.074682   1.000000   1.000000
   27        1.705174      1.705160   1.000000   1.000000
   28        2.056766      2.056768   1.000000   1.000000
   29        8.207668      8.207686   0.000000   0.000000
   30        8.662808      8.662822   0.000000   0.000000
   31        9.202551      9.202549   0.000000   0.000000
   32        9.382875      9.382892   0.000000   0.000000
   33        9.906999      9.906915   0.000000   0.000000
   34       10.144976     10.145004   0.000000   0.000000
   35       10.451668     10.451729   0.000000   0.000000
   36       11.197174     11.197201   0.000000   0.000000
   37       11.201882     11.201895   0.000000   0.000000
   38       12.432672     12.434712   0.000000   0.000000
   39       12.627701     12.628536   0.000000   0.000000
   40       13.082323     13.076333   0.000000   0.000000
 
  0.1428571E+00  0.1428571E+00  0.0000000E+00  0.5830904E-02
    1      -41.129585    -41.129483   1.000000   1.000000
    2      -41.120563    -41.120460   1.000000   1.000000
    3      -41.116118    -41.116015   1.000000   1.000000
    4      -41.114076    -41.113973   1.000000   1.000000
    5      -17.126998    -17.127037   1.000000   1.000000
    6      -16.669288    -16.669331   1.000000   1.000000
    7      -15.382939    -15.382983   1.000000   1.000000
    8      -15.347817    -15.347863   1.000000   1.000000
    9      -13.174474    -13.174507   1.000000   1.000000
   10      -11.617769    -11.617799   1.000000   1.000000
   11       -7.529908     -7.529937   1.000000   1.000000
   12       -4.239977     -4.239995   1.000000   1.000000
   13       -3.927697     -3.927715   1.000000   1.000000
   14       -3.446454     -3.446469   1.000000   1.000000
   15       -3.176204     -3.176217   1.000000   1.000000
   16       -2.348934     -2.348957   1.000000   1.000000
   17       -1.304911     -1.304919   1.000000   1.000000
   18       -0.794415     -0.794427   1.000000   1.000000
   19       -0.276017     -0.276034   1.000000   1.000000
   20       -0.246950     -0.246961   1.000000   1.000000
   21       -0.023204     -0.023215   1.000000   1.000000
   22        0.256076      0.256059   1.000000   1.000000
   23        0.311392      0.311384   1.000000   1.000000
   24        0.674993      0.674978   1.000000   1.000000
   25        0.706429      0.706406   1.000000   1.000000
   26        1.208720      1.208707   1.000000   1.000000
   27        1.594647      1.594637   1.000000   1.000000
   28        2.083558      2.083558   1.000000   1.000000
   29        7.574059      7.574097   0.000000   0.000000
   30        8.601303      8.601310   0.000000   0.000000
   31        9.032485      9.032486   0.000000   0.000000
   32        9.587661      9.587652   0.000000   0.000000
   33       10.167642     10.167649   0.000000   0.000000
   34       10.736795     10.736822   0.000000   0.000000
   35       10.914776     10.914888   0.000000   0.000000
   36       11.176265     11.176177   0.000000   0.000000
   37       11.637178     11.637400   0.000000   0.000000
   38       11.835307     11.835309   0.000000   0.000000
   39       12.264541     12.264329   0.000000   0.000000
   40       13.318925     13.323382   0.000000   0.000000
 
  0.2857143E+00  0.1428571E+00  0.0000000E+00  0.1166181E-01
    1      -41.127707    -41.127605   1.000000   1.000000
    2      -41.122926    -41.122823   1.000000   1.000000
    3      -41.116080    -41.115978   1.000000   1.000000
    4      -41.113609    -41.113506   1.000000   1.000000
    5      -17.081293    -17.081333   1.000000   1.000000
    6      -16.709738    -16.709781   1.000000   1.000000
    7      -15.406849    -15.406893   1.000000   1.000000
    8      -15.340685    -15.340731   1.000000   1.000000
    9      -13.181075    -13.181108   1.000000   1.000000
   10      -11.615963    -11.615993   1.000000   1.000000
   11       -7.536963     -7.536992   1.000000   1.000000
   12       -4.207172     -4.207191   1.000000   1.000000
   13       -3.854505     -3.854524   1.000000   1.000000
   14       -3.522166     -3.522180   1.000000   1.000000
   15       -3.001751     -3.001767   1.000000   1.000000
   16       -2.401962     -2.401983   1.000000   1.000000
   17       -1.131582     -1.131594   1.000000   1.000000
   18       -0.630011     -0.630031   1.000000   1.000000
   19       -0.420035     -0.420038   1.000000   1.000000
   20       -0.348356     -0.348364   1.000000   1.000000
   21        0.016020      0.016006   1.000000   1.000000
   22        0.072850      0.072838   1.000000   1.000000
   23        0.269237      0.269225   1.000000   1.000000
   24        0.581344      0.581330   1.000000   1.000000
   25        0.704811      0.704788   1.000000   1.000000
   26        1.082995      1.082987   1.000000   1.000000
   27        1.695884      1.695871   1.000000   1.000000
   28        2.078268      2.078269   1.000000   1.000000
   29        8.093249      8.093276   0.000000   0.000000
   30        8.543867      8.543876   0.000000   0.000000
   31        9.126387      9.126386   0.000000   0.000000
   32        9.385733      9.385727   0.000000   0.000000
   33       10.000411     10.000397   0.000000   0.000000
   34       10.359523     10.359562   0.000000   0.000000
   35       10.616861     10.616955   0.000000   0.000000
   36       11.164524     11.164574   0.000000   0.000000
   37       11.396544     11.396554   0.000000   0.000000
   38       11.861171     11.861233   0.000000   0.000000
   39       12.382192     12.382536   0.000000   0.000000
   40       13.279638     13.300364   0.000000   0.000000
 
  0.4285714E+00  0.1428571E+00  0.0000000E+00  0.1166181E-01
    1      -41.126229    -41.126126   1.000000   1.000000
    2      -41.124455    -41.124352   1.000000   1.000000
    3      -41.116088    -41.115985   1.000000   1.000000
    4      -41.113574    -41.113471   1.000000   1.000000
    5      -17.062259    -17.062300   1.000000   1.000000
    6      -16.721603    -16.721645   1.000000   1.000000
    7      -15.423023    -15.423066   1.000000   1.000000
    8      -15.336758    -15.336803   1.000000   1.000000
    9      -13.187331    -13.187364   1.000000   1.000000
   10      -11.614713    -11.614743   1.000000   1.000000
   11       -7.544633     -7.544662   1.000000   1.000000
   12       -4.179350     -4.179370   1.000000   1.000000
   13       -3.806355     -3.806376   1.000000   1.000000
   14       -3.567863     -3.567877   1.000000   1.000000
   15       -2.845551     -2.845570   1.000000   1.000000
   16       -2.438094     -2.438114   1.000000   1.000000
   17       -1.017780     -1.017796   1.000000   1.000000
   18       -0.793003     -0.793014   1.000000   1.000000
   19       -0.453905     -0.453912   1.000000   1.000000
   20       -0.384794     -0.384796   1.000000   1.000000
   21       -0.083002     -0.083017   1.000000   1.000000
   22        0.105416      0.105404   1.000000   1.000000
   23        0.363087      0.363074   1.000000   1.000000
   24        0.519563      0.519546   1.000000   1.000000
   25        0.702762      0.702739   1.000000   1.000000
   26        1.052326      1.052319   1.000000   1.000000
   27        1.711701      1.711686   1.000000   1.000000
   28        2.065120      2.065121   1.000000   1.000000
   29        8.292390      8.292406   0.000000   0.000000
   30        8.683045      8.683054   0.000000   0.000000
   31        9.129684      9.129705   0.000000   0.000000
   32        9.267278      9.267289   0.000000   0.000000
   33        9.748281      9.748204   0.000000   0.000000
   34       10.245440     10.245469   0.000000   0.000000
   35       10.670857     10.670904   0.000000   0.000000
   36       11.016088     11.016137   0.000000   0.000000
   37       11.286322     11.286559   0.000000   0.000000
   38       12.229424     12.231374   0.000000   0.000000
   39       12.613779     12.612920   0.000000   0.000000
   40       13.210335     13.220441   0.000000   0.000000
 
 -0.4285714E+00  0.1428571E+00  0.0000000E+00  0.1166181E-01
    1      -41.128112    -41.128009   1.000000   1.000000
    2      -41.122166    -41.122064   1.000000   1.000000
    3      -41.116249    -41.116146   1.000000   1.000000
    4      -41.113822    -41.113719   1.000000   1.000000
    5      -17.090801    -17.090841   1.000000   1.000000
    6      -16.689137    -16.689180   1.000000   1.000000
    7      -15.424094    -15.424137   1.000000   1.000000
    8      -15.334294    -15.334339   1.000000   1.000000
    9      -13.188879    -13.188912   1.000000   1.000000
   10      -11.614721    -11.614751   1.000000   1.000000
   11       -7.547256     -7.547285   1.000000   1.000000
   12       -4.155449     -4.155469   1.000000   1.000000
   13       -3.891516     -3.891535   1.000000   1.000000
   14       -3.500268     -3.500282   1.000000   1.000000
   15       -2.886787     -2.886805   1.000000   1.000000
   16       -2.389989     -2.390010   1.000000   1.000000
   17       -1.155113     -1.155124   1.000000   1.000000
   18       -0.903358     -0.903367   1.000000   1.000000
   19       -0.463238     -0.463250   1.000000   1.000000
   20       -0.274294     -0.274300   1.000000   1.000000
   21       -0.065629     -0.065646   1.000000   1.000000
   22        0.116561      0.116548   1.000000   1.000000
   23        0.451977      0.451964   1.000000   1.000000
   24        0.512609      0.512595   1.000000   1.000000
   25        0.735782      0.735759   1.000000   1.000000
   26        1.141800      1.141789   1.000000   1.000000
   27        1.627707      1.627695   1.000000   1.000000
   28        2.052900      2.052901   1.000000   1.000000
   29        8.118755      8.118782   0.000000   0.000000
   30        8.650193      8.650192   0.000000   0.000000
   31        9.136021      9.135985   0.000000   0.000000
   32        9.395858      9.395901   0.000000   0.000000
   33        9.816959      9.816927   0.000000   0.000000
   34       10.149755     10.149786   0.000000   0.000000
   35       10.985194     10.985263   0.000000   0.000000
   36       11.011776     11.011840   0.000000   0.000000
   37       11.537214     11.536989   0.000000   0.000000
   38       12.399022     12.396648   0.000000   0.000000
   39       12.620343     12.628273   0.000000   0.000000
   40       13.061721     13.086302   0.000000   0.000000
 
 -0.2857143E+00  0.1428571E+00  0.0000000E+00  0.1166181E-01
    1      -41.129813    -41.129710   1.000000   1.000000
    2      -41.119567    -41.119464   1.000000   1.000000
    3      -41.116641    -41.116538   1.000000   1.000000
    4      -41.114277    -41.114174   1.000000   1.000000
    5      -17.135759    -17.135798   1.000000   1.000000
    6      -16.646621    -16.646665   1.000000   1.000000
    7      -15.410721    -15.410765   1.000000   1.000000
    8      -15.333573    -15.333618   1.000000   1.000000
    9      -13.184155    -13.184188   1.000000   1.000000
   10      -11.616292    -11.616322   1.000000   1.000000
   11       -7.542331     -7.542361   1.000000   1.000000
   12       -4.166691     -4.166710   1.000000   1.000000
   13       -3.988819     -3.988835   1.000000   1.000000
   14       -3.408747     -3.408762   1.000000   1.000000
   15       -3.064281     -3.064297   1.000000   1.000000
   16       -2.311705     -2.311728   1.000000   1.000000
   17       -1.286696     -1.286703   1.000000   1.000000
   18       -1.074491     -1.074498   1.000000   1.000000
   19       -0.446660     -0.446673   1.000000   1.000000
   20       -0.133339     -0.133353   1.000000   1.000000
   21       -0.040764     -0.040777   1.000000   1.000000
   22        0.185262      0.185249   1.000000   1.000000
   23        0.534297      0.534284   1.000000   1.000000
   24        0.636386      0.636367   1.000000   1.000000
   25        0.774155      0.774133   1.000000   1.000000
   26        1.248267      1.248253   1.000000   1.000000
   27        1.508894      1.508886   1.000000   1.000000
   28        2.048227      2.048230   1.000000   1.000000
   29        7.601501      7.601540   0.000000   0.000000
   30        8.718701      8.718707   0.000000   0.000000
   31        9.051943      9.051924   0.000000   0.000000
   32        9.689017      9.689017   0.000000   0.000000
   33       10.043446     10.043409   0.000000   0.000000
   34       10.173198     10.173168   0.000000   0.000000
   35       11.009797     11.009786   0.000000   0.000000
   36       11.549097     11.548932   0.000000   0.000000
   37       11.843135     11.843445   0.000000   0.000000
   38       12.318932     12.317850   0.000000   0.000000
   39       12.635479     12.637269   0.000000   0.000000
   40       12.912043     12.984596   0.000000   0.000000
 
 -0.1428571E+00  0.1428571E+00  0.0000000E+00  0.5830904E-02
    1      -41.130734    -41.130631   1.000000   1.000000
    2      -41.117632    -41.117530   1.000000   1.000000
    3      -41.117073    -41.116970   1.000000   1.000000
    4      -41.114876    -41.114773   1.000000   1.000000
    5      -17.164144    -17.164182   1.000000   1.000000
    6      -16.625378    -16.625422   1.000000   1.000000
    7      -15.389661    -15.389706   1.000000   1.000000
    8      -15.338473    -15.338518   1.000000   1.000000
    9      -13.176580    -13.176613   1.000000   1.000000
   10      -11.618378    -11.618407   1.000000   1.000000
   11       -7.533676     -7.533706   1.000000   1.000000
   12       -4.227090     -4.227108   1.000000   1.000000
   13       -4.000494     -4.000511   1.000000   1.000000
   14       -3.365959     -3.365974   1.000000   1.000000
   15       -3.216079     -3.216093   1.000000   1.000000
   16       -2.282043     -2.282067   1.000000   1.000000
   17       -1.266970     -1.266979   1.000000   1.000000
   18       -1.242357     -1.242361   1.000000   1.000000
   19       -0.422581     -0.422594   1.000000   1.000000
   20       -0.181264     -0.181276   1.000000   1.000000
   21       -0.000740     -0.000754   1.000000   1.000000
   22        0.397732      0.397715   1.000000   1.000000
   23        0.612561      0.612543   1.000000   1.000000
   24        0.678456      0.678435   1.000000   1.000000
   25        0.795008      0.794990   1.000000   1.000000
   26        1.316095      1.316080   1.000000   1.000000
   27        1.446633      1.446628   1.000000   1.000000
   28        2.057439      2.057442   1.000000   1.000000
   29        7.216051      7.216096  -0.000000  -0.000000
   30        8.713840      8.713854   0.000000   0.000000
   31        8.937254      8.937264   0.000000   0.000000
   32        9.987972      9.987956   0.000000   0.000000
   33       10.020153     10.020072   0.000000   0.000000
   34       10.413328     10.413252   0.000000   0.000000
   35       11.191045     11.190998   0.000000   0.000000
   36       11.794760     11.795489   0.000000   0.000000
   37       12.133147     12.132894   0.000000   0.000000
   38       12.397423     12.396290   0.000000   0.000000
   39       12.600262     12.596491   0.000000   0.000000
   40       12.915101     13.155008   0.000000   0.000000
 
  0.2857143E+00  0.2857143E+00  0.0000000E+00  0.5830904E-02
    1      -41.125658    -41.125555   1.000000   1.000000
    2      -41.124952    -41.124849   1.000000   1.000000
    3      -41.116361    -41.116259   1.000000   1.000000
    4      -41.113360    -41.113257   1.000000   1.000000
    5      -17.058715    -17.058756   1.000000   1.000000
    6      -16.722053    -16.722095   1.000000   1.000000
    7      -15.441348    -15.441391   1.000000   1.000000
    8      -15.322679    -15.322724   1.000000   1.000000
    9      -13.188948    -13.188981   1.000000   1.000000
   10      -11.614389    -11.614419   1.000000   1.000000
   11       -7.546483     -7.546512   1.000000   1.000000
   12       -4.175211     -4.175231   1.000000   1.000000
   13       -3.794291     -3.794312   1.000000   1.000000
   14       -3.540793     -3.540808   1.000000   1.000000
   15       -2.874189     -2.874206   1.000000   1.000000
   16       -2.418901     -2.418922   1.000000   1.000000
   17       -1.002107     -1.002123   1.000000   1.000000
   18       -0.814968     -0.814977   1.000000   1.000000
   19       -0.545829     -0.545834   1.000000   1.000000
   20       -0.282019     -0.282025   1.000000   1.000000
   21       -0.178541     -0.178555   1.000000   1.000000
   22        0.239900      0.239887   1.000000   1.000000
   23        0.250603      0.250589   1.000000   1.000000
   24        0.524122      0.524105   1.000000   1.000000
   25        0.743717      0.743694   1.000000   1.000000
   26        1.036941      1.036935   1.000000   1.000000
   27        1.712894      1.712880   1.000000   1.000000
   28        2.081486      2.081486   1.000000   1.000000
   29        8.354969      8.354991   0.000000   0.000000
   30        8.548600      8.548604   0.000000   0.000000
   31        9.027292      9.027311   0.000000   0.000000
   32        9.296725      9.296717   0.000000   0.000000
   33        9.667408      9.667262   0.000000   0.000000
   34       10.557570     10.557610   0.000000   0.000000
   35       10.630372     10.630385   0.000000   0.000000
   36       10.977690     10.977758   0.000000   0.000000
   37       11.605361     11.605599   0.000000   0.000000
   38       11.680782     11.680776   0.000000   0.000000
   39       12.485675     12.485326   0.000000   0.000000
   40       13.315898     13.318850   0.000000   0.000000
 
  0.4285714E+00  0.2857143E+00  0.0000000E+00  0.1166181E-01
    1      -41.126955    -41.126852   1.000000   1.000000
    2      -41.123206    -41.123103   1.000000   1.000000
    3      -41.116736    -41.116633   1.000000   1.000000
    4      -41.113448    -41.113346   1.000000   1.000000
    5      -17.070591    -17.070632   1.000000   1.000000
    6      -16.698058    -16.698101   1.000000   1.000000
    7      -15.462778    -15.462820   1.000000   1.000000
    8      -15.312990    -15.313035   1.000000   1.000000
    9      -13.196894    -13.196927   1.000000   1.000000
   10      -11.613081    -11.613110   1.000000   1.000000
   11       -7.556406     -7.556435   1.000000   1.000000
   12       -4.134971     -4.134991   1.000000   1.000000
   13       -3.823836     -3.823857   1.000000   1.000000
   14       -3.494418     -3.494433   1.000000   1.000000
   15       -2.783420     -2.783440   1.000000   1.000000
   16       -2.398067     -2.398087   1.000000   1.000000
   17       -1.058533     -1.058545   1.000000   1.000000
   18       -0.949877     -0.949883   1.000000   1.000000
   19       -0.634765     -0.634768   1.000000   1.000000
   20       -0.364192     -0.364204   1.000000   1.000000
   21       -0.140382     -0.140396   1.000000   1.000000
   22        0.254057      0.254045   1.000000   1.000000
   23        0.421075      0.421061   1.000000   1.000000
   24        0.462019      0.462003   1.000000   1.000000
   25        0.779298      0.779275   1.000000   1.000000
   26        1.093454      1.093444   1.000000   1.000000
   27        1.640410      1.640397   1.000000   1.000000
   28        2.070608      2.070608   1.000000   1.000000
   29        8.382560      8.382582   0.000000   0.000000
   30        8.692614      8.692617   0.000000   0.000000
   31        8.864538      8.864563   0.000000   0.000000
   32        9.352423      9.352396   0.000000   0.000000
   33        9.689249      9.689057   0.000000   0.000000
   34       10.251059     10.251103   0.000000   0.000000
   35       10.691531     10.691564   0.000000   0.000000
   36       11.172950     11.173494   0.000000   0.000000
   37       11.663553     11.665706   0.000000   0.000000
   38       12.132214     12.130867   0.000000   0.000000
   39       12.544770     12.536372   0.000000   0.000000
   40       13.368179     13.399694   0.000000   0.000000
 
 -0.4285714E+00  0.2857143E+00  0.0000000E+00  0.1166181E-01
    1      -41.128594    -41.128492   1.000000   1.000000
    2      -41.120715    -41.120612   1.000000   1.000000
    3      -41.117343    -41.117240   1.000000   1.000000
    4      -41.113673    -41.113570   1.000000   1.000000
    5      -17.103135    -17.103175   1.000000   1.000000
    6      -16.660618    -16.660661   1.000000   1.000000
    7      -15.463057    -15.463099   1.000000   1.000000
    8      -15.310867    -15.310912   1.000000   1.000000
    9      -13.198885    -13.198917   1.000000   1.000000
   10      -11.613136    -11.613166   1.000000   1.000000
   11       -7.558913     -7.558942   1.000000   1.000000
   12       -4.103849     -4.103869   1.000000   1.000000
   13       -3.929487     -3.929506   1.000000   1.000000
   14       -3.413634     -3.413650   1.000000   1.000000
   15       -2.831874     -2.831893   1.000000   1.000000
   16       -2.341675     -2.341696   1.000000   1.000000
   17       -1.177352     -1.177361   1.000000   1.000000
   18       -1.063308     -1.063313   1.000000   1.000000
   19       -0.557561     -0.557570   1.000000   1.000000