    8    8    1    2
  0.9807161E+01  0.5017965E-09  0.4871811E-09  0.4871811E-09  0.5000000E-15
  1.000000000000000E-004
  CAR 
 unknown system                          
     36    324     26
 
  0.0000000E+00  0.0000000E+00  0.0000000E+00  0.1562500E-02
    1      -38.912480    -38.912423   1.000000   1.000000
    2      -38.891833    -38.891777   1.000000   1.000000
    3      -14.055454    -14.055474   1.000000   1.000000
    4       -9.727232     -9.727257   1.000000   1.000000
    5       -9.678190     -9.678214   1.000000   1.000000
    6       -9.414415     -9.414441   1.000000   1.000000
    7       -7.472041     -7.472068   1.000000   1.000000
    8       -2.492983     -2.493002   1.000000   1.000000
    9       -2.440453     -2.440473   1.000000   1.000000
   10       -1.799084     -1.799105   1.000000   1.000000
   11        0.833383      0.833371   1.000000   1.000000
   12        1.645676      1.645675   1.000000   1.000000
   13        2.141260      2.141247   1.000000   1.000000
   14        3.197255      3.197240   1.000000   1.000000
   15        3.236171      3.236162   1.000000   1.000000
   16        3.528706      3.528697   1.000000   1.000000
   17        3.579212      3.579205   1.000000   1.000000
   18        3.673414      3.673389   1.000000   1.000000
   19        8.304762      8.304785   0.000000   0.000000
   20       10.206996     10.207002   0.000000   0.000000
   21       12.548378     12.548378   0.000000   0.000000
   22       12.765465     12.765594   0.000000   0.000000
   23       13.078609     13.078607   0.000000   0.000000
   24       13.195675     13.195946   0.000000   0.000000
   25       13.729376     13.729333   0.000000   0.000000
   26       14.592466     14.971818   0.000000   0.000000
 
  0.1250000E+00 -0.7971902E-17  0.1487179E-17  0.3125000E-02
    1      -38.911967    -38.911911   1.000000   1.000000
    2      -38.892299    -38.892243   1.000000   1.000000
    3      -13.988874    -13.988897   1.000000   1.000000
    4       -9.920970     -9.920995   1.000000   1.000000
    5       -9.724147     -9.724172   1.000000   1.000000
    6       -9.557320     -9.557345   1.000000   1.000000
    7       -7.109849     -7.109876   1.000000   1.000000
    8       -2.505841     -2.505860   1.000000   1.000000
    9       -2.429382     -2.429402   1.000000   1.000000
   10       -1.740153     -1.740175   1.000000   1.000000
   11        0.784489      0.784477   1.000000   1.000000
   12        1.755316      1.755312   1.000000   1.000000
   13        2.143111      2.143098   1.000000   1.000000
   14        2.951139      2.951124   1.000000   1.000000
   15        3.240447      3.240434   1.000000   1.000000
   16        3.514287      3.514280   1.000000   1.000000
   17        3.573838      3.573821   1.000000   1.000000
   18        3.707021      3.707009   1.000000   1.000000
   19        8.603012      8.603030  -0.000000  -0.000000
   20       10.527122     10.527124   0.000000   0.000000
   21       11.857780     11.857761   0.000000   0.000000
   22       12.318546     12.318459   0.000000   0.000000
   23       13.029469     13.029297   0.000000   0.000000
   24       13.403740     13.402286   0.000000   0.000000
   25       14.046012     14.024231   0.000000   0.000000
   26       14.872508     14.737539   0.000000   0.000000
 
  0.2500000E+00 -0.1594380E-16  0.2974358E-17  0.3125000E-02
    1      -38.910606    -38.910550   1.000000   1.000000
    2      -38.893588    -38.893532   1.000000   1.000000
    3      -13.805333    -13.805354   1.000000   1.000000
    4      -10.544571    -10.544595   1.000000   1.000000
    5       -9.757429     -9.757453   1.000000   1.000000
    6       -9.623011     -9.623035   1.000000   1.000000
    7       -6.448233     -6.448259   1.000000   1.000000
    8       -2.567437     -2.567457   1.000000   1.000000
    9       -2.321726     -2.321746   1.000000   1.000000
   10       -1.629487     -1.629509   1.000000   1.000000
   11        0.730681      0.730671   1.000000   1.000000
   12        1.798099      1.798084   1.000000   1.000000
   13        2.187399      2.187386   1.000000   1.000000
   14        2.406280      2.406278   1.000000   1.000000
   15        3.111704      3.111690   1.000000   1.000000
   16        3.481027      3.481009   1.000000   1.000000
   17        3.628213      3.628208   1.000000   1.000000
   18        4.017727      4.017713   1.000000   1.000000
   19        9.408765      9.408776   0.000000   0.000000
   20       10.944610     10.944600   0.000000   0.000000
   21       11.248592     11.248601   0.000000   0.000000
   22       11.760913     11.760908   0.000000   0.000000
   23       12.527520     12.527510   0.000000   0.000000
   24       13.784236     13.783561   0.000000   0.000000
   25       14.200109     14.199595   0.000000   0.000000
   26       14.950947     14.922208   0.000000   0.000000
 
  0.3750000E+00 -0.2391571E-16 -0.9416251E-17  0.3125000E-02
    1      -38.909043    -38.908986   1.000000   1.000000
    2      -38.895135    -38.895079   1.000000   1.000000
    3      -13.571034    -13.571057   1.000000   1.000000
    4      -11.117851    -11.117874   1.000000   1.000000
    5       -9.774187     -9.774211   1.000000   1.000000
    6       -9.673504     -9.673528   1.000000   1.000000
    7       -5.903095     -5.903121   1.000000   1.000000
    8       -2.608490     -2.608512   1.000000   1.000000
    9       -2.117496     -2.117518   1.000000   1.000000
   10       -1.606912     -1.606933   1.000000   1.000000
   11        0.771966      0.771956   1.000000   1.000000
   12        1.314632      1.314620   1.000000   1.000000
   13        2.028718      2.028711   1.000000   1.000000
   14        2.516683      2.516674   1.000000   1.000000
   15        2.964898      2.964888   1.000000   1.000000
   16        3.351658      3.351644   1.000000   1.000000
   17        3.858285      3.858276   1.000000   1.000000
   18        4.327055      4.327037   1.000000   1.000000
   19       10.249255     10.249249   0.000000   0.000000
   20       10.588197     10.588203   0.000000   0.000000
   21       11.542996     11.542998   0.000000   0.000000
   22       11.767281     11.767285   0.000000   0.000000
   23       12.076810     12.076793   0.000000   0.000000
   24       13.794387     13.794398   0.000000   0.000000
   25       14.181644     14.179772   0.000000   0.000000
   26       14.391291     14.393815   0.000000   0.000000
 
  0.5000000E+00 -0.3188761E-16  0.5948715E-17  0.1562500E-02
    1      -38.908279    -38.908223   1.000000   1.000000
    2      -38.895913    -38.895857   1.000000   1.000000
    3      -13.447700    -13.447723   1.000000   1.000000
    4      -11.361872    -11.361896   1.000000   1.000000
    5       -9.774515     -9.774539   1.000000   1.000000
    6       -9.699649     -9.699672   1.000000   1.000000
    7       -5.693942     -5.693968   1.000000   1.000000
    8       -2.611495     -2.611518   1.000000   1.000000
    9       -1.962484     -1.962509   1.000000   1.000000
   10       -1.669477     -1.669497   1.000000   1.000000
   11        0.772914      0.772905   1.000000   1.000000
   12        1.124066      1.124055   1.000000   1.000000
   13        1.870290      1.870285   1.000000   1.000000
   14        2.712205      2.712194   1.000000   1.000000
   15        2.881881      2.881868   1.000000   1.000000
   16        3.263074      3.263064   1.000000   1.000000
   17        3.984206      3.984193   1.000000   1.000000
   18        4.443541      4.443520   1.000000   1.000000
   19       10.060653     10.060651   0.000000   0.000000
   20       11.250773     11.250767   0.000000   0.000000
   21       11.495850     11.495842   0.000000   0.000000
   22       11.952597     11.952580   0.000000   0.000000
   23       12.037632     12.037645   0.000000   0.000000
   24       13.290694     13.290499   0.000000   0.000000
   25       13.773585     13.774412   0.000000   0.000000
   26       14.328428     14.325131   0.000000   0.000000
 
  0.1212293E-16  0.1250000E+00  0.4487620E-17  0.3125000E-02
    1      -38.911856    -38.911800   1.000000   1.000000
    2      -38.892436    -38.892380   1.000000   1.000000
    3      -13.977659    -13.977681   1.000000   1.000000
    4      -10.043794    -10.043819   1.000000   1.000000
    5       -9.704361     -9.704386   1.000000   1.000000
    6       -9.470321     -9.470346   1.000000   1.000000
    7       -7.109246     -7.109273   1.000000   1.000000
    8       -2.513425     -2.513444   1.000000   1.000000
    9       -2.443809     -2.443828   1.000000   1.000000
   10       -1.717271     -1.717293   1.000000   1.000000
   11        0.762092      0.762081   1.000000   1.000000
   12        1.781166      1.781162   1.000000   1.000000
   13        2.135529      2.135517   1.000000   1.000000
   14        3.063132      3.063118   1.000000   1.000000
   15        3.187202      3.187186   1.000000   1.000000
   16        3.504325      3.504309   1.000000   1.000000
   17        3.562244      3.562235   1.000000   1.000000
   18        3.688980      3.688970   1.000000   1.000000
   19        8.629002      8.629021  -0.000000  -0.000000
   20       10.435279     10.435283   0.000000   0.000000
   21       12.082765     12.082758   0.000000   0.000000
   22       12.306952     12.306942   0.000000   0.000000
   23       12.946509     12.946505   0.000000   0.000000
   24       13.322388     13.322382   0.000000   0.000000
   25       13.903608     13.902851   0.000000   0.000000
   26       14.743784     14.757542   0.000000   0.000000
 
  0.1250000E+00  0.1250000E+00  0.1738875E-16  0.3125000E-02
    1      -38.911056    -38.911000   1.000000   1.000000
    2      -38.893223    -38.893168   1.000000   1.000000
    3      -13.870486    -13.870508   1.000000   1.000000
    4      -10.350133    -10.350157   1.000000   1.000000
    5       -9.754685     -9.754710   1.000000   1.000000
    6       -9.597480     -9.597504   1.000000   1.000000
    7       -6.647871     -6.647898   1.000000   1.000000
    8       -2.626477     -2.626496   1.000000   1.000000
    9       -2.223574     -2.223595   1.000000   1.000000
   10       -1.731428     -1.731449   1.000000   1.000000
   11        0.783154      0.783144   1.000000   1.000000
   12        1.884444      1.884434   1.000000   1.000000
   13        2.089068      2.089056   1.000000   1.000000
   14        2.596342      2.596331   1.000000   1.000000
   15        3.112950      3.112935   1.000000   1.000000
   16        3.508080      3.508065   1.000000   1.000000
   17        3.683657      3.683645   1.000000   1.000000
   18        3.793887      3.793879   1.000000   1.000000
   19        9.073253      9.073269  -0.000000  -0.000000
   20       10.710697     10.710698   0.000000   0.000000
   21       11.544157     11.544157   0.000000   0.000000
   22       11.788425     11.788418   0.000000   0.000000
   23       12.874801     12.874807   0.000000   0.000000
   24       13.482833     13.483215   0.000000   0.000000
   25       14.109286     14.115869   0.000000   0.000000
   26       14.741211     15.289803   0.000000   0.000000
 
  0.2500000E+00  0.1250000E+00  0.2133977E-16  0.3125000E-02
    1      -38.909539    -38.909483   1.000000   1.000000
    2      -38.894632    -38.894576   1.000000   1.000000
    3      -13.658628    -13.658651   1.000000   1.000000
    4      -10.901274    -10.901298   1.000000   1.000000
    5       -9.804597     -9.804621   1.000000   1.000000
    6       -9.661111     -9.661135   1.000000   1.000000
    7       -6.043548     -6.043574   1.000000   1.000000
    8       -2.739383     -2.739403   1.000000   1.000000
    9       -2.026740     -2.026762   1.000000   1.000000
   10       -1.664660     -1.664682   1.000000   1.000000
   11        0.820419      0.820409   1.000000   1.000000
   12        1.545909      1.545896   1.000000   1.000000
   13        2.049937      2.049927   1.000000   1.000000
   14        2.406620      2.406614   1.000000   1.000000
   15        2.989385      2.989372   1.000000   1.000000
   16        3.515281      3.515265   1.000000   1.000000
   17        3.814282      3.814272   1.000000   1.000000
   18        4.077301      4.077288   1.000000   1.000000
   19        9.865523      9.865526   0.000000   0.000000
   20       10.622069     10.622070   0.000000   0.000000
   21       11.174464     11.174465   0.000000   0.000000
   22       11.720189     11.720180   0.000000   0.000000
   23       12.590665     12.590631   0.000000   0.000000
   24       13.553384     13.553638   0.000000   0.000000
   25       14.259982     14.274644   0.000000   0.000000
   26       14.792133     14.790818   0.000000   0.000000
 
  0.3750000E+00  0.1250000E+00  0.8949157E-17  0.3125000E-02
    1      -38.908092    -38.908036   1.000000   1.000000
    2      -38.896080    -38.896024   1.000000   1.000000
    3      -13.432987    -13.433010   1.000000   1.000000
    4      -11.359245    -11.359269   1.000000   1.000000
    5       -9.823952     -9.823976   1.000000   1.000000
    6       -9.702696     -9.702719   1.000000   1.000000
    7       -5.609176     -5.609202   1.000000   1.000000
    8       -2.824094     -2.824116   1.000000   1.000000
    9       -1.857098     -1.857121   1.000000   1.000000
   10       -1.644556     -1.644578   1.000000   1.000000
   11        0.823628      0.823620   1.000000   1.000000
   12        1.133468      1.133458   1.000000   1.000000
   13        1.884390      1.884383   1.000000   1.000000
   14        2.590394      2.590382   1.000000   1.000000
   15        2.963557      2.963547   1.000000   1.000000
   16        3.467739      3.467725   1.000000   1.000000
   17        3.950227      3.950214   1.000000   1.000000
   18        4.314039      4.314020   1.000000   1.000000
   19       10.118241     10.118239   0.000000   0.000000
   20       10.997583     10.997585   0.000000   0.000000
   21       11.094959     11.094969   0.000000   0.000000
   22       11.677554     11.677549   0.000000   0.000000
   23       12.641305     12.641307   0.000000   0.000000
   24       13.520247     13.520206   0.000000   0.000000
   25       14.122958     14.121317   0.000000   0.000000
   26       14.294596     14.283318   0.000000   0.000000
 
  0.5000000E+00  0.1250000E+00  0.5206970E-16  0.3125000E-02
    1      -38.907807    -38.907751   1.000000   1.000000
    2      -38.896348    -38.896292   1.000000   1.000000
    3      -13.384425    -13.384448   1.000000   1.000000
    4      -11.442720    -11.442743   1.000000   1.000000
    5       -9.824148     -9.824172   1.000000   1.000000
    6       -9.704145     -9.704169   1.000000   1.000000
    7       -5.551522     -5.551547   1.000000   1.000000
    8       -2.883751     -2.883775   1.000000   1.000000
    9       -1.901357     -1.901379   1.000000   1.000000
   10       -1.538597     -1.538619   1.000000   1.000000
   11        0.667793      0.667785   1.000000   1.000000
   12        1.138592      1.138582   1.000000   1.000000
   13        1.925700      1.925691   1.000000   1.000000
   14        2.744785      2.744772   1.000000   1.000000
   15        2.981163      2.981151   1.000000   1.000000
   16        3.390497      3.390485   1.000000   1.000000
   17        3.954300      3.954287   1.000000   1.000000
   18        4.361393      4.361373   1.000000   1.000000
   19       10.059008     10.059006   0.000000   0.000000
   20       11.066986     11.066981   0.000000   0.000000
   21       11.497747     11.497741   0.000000   0.000000
   22       11.730153     11.730146   0.000000   0.000000
   23       12.530639     12.530642   0.000000   0.000000
   24       13.320392     13.320436   0.000000   0.000000
   25       13.934358     13.928461   0.000000   0.000000
   26       14.222212     14.207464   0.000000   0.000000
 
 -0.3750000E+00  0.1250000E+00  0.6941502E-16  0.3125000E-02
    1      -38.908965    -38.908909   1.000000   1.000000
    2      -38.895173    -38.895117   1.000000   1.000000
    3      -13.570408    -13.570431   1.000000   1.000000
    4      -11.086640    -11.086664   1.000000   1.000000
    5       -9.806719     -9.806743   1.000000   1.000000
    6       -9.660066     -9.660091   1.000000   1.000000
    7       -5.905814     -5.905840   1.000000   1.000000
    8       -2.898153     -2.898175   1.000000   1.000000
    9       -2.077647     -2.077667   1.000000   1.000000
   10       -1.436278     -1.436301   1.000000   1.000000
   11        0.569021      0.569013   1.000000   1.000000
   12        1.436177      1.436166   1.000000   1.000000
   13        2.198644      2.198633   1.000000   1.000000
   14        2.606188      2.606180   1.000000   1.000000
   15        3.101078      3.101063   1.000000   1.000000
   16        3.361530      3.361516   1.000000   1.000000
   17        3.808926      3.808918   1.000000   1.000000
   18        4.208245      4.208228   1.000000   1.000000
   19       10.142129     10.142126   0.000000   0.000000
   20       10.568049     10.568051   0.000000   0.000000
   21       11.542434     11.542435   0.000000   0.000000
   22       11.844229     11.844227   0.000000   0.000000
   23       12.382790     12.382785   0.000000   0.000000
   24       13.496595     13.496271   0.000000   0.000000
   25       14.015775     14.011389   0.000000   0.000000
   26       14.582074     14.554545   0.000000   0.000000
 
 -0.2500000E+00  0.1250000E+00  0.1513263E-17  0.3125000E-02
    1      -38.910591    -38.910535   1.000000   1.000000
    2      -38.893649    -38.893593   1.000000   1.000000
    3      -13.802636    -13.802658   1.000000   1.000000
    4      -10.541885    -10.541910   1.000000   1.000000
    5       -9.760341     -9.760365   1.000000   1.000000
    6       -9.590252     -9.590277   1.000000   1.000000
    7       -6.498355     -6.498382   1.000000   1.000000
    8       -2.828360     -2.828380   1.000000   1.000000
    9       -2.241742     -2.241761   1.000000   1.000000
   10       -1.478799     -1.478822   1.000000   1.000000
   11        0.547765      0.547757   1.000000   1.000000
   12        1.889085      1.889071   1.000000   1.000000
   13        2.302469      2.302455   1.000000   1.000000
   14        2.534928      2.534925   1.000000   1.000000
   15        3.224041      3.224026   1.000000   1.000000
   16        3.392141      3.392122   1.000000   1.000000
   17        3.685089      3.685084   1.000000   1.000000
   18        3.914025      3.914014   1.000000   1.000000
   19        9.302332      9.302346   0.000000   0.000000
   20       11.002509     11.002496   0.000000   0.000000
   21       11.372868     11.372871   0.000000   0.000000
   22       12.084567     12.084567   0.000000   0.000000
   23       12.605493     12.605490   0.000000   0.000000
   24       13.239972     13.240005   0.000000   0.000000
   25       14.211667     14.211368   0.000000   0.000000
   26       14.625229     14.621574   0.000000   0.000000
 
 -0.1250000E+00  0.1250000E+00 -0.1687975E-16  0.3125000E-02
    1      -38.911693    -38.911636   1.000000   1.000000
    2      -38.892586    -38.892530   1.000000   1.000000
    3      -13.953183    -13.953205   1.000000   1.000000
    4      -10.121898    -10.121922   1.000000   1.000000
    5       -9.709148     -9.709171   1.000000   1.000000
    6       -9.478280     -9.478306   1.000000   1.000000
    7       -7.034443     -7.034469   1.000000   1.000000
    8       -2.678553     -2.678573   1.000000   1.000000
    9       -2.371212     -2.371230   1.000000   1.000000
   10       -1.608945     -1.608968   1.000000   1.000000
   11        0.656823      0.656812   1.000000   1.000000
   12        1.823664      1.823659   1.000000   1.000000
   13        2.221714      2.221701   1.000000   1.000000
   14        2.965728      2.965716   1.000000   1.000000
   15        3.253603      3.253588   1.000000   1.000000
   16        3.464511      3.464489   1.000000   1.000000
   17        3.638455      3.638449   1.000000   1.000000
   18        3.663149      3.663143   1.000000   1.000000
   19        8.707624      8.707640   0.000000   0.000000
   20       10.582332     10.582333   0.000000   0.000000
   21       12.025880     12.025877   0.000000   0.000000
   22       12.468452     12.468423   0.000000   0.000000
   23       12.785000     12.784992   0.000000   0.000000
   24       13.105327     13.105258   0.000000   0.000000
   25       14.136857     14.138205   0.000000   0.000000
   26       14.579181     14.570011   0.000000   0.000000
 
  0.2424586E-16  0.2500000E+00  0.8975240E-17  0.3125000E-02
    1      -38.910163    -38.910106   1.000000   1.000000
    2      -38.894072    -38.894016   1.000000   1.000000
    3      -13.757774    -13.757797   1.000000   1.000000
    4      -10.725449    -10.725473   1.000000   1.000000
    5       -9.745560     -9.745584   1.000000   1.000000
    6       -9.527158     -9.527183   1.000000   1.000000
    7       -6.433936     -6.433963   1.000000   1.000000
    8       -2.627760     -2.627780   1.000000   1.000000
    9       -2.322133     -2.322153   1.000000   1.000000
   10       -1.566163     -1.566185   1.000000   1.000000
   11        0.686553      0.686544   1.000000   1.000000
   12        1.921177      1.921164   1.000000   1.000000
   13        2.166946      2.166932   1.000000   1.000000
   14        2.395945      2.395941   1.000000   1.000000
   15        3.080514      3.080501   1.000000   1.000000
   16        3.416732      3.416713   1.000000   1.000000
   17        3.698371      3.698363   1.000000   1.000000
   18        4.050723      4.050711   1.000000   1.000000
   19        9.490375      9.490385   0.000000   0.000000
   20       10.741539     10.741535   0.000000   0.000000
   21       11.328486     11.328488   0.000000   0.000000
   22       11.894754     11.894750   0.000000   0.000000
   23       12.491153     12.491144   0.000000   0.000000
   24       13.781383     13.780590   0.000000   0.000000
   25       14.108636     14.104876   0.000000   0.000000
   26       14.957005     14.979594   0.000000   0.000000
 
  0.1250000E+00  0.2500000E+00  0.2187637E-16  0.3125000E-02
    1      -38.909172    -38.909115   1.000000   1.000000
    2      -38.895046    -38.894990   1.000000   1.000000
    3      -13.618886    -13.618909   1.000000   1.000000
    4      -11.013625    -11.013649   1.000000   1.000000
    5       -9.782123     -9.782148   1.000000   1.000000
    6       -9.631746     -9.631770   1.000000   1.000000
    7       -6.027856     -6.027882   1.000000   1.000000
    8       -2.769445     -2.769465   1.000000   1.000000
    9       -2.049865     -2.049886   1.000000   1.000000
   10       -1.613799     -1.613821   1.000000   1.000000
   11        0.809089      0.809080   1.000000   1.000000
   12        1.591724      1.591712   1.000000   1.000000
   13        2.045236      2.045225   1.000000   1.000000
   14        2.358826      2.358820   1.000000   1.000000
   15        3.009449      3.009437   1.000000   1.000000
   16        3.479286      3.479269   1.000000   1.000000
   17        3.849214      3.849201   1.000000   1.000000
   18        4.121094      4.121081   1.000000   1.000000
   19        9.928939      9.928942   0.000000   0.000000
   20       10.603912     10.603909   0.000000   0.000000
   21       11.069887     11.069889   0.000000   0.000000
   22       11.845913     11.845904   0.000000   0.000000
   23       12.506053     12.506025   0.000000   0.000000
   24       13.562490     13.562541   0.000000   0.000000
   25       14.260730     14.258191   0.000000   0.000000
   26       14.852803     14.850697   0.000000   0.000000
 
  0.2500000E+00  0.2500000E+00  0.3477750E-16  0.3125000E-02
    1      -38.907612    -38.907556   1.000000   1.000000
    2      -38.896556    -38.896500   1.000000   1.000000
    3      -13.385862    -13.385885   1.000000   1.000000
    4      -11.422971    -11.422995   1.000000   1.000000
    5       -9.849786     -9.849809   1.000000   1.000000
    6       -9.706715     -9.706738   1.000000   1.000000
    7       -5.508363     -5.508389   1.000000   1.000000
    8       -3.022351     -3.022373   1.000000   1.000000
    9       -1.809548     -1.809569   1.000000   1.000000
   10       -1.582070     -1.582093   1.000000   1.000000
   11        0.929078      0.929070   1.000000   1.000000
   12        1.071109      1.071102   1.000000   1.000000
   13        1.892233      1.892221   1.000000   1.000000
   14        2.552325      2.552314   1.000000   1.000000
   15        3.089188      3.089174   1.000000   1.000000
   16        3.538096      3.538081   1.000000   1.000000
   17        3.979313      3.979297   1.000000   1.000000
   18        4.171063      4.171049   1.000000   1.000000
   19       10.165977     10.165975   0.000000   0.000000
   20       10.617778     10.617783   0.000000   0.000000
   21       11.042221     11.042222   0.000000   0.000000
   22       11.711781     11.711761   0.000000   0.000000
   23       12.972226     12.972242   0.000000   0.000000
   24       13.226986     13.226903   0.000000   0.000000
   25       14.200057     14.194999   0.000000   0.000000
   26       14.779136     14.797224   0.000000   0.000000
 
  0.3750000E+00  0.2500000E+00 -0.5102449E-16  0.3125000E-02
    1      -38.906311    -38.906255   1.000000   1.000000
    2      -38.897794    -38.897738   1.000000   1.000000
    3      -13.171467    -13.171490   1.000000   1.000000
    4      -11.742944    -11.742968   1.000000   1.000000
    5       -9.877585     -9.877609   1.000000   1.000000
    6       -9.750968     -9.750991   1.000000   1.000000
    7       -5.143785     -5.143811   1.000000   1.000000
    8       -3.304513     -3.304537   1.000000   1.000000
    9       -1.656126     -1.656146   1.000000   1.000000
   10       -1.541541     -1.541562   1.000000   1.000000
   11        0.685279      0.685274   1.000000   1.000000
   12        1.184044      1.184033   1.000000   1.000000
   13        1.716519      1.716510   1.000000   1.000000
   14        2.628200      2.628185   1.000000   1.000000
   15        3.268609      3.268595   1.000000   1.000000
   16        3.632114      3.632100   1.000000   1.000000
   17        3.970285      3.970270   1.000000   1.000000
   18        4.220938      4.220920   1.000000   1.000000
   19       10.055824     10.055821   0.000000   0.000000
   20       10.988034     10.988035   0.000000   0.000000
   21       11.337437     11.337430   0.000000   0.000000
   22       11.469329     11.469324   0.000000   0.000000
   23       13.080127     13.080183   0.000000   0.000000
   24       13.554903     13.554521   0.000000   0.000000
   25       13.836941     13.835086   0.000000   0.000000
   26       14.273170     14.269213   0.000000   0.000000
 
  0.5000000E+00  0.2500000E+00  0.4267953E-16  0.3125000E-02
    1      -38.906467    -38.906411   1.000000   1.000000
    2      -38.897618    -38.897562   1.000000   1.000000
    3      -13.198379    -13.198402   1.000000   1.000000
    4      -11.693878    -11.693901   1.000000   1.000000
    5       -9.864035     -9.864058   1.000000   1.000000
    6       -9.749344     -9.749368   1.000000   1.000000
    7       -5.205816     -5.205841   1.000000   1.000000
    8       -3.440401     -3.440424   1.000000   1.000000
    9       -1.704451     -1.704472   1.000000   1.000000
   10       -1.366573     -1.366596   1.000000   1.000000
   11        0.549053      0.549046   1.000000   1.000000
   12        1.176031      1.176022   1.000000   1.000000
   13        1.970067      1.970057   1.000000   1.000000
   14        2.617370      2.617353   1.000000   1.000000
   15        3.303299      3.303287   1.000000   1.000000
   16        3.626118      3.626104   1.000000   1.000000
   17        3.934593      3.934582   1.000000   1.000000
   18        4.205352      4.205334   1.000000   1.000000
   19       10.124254     10.124248   0.000000   0.000000
   20       10.908171     10.908171   0.000000   0.000000
   21       11.478283     11.478272   0.000000   0.000000
   22       11.862045     11.862092   0.000000   0.000000
   23       12.703347     12.703564   0.000000   0.000000
   24       13.439133     13.439018   0.000000   0.000000
   25       13.783515     13.776647   0.000000   0.000000
   26       13.987415     13.988586   0.000000   0.000000
 
 -0.3750000E+00  0.2500000E+00  0.2040272E-16  0.3125000E-02
    1      -38.907918    -38.907861   1.000000   1.000000
    2      -38.896205    -38.896149   1.000000   1.000000
    3      -13.429966    -13.429989   1.000000   1.000000
    4      -11.317766    -11.317791   1.000000   1.000000
    5       -9.828121     -9.828144   1.000000   1.000000
    6       -9.694854     -9.694877   1.000000   1.000000
    7       -5.654808     -5.654834   1.000000   1.000000
    8       -3.355784     -3.355805   1.000000   1.000000
    9       -1.847630     -1.847651   1.000000   1.000000
   10       -1.248801     -1.248825   1.000000   1.000000
   11        0.375057      0.375051   1.000000   1.000000
   12        1.526908      1.526897   1.000000   1.000000
   13        2.305935      2.305923   1.000000   1.000000
   14        2.547655      2.547639   1.000000   1.000000
   15        3.213288      3.213276   1.000000   1.000000
   16        3.393271      3.393258   1.000000   1.000000
   17        3.939765      3.939754   1.000000   1.000000
   18        4.115803      4.115789   1.000000   1.000000
   19       10.148204     10.148203   0.000000   0.000000
   20       10.704368     10.704360   0.000000   0.000000
   21       11.706151     11.706116   0.000000   0.000000
   22       12.068793     12.068768   0.000000   0.000000
   23       12.577318     12.577368   0.000000   0.000000
   24       12.851347     12.851410   0.000000   0.000000
   25       13.865354     13.869048   0.000000   0.000000