 running on   12 total cores
 distrk:  each k-point on   12 cores,    1 groups
 distr:  one band on    6 cores,    2 groups
 using from now: INCAR     
 vasp.6.1.2 22Jul20 (build Mar 20 2021 11:25:07) complex                        
  
 POSCAR found type information on POSCAR LiP N 
 POSCAR found :  3 types and       8 ions
 scaLAPACK will be used
 -----------------------------------------------------------------------------
|                                                                             |
|               ----> ADVICE to this user running VASP <----                  |
|                                                                             |
|     You have a (more or less) 'small supercell' and for smaller cells       |
|     it is recommended to use the reciprocal-space projection scheme!        |
|     The real-space optimization is not efficient for small cells and it     |
|     is also less accurate ...                                               |
|     Therefore, set LREAL=.FALSE. in the INCAR file.                         |
|                                                                             |
 -----------------------------------------------------------------------------

 LDA part: xc-table for Pade appr. of Perdew
 generate k-points for:    8    8   10
 POSCAR, INCAR and KPOINTS ok, starting setup
 FFT: planning ...
 WAVECAR not read
 entering main loop
       N       E                     dE             d eps       ncg     rms          rms(c)
DAV:   1     0.207553363203E+03    0.20755E+03   -0.17478E+04 33696   0.137E+03
DAV:   2    -0.406551735852E+02   -0.24821E+03   -0.23993E+03 41614   0.326E+02
DAV:   3    -0.588594203738E+02   -0.18204E+02   -0.18118E+02 55606   0.811E+01
DAV:   4    -0.599247922408E+02   -0.10654E+01   -0.10622E+01 50358   0.161E+01
DAV:   5    -0.599812562225E+02   -0.56464E-01   -0.56460E-01 50580   0.284E+00    0.264E+01
RMM:   6    -0.539505646448E+02    0.60307E+01   -0.20304E+01 37009   0.218E+01    0.115E+01
RMM:   7    -0.542927313466E+02   -0.34217E+00   -0.51779E+00 49815   0.126E+01    0.579E+00
RMM:   8    -0.543893816976E+02   -0.96650E-01   -0.64440E-01 54929   0.534E+00    0.320E+00
RMM:   9    -0.543946077979E+02   -0.52261E-02   -0.24446E-01 52206   0.339E+00    0.101E+00
RMM:  10    -0.544045025142E+02   -0.98947E-02   -0.11155E-01 59612   0.200E+00    0.377E-01
RMM:  11    -0.544076811438E+02   -0.31786E-02   -0.60608E-02 61768   0.115E+00    0.221E-01
RMM:  12    -0.544107045825E+02   -0.30234E-02   -0.25732E-02 65130   0.730E-01    0.180E-01
RMM:  13    -0.544118383690E+02   -0.11338E-02   -0.98269E-03 64333   0.442E-01    0.587E-02
RMM:  14    -0.544122807246E+02   -0.44236E-03   -0.37275E-03 64018   0.293E-01    0.448E-02
RMM:  15    -0.544124729990E+02   -0.19227E-03   -0.16693E-03 63489   0.192E-01    0.279E-02
RMM:  16    -0.544125401588E+02   -0.67160E-04   -0.66456E-04 62637   0.127E-01    0.148E-02
RMM:  17    -0.544125761315E+02   -0.35973E-04   -0.33840E-04 61181   0.895E-02    0.570E-03
RMM:  18    -0.544125924228E+02   -0.16291E-04   -0.13401E-04 53030   0.627E-02    0.426E-03
RMM:  19    -0.544125955870E+02   -0.31642E-05   -0.41732E-05 42865   0.486E-02
   1 F= -.54412596E+02 E0= -.54412596E+02  d E =0.000000E+00  mag=     0.0000
