 running on   24 total cores
 distrk:  each k-point on   24 cores,    1 groups
 distr:  one band on    6 cores,    4 groups
 using from now: INCAR     
 vasp.6.1.2 22Jul20 (build Mar 31 2021 18:09:49) complex                        
  
 POSCAR found type information on POSCAR LiO 
 POSCAR found :  2 types and       8 ions
 scaLAPACK will be used
 -----------------------------------------------------------------------------
|                                                                             |
|               ----> ADVICE to this user running VASP <----                  |
|                                                                             |
|     You have a (more or less) 'small supercell' and for smaller cells       |
|     it is recommended to use the reciprocal-space projection scheme!        |
|     The real-space optimization is not efficient for small cells and it     |
|     is also less accurate ...                                               |
|     Therefore, set LREAL=.FALSE. in the INCAR file.                         |
|                                                                             |
 -----------------------------------------------------------------------------

 LDA part: xc-table for Pade appr. of Perdew
 generate k-points for:   12   12    4
 POSCAR, INCAR and KPOINTS ok, starting setup
 FFT: planning ...
 WAVECAR not read
 entering main loop
       N       E                     dE             d eps       ncg     rms          rms(c)
DAV:   1     0.253649106368E+03    0.25365E+03   -0.17320E+04 18368   0.137E+03
DAV:   2    -0.146487826051E+02   -0.26830E+03   -0.25806E+03 21984   0.348E+02
DAV:   3    -0.375554185942E+02   -0.22907E+02   -0.22716E+02 29576   0.847E+01
DAV:   4    -0.392723457839E+02   -0.17169E+01   -0.17100E+01 27304   0.214E+01
DAV:   5    -0.393192877368E+02   -0.46942E-01   -0.46939E-01 25916   0.310E+00    0.178E+01
RMM:   6    -0.382079015418E+02    0.11114E+01   -0.44904E+00 20414   0.109E+01    0.783E+00
RMM:   7    -0.388159777457E+02   -0.60808E+00   -0.67812E-01 23083   0.506E+00    0.389E+00
RMM:   8    -0.388941913144E+02   -0.78214E-01   -0.30974E-01 26925   0.315E+00    0.156E+00
RMM:   9    -0.389050848145E+02   -0.10894E-01   -0.10805E-01 28650   0.205E+00    0.384E-01
WARNING in EDDRMM: call to ZHEGV failed, returncode =   8  4      6
RMM:  10    -0.389147082724E+02   -0.96235E-02   -0.54865E-02 32235   0.115E+00    0.187E-01
RMM:  11    -0.389185585782E+02   -0.38503E-02   -0.21072E-02 32966   0.667E-01    0.127E-01
RMM:  12    -0.389198843543E+02   -0.13258E-02   -0.88892E-03 34213   0.399E-01    0.922E-02
WARNING in EDDRMM: call to ZHEGV failed, returncode =   6  3      5
RMM:  13    -0.389202966955E+02   -0.41234E-03   -0.32437E-03 32620   0.273E-01    0.388E-02
RMM:  14    -0.389205620553E+02   -0.26536E-03   -0.16638E-03 33239   0.191E-01    0.960E-03
RMM:  15    -0.389206541566E+02   -0.92101E-04   -0.76466E-04 31531   0.112E-01    0.932E-03
RMM:  16    -0.389206890295E+02   -0.34873E-04   -0.31693E-04 30241   0.736E-02    0.625E-03
RMM:  17    -0.389207023090E+02   -0.13280E-04   -0.12573E-04 28285   0.510E-02    0.352E-03
WARNING in EDDRMM: call to ZHEGV failed, returncode =   6  3      2
RMM:  18    -0.389207066632E+02   -0.43541E-05   -0.45324E-05 23885   0.370E-02
   1 F= -.38920707E+02 E0= -.38920707E+02  d E =0.000000E+00  mag=    -0.0000
