       N       E                     dE             d eps       ncg     rms          rms(c)
DAV:   1     0.105352615365E+04    0.10535E+04   -0.68270E+04  5856   0.132E+03
DAV:   2    -0.292612430681E+02   -0.10828E+04   -0.10000E+04  6856   0.286E+02
DAV:   3    -0.166104828374E+03   -0.13684E+03   -0.13507E+03  7874   0.962E+01
DAV:   4    -0.181840572363E+03   -0.15736E+02   -0.15637E+02 10528   0.289E+01
DAV:   5    -0.185086228743E+03   -0.32457E+01   -0.32440E+01  9704   0.852E+00    0.327E+01
DAV:   6    -0.185587928891E+03   -0.50170E+00   -0.92178E+00  7680   0.708E+00    0.179E+01
DAV:   7    -0.187749332451E+03   -0.21614E+01   -0.30667E+00  7624   0.424E+00    0.107E+01
DAV:   8    -0.188650113387E+03   -0.90078E+00   -0.13719E+00  7064   0.303E+00    0.244E+00
DAV:   9    -0.188738690188E+03   -0.88577E-01   -0.20244E-01  8168   0.134E+00    0.106E+00
DAV:  10    -0.188754794877E+03   -0.16105E-01   -0.37967E-02  7816   0.508E-01    0.382E-01
DAV:  11    -0.188759217103E+03   -0.44222E-02   -0.56044E-03  7104   0.237E-01    0.202E-01
DAV:  12    -0.188761525270E+03   -0.23082E-02   -0.23220E-03  7824   0.133E-01    0.105E-01
DAV:  13    -0.188762612474E+03   -0.10872E-02   -0.83285E-04  7064   0.742E-02    0.410E-02
DAV:  14    -0.188762932721E+03   -0.32025E-03   -0.29863E-04  7048   0.430E-02    0.225E-02
DAV:  15    -0.188763019314E+03   -0.86593E-04   -0.96408E-05  6200   0.248E-02    0.114E-02
DAV:  16    -0.188763039930E+03   -0.20617E-04   -0.21711E-05  5760   0.133E-02    0.508E-03
DAV:  17    -0.188763044594E+03   -0.46633E-05   -0.52638E-06  4464   0.743E-03
   1 F= -.18876304E+03 E0= -.18876304E+03  d E =0.000000E+00  mag=    -0.0004
