    3    3    1    2
  0.8496143E+01  0.3303336E-09  0.3303336E-09  0.3303336E-09  0.5000000E-15
  1.000000000000000E-004
  CAR 
 unknown system                          
     12     72     12
 
  0.0000000E+00  0.0000000E+00  0.0000000E+00  0.5787037E-03
    1      -41.899320    -41.896876   1.000000   1.000000
    2      -41.603281    -41.600777   1.000000   1.000000
    3      -14.225114    -14.225583   1.000000   1.000000
    4        1.168664      1.168117   1.000000   1.000000
    5        1.168664      1.168122   0.999997   1.000000
    6        1.168667      1.168122   0.999996   1.000000
    7        6.201331      6.201368   0.000000   0.000000
    8       12.904833     12.905047   0.000000   0.000000
    9       12.904864     12.905229   0.000000   0.000000
   10       12.904864     12.905230   0.000000   0.000000
   11       19.807773     19.807515   0.000000   0.000000
   12       19.807851     19.807680   0.000000   0.000000
 
  0.8333333E-01 -0.4456487E-17  0.4728593E-14  0.4629630E-02
    1      -41.893562    -41.891117   1.000000   1.000000
    2      -41.607341    -41.604837   1.000000   1.000000
    3      -14.211602    -14.212076   1.000000   1.000000
    4        0.932338      0.931838   1.000000   1.000000
    5        1.136810      1.136268   1.000000   1.000000
    6        1.136812      1.136273   1.000000   1.000000
    7        6.396694      6.396692   0.000000   0.000000
    8       12.911095     12.911422   0.000000   0.000000
    9       13.005199     13.005416   0.000000   0.000000
   10       13.005226     13.005578   0.000000   0.000000
   11       19.029697     19.029474   0.000000   0.000000
   12       19.029797     19.029628   0.000000   0.000000
 
  0.1666667E+00  0.4121183E-17 -0.4738947E-14  0.4629630E-02
    1      -41.876649    -41.874200   1.000000   1.000000
    2      -41.620195    -41.617693   1.000000   1.000000
    3      -14.174177    -14.174662   1.000000   1.000000
    4        0.350971      0.350559   1.000000   1.000000
    5        1.052381      1.051850   1.000000   1.000000
    6        1.052383      1.051857   1.000000   1.000000
    7        6.907698      6.907622   0.000000   0.000000
    8       12.865362     12.865639   0.000000   0.000000
    9       13.227955     13.228130   0.000000   0.000000
   10       13.227981     13.228289   0.000000   0.000000
   11       18.069586     18.069415   0.000000   0.000000
   12       18.069664     18.069555   0.000000   0.000000
 
  0.2500000E+00 -0.9604355E-17 -0.8023406E-17  0.4629630E-02
    1      -41.850229    -41.847774   1.000000   1.000000
    2      -41.640984    -41.638487   1.000000   1.000000
    3      -14.120596    -14.121099   1.000000   1.000000
    4       -0.341090     -0.341419   1.000000   1.000000
    5        0.942791      0.942275   1.000000   1.000000
    6        0.942793      0.942283   1.000000   1.000000
    7        7.618092      7.617952   0.000000   0.000000
    8       12.634886     12.635100   0.000000   0.000000
    9       13.364410     13.364509   0.000000   0.000000
   10       13.364436     13.364661   0.000000   0.000000
   11       17.655927     17.655824   0.000000   0.000000
   12       17.655996     17.655965   0.000000   0.000000
 
  0.3333333E+00 -0.9452105E-17  0.4722900E-14  0.4629630E-02
    1      -41.816795    -41.814333   1.000000   1.000000
    2      -41.668947    -41.666454   1.000000   1.000000
    3      -14.064586    -14.065109   1.000000   1.000000
    4       -0.956554     -0.956823   1.000000   1.000000
    5        0.839176      0.838672   1.000000   1.000000
    6        0.839178      0.838683   1.000000   1.000000
    7        8.463041      8.462861   0.000000   0.000000
    8       12.129724     12.129871   0.000000   0.000000
    9       13.280632     13.280652   0.000000   0.000000
   10       13.280661     13.280798   0.000000   0.000000
   11       17.871154     17.871117   0.000000   0.000000
   12       17.871219     17.871277   0.000000   0.000000
 
  0.4166667E+00 -0.7813329E-17 -0.4744640E-14  0.4629630E-02
    1      -41.779045    -41.776575   1.000000   1.000000
    2      -41.702594    -41.700109   1.000000   1.000000
    3      -14.021672    -14.022211   1.000000   1.000000
    4       -1.372440     -1.372672   1.000000   1.000000
    5        0.766767      0.766272   1.000000   1.000000
    6        0.766768      0.766283   1.000000   1.000000
    7        9.393562      9.393331   0.000000   0.000000
    8       11.374225     11.374340   0.000000   0.000000
    9       13.112429     13.112405   0.000000   0.000000
   10       13.112461     13.112546   0.000000   0.000000
   11       18.361264     18.361253   0.000000   0.000000
   12       18.361332     18.361407   0.000000   0.000000
 
  0.5000000E+00 -0.1920871E-16 -0.1604681E-16  0.2314815E-02
    1      -41.740642    -41.738165   1.000000   1.000000
    2      -41.739717    -41.737239   1.000000   1.000000
    3      -14.005878    -14.006424   1.000000   1.000000
    4       -1.518891     -1.519110   1.000000   1.000000
    5        0.740943      0.740451   1.000000   1.000000
    6        0.740944      0.740463   1.000000   1.000000
    7       10.159907     10.158327   0.000000   0.000000
    8       10.658655     10.659081   0.000000   0.000000
    9       13.036348     13.036311   0.000000   0.000000
   10       13.036381     13.036451   0.000000   0.000000
   11       18.611498     18.611477   0.000000   0.000000
   12       18.611539     18.611633   0.000000   0.000000
 
  0.8333333E-01  0.8333333E-01 -0.2303758E-16  0.3472222E-02
    1      -41.891802    -41.889356   1.000000   1.000000
    2      -41.608693    -41.606189   1.000000   1.000000
    3      -14.207423    -14.207898   1.000000   1.000000
    4        0.975092      0.974592   1.000000   1.000000
    5        1.067441      1.066908   1.000001   1.000000
    6        1.067443      1.066913   1.000001   1.000000
    7        6.446225      6.446210   0.000000   0.000000
    8       12.961798     12.962019   0.000000   0.000000
    9       12.961822     12.962139   0.000000   0.000000
   10       13.094776     13.095128   0.000000   0.000000
   11       17.912805     17.912867   0.000000   0.000000
   12       20.262653     20.262432   0.000000   0.000000
 
  0.1666667E+00  0.8333333E-01  0.1163689E-14  0.1388889E-01
    1      -41.878860    -41.876411   1.000000   1.000000
    2      -41.618298    -41.615795   1.000000   1.000000
    3      -14.178111    -14.178595   1.000000   1.000000
    4        0.535218      0.534785   1.000000   1.000000
    5        0.951681      0.951161   1.000000   1.000000
    6        1.033938      1.033419   1.000000   1.000000
    7        6.809168      6.809086   0.000000   0.000000
    8       12.962924     12.963191   0.000000   0.000000
    9       13.082902     13.083072   0.000000   0.000000
   10       13.390550     13.390914   0.000000   0.000000
   11       16.867629     16.867802   0.000000   0.000000
   12       19.847995     19.847830   0.000000   0.000000
 
  0.2500000E+00  0.8333333E-01 -0.4741447E-14  0.1388889E-01
    1      -41.856080    -41.853627   1.000000   1.000000
    2      -41.635968    -41.633470   1.000000   1.000000
    3      -14.130159    -14.130660   1.000000   1.000000
    4       -0.111234     -0.111585   1.000000   1.000000
    5        0.825074      0.824569   1.000000   1.000000
    6        0.963936      0.963431   1.000000   1.000000
    7        7.393033      7.392879   0.000000   0.000000
    8       12.767236     12.767444   0.000000   0.000000
    9       13.219238     13.219341   0.000000   0.000000
   10       13.720564     13.720906   0.000000   0.000000
   11       16.350496     16.350614   0.000000   0.000000
   12       19.256454     19.256231   0.000000   0.000000
 
  0.3333333E+00  0.8333333E-01 -0.4060912E-16  0.1388889E-01
    1      -41.825614    -41.823154   1.000000   1.000000
    2      -41.660874    -41.658380   1.000000   1.000000
    3      -14.074974    -14.075494   1.000000   1.000000
    4       -0.743347     -0.743634   1.000000   1.000000
    5        0.722368      0.721876   1.000000   1.000000
    6        0.857286      0.856797   1.000000   1.000000
    7        8.128591      8.128379   0.000000   0.000000
    8       12.300437     12.300603   0.000000   0.000000
    9       13.244878     13.244914   0.000000   0.000000
   10       13.758971     13.759249   0.000000   0.000000
   11       16.619508     16.619571   0.000000   0.000000
   12       19.066365     19.066328   0.000000   0.000000
 
  0.4166667E+00  0.8333333E-01  0.1169543E-14  0.1388889E-01
    1      -41.790196    -41.787728   1.000000   1.000000
    2      -41.691781    -41.689293   1.000000   1.000000
    3      -14.027597    -14.028134   1.000000   1.000000
    4       -1.220234     -1.220479   1.000000   1.000000
    5        0.667941      0.667457   1.000000   1.000000
    6        0.745150      0.744677   1.000000   1.000000
    7        8.959518      8.959248   0.000000   0.000000
    8       11.625583     11.625742   0.000000   0.000000
    9       13.180632     13.180622   0.000000   0.000000
   10       13.553451     13.553542   0.000000   0.000000
   11       17.425245     17.425473   0.000000   0.000000
   12       19.067489     19.067496   0.000000   0.000000
 
  0.5000000E+00  0.8333333E-01 -0.4747140E-14  0.1388889E-01
    1      -41.752554    -41.750079   1.000000   1.000000
    2      -41.727083    -41.724602   1.000000   1.000000
    3      -14.002354    -14.002901   1.000000   1.000000
    4       -1.454926     -1.455152   1.000000   1.000000
    5        0.656646      0.656182   1.000000   1.000000
    6        0.672586      0.672103   1.000000   1.000000
    7        9.744992      9.744466   0.000000   0.000000
    8       10.901811     10.902112   0.000000   0.000000
    9       13.152623     13.152593   0.000000   0.000000
   10       13.372772     13.372694   0.000000   0.000000
   11       18.283870     18.284380   0.000000   0.000000
   12       18.813327     18.813369   0.000000   0.000000
 
 -0.4166667E+00  0.8333333E-01  0.1354683E-16  0.1388889E-01
    1      -41.764664    -41.762191   1.000000   1.000000
    2      -41.715437    -41.712954   1.000000   1.000000
    3      -14.007559    -14.008103   1.000000   1.000000
    4       -1.408745     -1.408975   1.000000   1.000000
    5        0.613284      0.612823   1.000000   1.000000
    6        0.733929      0.733440   1.000000   1.000000
    7        9.599496      9.599112   0.000000   0.000000
    8       11.013956     11.014195   0.000000   0.000000
    9       13.264649     13.264623   0.000000   0.000000
   10       13.329555     13.329591   0.000000   0.000000
   11       18.084102     18.084156   0.000000   0.000000
   12       18.836842     18.837397   0.000000   0.000000
 
 -0.3333333E+00  0.8333333E-01  0.1223699E-14  0.1388889E-01
    1      -41.801938    -41.799473   1.000000   1.000000
    2      -41.681370    -41.678880   1.000000   1.000000
    3      -14.041534    -14.042064   1.000000   1.000000
    4       -1.090336     -1.090594   1.000000   1.000000
    5        0.626621      0.626157   1.000000   1.000000
    6        0.837995      0.837494   1.000000   1.000000
    7        8.762290      8.762042   0.000000   0.000000
    8       11.724336     11.724477   0.000000   0.000000
    9       13.369795     13.369934   0.000000   0.000000
   10       13.534290     13.534301   0.000000   0.000000
   11       17.122932     17.122967   0.000000   0.000000
   12       18.990604     18.990773   0.000000   0.000000
 
 -0.2500000E+00  0.8333333E-01 -0.4665229E-14  0.1388889E-01
    1      -41.836059    -41.833602   1.000000   1.000000
    2      -41.652234    -41.649738   1.000000   1.000000
    3      -14.093143    -14.093656   1.000000   1.000000
    4       -0.556096     -0.556404   1.000000   1.000000
    5        0.697208      0.696732   1.000000   1.000000
    6        0.960905      0.960389   1.000000   1.000000
    7        7.936559      7.936371   0.000000   0.000000
    8       12.332549     12.332695   0.000000   0.000000
    9       13.355364     13.355583   0.000000   0.000000
   10       13.799685     13.799800   0.000000   0.000000
   11       16.422766     16.422715   0.000000   0.000000
   12       18.968489     18.968689   0.000000   0.000000
 
 -0.1666667E+00  0.8333333E-01  0.5523424E-17  0.1388889E-01
    1      -41.864340    -41.861888   1.000000   1.000000
    2      -41.629511    -41.627011   1.000000   1.000000
    3      -14.147510    -14.148003   1.000000   1.000000
    4        0.084180      0.083803   1.000000   1.000000
    5        0.815580      0.815086   1.000000   1.000000
    6        1.071566      1.071036   1.000000   1.000000
    7        7.223755      7.223631   0.000000   0.000000
    8       12.737394     12.737561   0.000000   0.000000
    9       13.213412     13.213703   0.000000   0.000000
   10       13.672012     13.672245   0.000000   0.000000
   11       16.586619     16.586460   0.000000   0.000000
   12       19.022646     19.023669   0.000000   0.000000
 
 -0.8333333E-01  0.8333333E-01  0.1204128E-14  0.6944444E-02
    1      -41.884182    -41.881735   1.000000   1.000000
    2      -41.614347    -41.611844   1.000000   1.000000
    3      -14.190310    -14.190790   1.000000   1.000000
    4        0.650097      0.649646   1.000000   1.000000
    5        0.973734      0.973217   1.000000   1.000000
    6        1.137716      1.137175   1.000000   1.000000
    7        6.682117      6.682066   0.000000   0.000000
    8       12.916998     12.917232   0.000000   0.000000
    9       13.033141     13.033481   0.000000   0.000000
   10       13.276980     13.277241   0.000000   0.000000
   11       17.591833     17.591643   0.000000   0.000000
   12       19.200697     19.201011   0.000000   0.000000
 
  0.1666667E+00  0.1666667E+00 -0.4607516E-16  0.3472222E-02
    1      -41.870761    -41.868310   1.000000   1.000000
    2      -41.624080    -41.621579   1.000000   1.000000
    3      -14.158595    -14.159086   1.000000   1.000000
    4        0.548283      0.547871   1.000000   1.000000
    5        0.801381      0.800879   1.000000   1.000000
    6        0.801383      0.800887   1.000000   1.000000
    7        6.918004      6.917866   0.000000   0.000000
    8       13.150306     13.150422   0.000000   0.000000
    9       13.150333     13.150539   0.000000   0.000000
   10       13.640089     13.640550   0.000000   0.000000
   11       15.847820     15.847853   0.000000   0.000000
   12       21.516341     21.516283   0.000000   0.000000
 
  0.2500000E+00  0.1666667E+00  0.4708550E-14  0.1388889E-01
    1      -41.853198    -41.850744   1.000000   1.000000
    2      -41.637343    -41.634844   1.000000   1.000000
    3      -14.119780    -14.120285   1.000000   1.000000
    4        0.090822      0.090461   1.000000   1.000000
    5        0.646327      0.645840   1.000000   1.000000
    6        0.748202      0.747730   1.000000   1.000000
    7        7.210017      7.209808   0.000000   0.000000
    8       13.101051     13.101213   0.000000   0.000000
    9       13.296639     13.296694   0.000000   0.000000
   10       14.079719     14.080221   0.000000   0.000000
   11       15.331095     15.331137   0.000000   0.000000
   12       21.193045     21.195308   0.000000   0.000000
 
  0.3333333E+00  0.1666667E+00 -0.1234723E-14  0.1388889E-01
    1      -41.827862    -41.825402   1.000000   1.000000
    2      -41.657562    -41.655067   1.000000   1.000000
    3      -14.070645    -14.071167   1.000000   1.000000
    4       -0.484447     -0.484752   1.000000   1.000000
    5        0.527645      0.527172   1.000000   1.000000
    6        0.682690      0.682237   1.000000   1.000000
    7        7.670464      7.670188   0.000000   0.000000
    8       12.692494     12.692647   0.000000   0.000000
    9       13.400356     13.400351   0.000000   0.000000
   10       14.333848     14.334213   0.000000   0.000000
   11       15.636498     15.636669   0.000000   0.000000
   12       20.647009     20.646877   0.000000   0.000000
 
  0.4166667E+00  0.1666667E+00 -0.7319484E-16  0.1388889E-01
    1      -41.797155    -41.794689   1.000000   1.000000
    2      -41.683689    -41.681200   1.000000   1.000000
    3      -14.023984    -14.024523   1.000000   1.000000
    4       -0.972122     -0.972386   1.000000   1.000000
    5        0.472843      0.472376   1.000000   1.000000
    6        0.566488      0.566056   1.000000   1.000000
    7        8.268818      8.268484   0.000000   0.000000
    8       12.103140     12.103305   0.000000   0.000000
    9       13.427918     13.427867   0.000000   0.000000
   10       14.235812     14.236003   0.000000   0.000000
   11       16.551561     16.551875   0.000000   0.000000
   12       20.170967     20.170974   0.000000   0.000000
 
  0.5000000E+00  0.1666667E+00  0.4717900E-14  0.1388889E-01
    1      -41.763564    -41.761091   1.000000   1.000000
    2      -41.714459    -41.711975   1.000000   1.000000
    3      -13.993436    -13.993986   1.000000   1.000000
    4       -1.269064     -1.269306   1.000000   1.000000
    5        0.437234      0.436821   1.000000   1.000000
    6        0.492751      0.492285   1.000000   1.000000
    7        8.914850      8.914437   0.000000   0.000000
    8       11.456052     11.456256   0.000000   0.000000
    9       13.448540     13.448460   0.000000   0.000000
   10       14.063377     14.063495   0.000000   0.000000
   11       17.615414     17.615800   0.000000   0.000000
   12       19.433418     19.433481   0.000000   0.000000
 
 -0.4166667E+00  0.1666667E+00 -0.1138934E-14  0.1388889E-01
    1      -41.748194    -41.745718   1.000000   1.000000
    2      -41.729480    -41.726999   1.000000   1.000000
    3      -13.988720    -13.989272   1.000000   1.000000
    4       -1.322754     -1.322996   1.000000   1.000000
    5        0.336721      0.336317   1.000000   1.000000
    6        0.581894      0.581420   1.000000   1.000000
    7        9.330899      9.330371   0.000000   0.000000
    8       10.990327     10.990623   0.000000   0.000000
    9       13.568982     13.568892   0.000000   0.000000
   10       13.954715     13.954845   0.000000   0.000000
   11       18.298598     18.298703   0.000000   0.000000
   12       18.603777     18.604162   0.000000   0.000000
 
 -0.3333333E+00  0.1666667E+00  0.7121831E-16  0.1388889E-01
    1      -41.782531    -41.780062   1.000000   1.000000
    2      -41.697377    -41.694890   1.000000   1.000000
    3      -14.011429    -14.011973   1.000000   1.000000
    4       -1.131205     -1.131464   1.000000   1.000000
    5        0.299416      0.299011   1.000000   1.000000
    6        0.719994      0.719507   1.000000   1.000000
    7        9.033726      9.033309   0.000000   0.000000
    8       11.197515     11.197726   0.000000   0.000000
    9       13.875576     13.875488   0.000000   0.000000
   10       13.876261     13.876453   0.000000   0.000000
   11       16.963307     16.963436   0.000000   0.000000
   12       19.388045     19.388322   0.000000   0.000000
 
 -0.2500000E+00  0.1666667E+00  0.4739640E-14  0.1388889E-01
    1      -41.815091    -41.812629   1.000000   1.000000
    2      -41.669089    -41.666597   1.000000   1.000000
    3      -14.054229    -14.054758   1.000000   1.000000
    4       -0.748570     -0.748863   1.000000   1.000000
    5        0.353366      0.352948   1.000000   1.000000
    6        0.874349      0.873845   1.000000   1.000000
    7        8.371433      8.371140   0.000000   0.000000
    8       11.764307     11.764440   0.000000   0.000000
    9       13.719490     13.719746   0.000000   0.000000
   10       14.394182     14.394152   0.000000   0.000000
   11       15.711020     15.711114   0.000000   0.000000
   12       19.809422     19.809829   0.000000   0.000000
 
 -0.1666667E+00  0.1666667E+00 -0.1172383E-14  0.6944444E-02
    1      -41.843190    -41.840734   1.000000   1.000000
    2      -41.646121    -41.643625   1.000000   1.000000
    3      -14.104137    -14.104647   1.000000   1.000000
    4       -0.294076     -0.294411   1.000000   1.000000
    5        0.527552      0.527101   1.000000   1.000000
    6        1.004501      1.003981   1.000000   1.000000
    7        7.729733      7.729531   0.000000   0.000000
    8       12.324603     12.324724   0.000000   0.000000
    9       13.457319     13.457615   0.000000   0.000000
   10       14.390290     14.390542   0.000000   0.000000
   11       15.482988     15.482812   0.000000   0.000000
   12       19.625713     19.625915   0.000000   0.000000
 
  0.2500000E+00  0.2500000E+00 -0.3669685E-16  0.3472222E-02
    1      -41.841946    -41.839489   1.000000   1.000000
    2      -41.645252    -41.642755   1.000000   1.000000
    3      -14.091830    -14.092347   1.000000   1.000000
    4        0.121117      0.120788   1.000000   1.000000
    5        0.460122      0.459654   1.000000   1.000000
    6        0.460122      0.459666   1.000000   1.000000
    7        7.093863      7.093595   0.000000   0.000000
    8       13.478013     13.478010   0.000000   0.000000
    9       13.478045     13.478120   0.000000   0.000000
   10       14.463001     14.463650   0.000000   0.000000
   11       14.762901     14.763034   0.000000   0.000000
   12       22.878841     22.873343   0.000000   0.000000
 
  0.3333333E+00  0.2500000E+00  0.4694503E-14  0.1388889E-01
    1      -41.823534    -41.821073   1.000000   1.000000
    2      -41.659341    -41.656846   1.000000   1.000000
    3      -14.052734    -14.053264   1.000000   1.000000
    4       -0.247017     -0.247322   1.000000   1.000000
    5        0.315132      0.314678   1.000000   1.000000
    6        0.390920      0.390500   1.000000   1.000000
    7        7.147108      7.146788   0.000000   0.000000
    8       13.347310     13.347391   0.000000   0.000000
    9       13.648817     13.648757   0.000000   0.000000
   10       14.731129     14.731423   0.000000   0.000000
   11       15.126398     15.126961   0.000000   0.000000
   12       22.351482     22.350914   0.000000   0.000000
 
  0.4166667E+00  0.2500000E+00 -0.4776532E-14  0.1388889E-01
    1      -41.799610    -41.797144   1.000000   1.000000
    2      -41.679069    -41.676579   1.000000   1.000000
    3      -14.012103    -14.012649   1.000000   1.000000
    4       -0.672343     -0.672623   1.000000   1.000000
    5        0.244260      0.243814   1.000000   1.000000
    6        0.303293      0.302906   1.000000   1.000000
    7        7.442943      7.442579   0.000000   0.000000
    8       12.872682     12.872779   0.000000   0.000000
    9       13.750539     13.750433   0.000000   0.000000
   10       14.785570     14.785811   0.000000   0.000000
   11       16.038228     16.038845   0.000000   0.000000
   12       21.638798     21.637069   0.000000   0.000000
 
  0.5000000E+00  0.2500000E+00 -0.4793924E-16  0.1388889E-01
    1      -41.772385    -41.769913   1.000000   1.000000
    2      -41.703433    -41.700948   1.000000   1.000000
    3      -13.981453    -13.982009   1.000000   1.000000
    4       -0.983351     -0.983618   1.000000   1.000000
    5        0.160879      0.160522   1.000000   1.000000
    6        0.261654      0.261208   1.000000   1.000000
    7        7.953501      7.953098   0.000000   0.000000
    8       12.255348     12.255438   0.000000   0.000000
    9       13.805383     13.805245   0.000000   0.000000
   10       14.713145     14.713348   0.000000   0.000000
   11       17.040544     17.041233   0.000000   0.000000
   12       20.482862     20.482951   0.000000   0.000000
 
 -0.4166667E+00  0.2500000E+00  0.4779910E-14  0.1388889E-01
    1      -41.743916    -41.741439   1.000000   1.000000
    2      -41.731059    -41.728579   1.000000   1.000000
    3      -13.970217    -13.970777   1.000000   1.000000
    4       -1.120079     -1.120345   1.000000   1.000000
    5        0.028393      0.028056   1.000000   1.000000
    6        0.362955      0.362502   1.000000   1.000000
    7        8.550363      8.549906   0.000000   0.000000
    8       11.574629     11.574749   0.000000   0.000000
    9       13.888456     13.888297   0.000000   0.000000
   10       14.589976     14.590186   0.000000   0.000000
   11       18.041564     18.042266   0.000000   0.000000
   12       19.059195     19.059347   0.000000   0.000000
 
 -0.3333333E+00  0.2500000E+00 -0.4687630E-14  0.1388889E-01
    1      -41.760306    -41.757832   1.000000   1.000000
    2      -41.716143    -41.713660   1.000000   1.000000
    3      -13.982148    -13.982703   1.000000   1.000000
    4       -1.082015     -1.082289   1.000000   1.000000
    5       -0.021150     -0.021487   1.000000   1.000000
    6        0.526131      0.525663   1.000000   1.000000
    7        8.961213      8.960689   0.000000   0.000000
    8       11.101385     11.101596   0.000000   0.000000
    9       14.076410     14.076234   0.000000   0.000000
   10       14.416477     14.416726   0.000000   0.000000
   11       17.553854     17.554054   0.000000   0.000000
   12       18.983156     18.983758   0.000000   0.000000
 
 -0.2500000E+00  0.2500000E+00  0.8546866E-17  0.6944444E-02
    1      -41.789045    -41.786577   1.000000   1.000000
    2      -41.690692    -41.688203   1.000000   1.000000
    3      -14.013262    -14.013805   1.000000   1.000000
    4       -0.931021     -0.931305   1.000000   1.000000
    5        0.080549      0.080184   1.000000   1.000000
    6        0.713071      0.712585   1.000000   1.000000
    7        8.827886      8.827446   0.000000   0.000000
    8       11.229862     11.230053   0.000000   0.000000
    9       14.124768     14.125035   0.000000   0.000000
   10       14.382453     14.382266   0.000000   0.000000
   11       16.233610     16.233845   0.000000   0.000000
   12       19.729055     19.729510   0.000000   0.000000
 
  0.3333333E+00  0.3333333E+00 -0.5973443E-16  0.3472222E-02
    1      -41.813158    -41.810694   1.000000   1.000000
    2      -41.666365    -41.663872   1.000000   1.000000
    3      -14.025325    -14.025867   1.000000   1.000000
    4       -0.186052     -0.186313   1.000000   1.000000
    5        0.140986      0.140547   1.000000   1.000000
    6        0.140986      0.140563   1.000000   1.000000
    7        6.759800      6.759455   0.000000   0.000000
    8       13.885961     13.885849   0.000000   0.000000
    9       13.885997     13.885952   0.000000   0.000000
   10       14.733777     14.734014   0.000000   0.000000
   11       15.408881     15.409801   0.000000   0.000000
   12       21.761436     21.760681   0.000000   0.000000
 
  0.4166667E+00  0.3333333E+00  0.1104121E-14  0.1388889E-01
    1      -41.797681    -41.795214   1.000000   1.000000
    2      -41.678381    -41.675890   1.000000   1.000000
    3      -13.994885    -13.995438   1.000000   1.000000
    4       -0.412824     -0.413091   1.000000   1.000000
    5        0.044552      0.044123   1.000000   1.000000
    6        0.051195      0.050821   1.000000   1.000000
    7        6.702343      6.701975   0.000000   0.000000
    8       13.733084     13.733064   0.000000   0.000000
    9       14.044827     14.044671   0.000000   0.000000
   10       15.034197     15.034420   0.000000   0.000000
   11       15.980376     15.981381   0.000000   0.000000
   12       21.522452     21.521949   0.000000   0.000000
 
  0.5000000E+00  0.3333333E+00 -0.4776702E-14  0.1388889E-01
    1      -41.778852    -41.776381   1.000000   1.000000
    2      -41.694822    -41.692334   1.000000   1.000000
    3      -13.969883    -13.970446   1.000000   1.000000
    4       -0.651940     -0.652226   1.000000   1.000000
    5       -0.087493     -0.087810   1.000000   1.000000
    6        0.045050      0.044622   1.000000   1.000000
    7        7.030281      7.029887   0.000000   0.000000
    8       13.190344     13.190318   0.000000   0.000000
    9       14.115284     14.115098   0.000000   0.000000
   10       15.139542     15.139795   0.000000   0.000000
   11       16.718866     16.719888   0.000000   0.000000
   12       21.940768     21.940028   0.000000   0.000000
 
 -0.4166667E+00  0.3333333E+00  0.1174013E-16  0.1388889E-01
    1      -41.758111    -41.755636   1.000000   1.000000
    2      -41.714820    -41.712337   1.000000   1.000000
    3      -13.957716    -13.958282   1.000000   1.000000
    4       -0.825454     -0.825758   1.000000   1.000000
    5       -0.225960     -0.226235   1.000000   1.000000
    6        0.141920      0.141485   1.000000   1.000000
    7        7.648752      7.648331   0.000000   0.000000
    8       12.430011     12.429995   0.000000   0.000000
    9       14.130605     14.130402   0.000000   0.000000
   10       15.043284     15.043555   0.000000   0.000000
   11       17.492131     17.493114   0.000000   0.000000
   12       20.311733     20.311892   0.000000   0.000000
 
 -0.3333333E+00  0.3333333E+00  0.1189476E-14  0.6944444E-02
    1      -41.737077    -41.734598   1.000000   1.000000
    2      -41.736724    -41.734245   1.000000   1.000000
    3      -13.962074    -13.962637   1.000000   1.000000
    4       -0.966841     -0.967140   1.000000   1.000000
    5       -0.219859     -0.220143   1.000000   1.000000
    6        0.315246      0.314797   1.000000   1.000000
    7        8.380918      8.380453   0.000000   0.000000
    8       11.636280     11.636347   0.000000   0.000000
    9       14.125531     14.125326   0.000000   0.000000
   10       14.814176     14.814452   0.000000   0.000000
   11       18.264238     18.265082   0.000000   0.000000
   12       18.772098     18.772302   0.000000   0.000000
 
  0.4166667E+00  0.4166667E+00 -0.6656406E-16  0.3472222E-02
    1      -41.791827    -41.789359   1.000000   1.000000
    2      -41.681852    -41.679362   1.000000   1.000000