Automatically generated mesh
     237
Reciprocal lattice
    0.00000000000000    0.00000000000000    0.00000000000000             1
    0.07692307692308   -0.00000000000000    0.00000000000000             2
    0.15384615384615   -0.00000000000000    0.00000000000000             2
    0.23076923076923   -0.00000000000000    0.00000000000000             2
    0.30769230769231   -0.00000000000000    0.00000000000000             2
    0.38461538461539   -0.00000000000000    0.00000000000000             2
    0.46153846153846   -0.00000000000000    0.00000000000000             2
    0.00000000000000    0.08333333333334    0.00000000000000             2
    0.07692307692308    0.08333333333334    0.00000000000000             2
    0.15384615384615    0.08333333333334    0.00000000000000             2
    0.23076923076923    0.08333333333334    0.00000000000000             2
    0.30769230769231    0.08333333333334    0.00000000000000             2
    0.38461538461539    0.08333333333334    0.00000000000000             2
    0.46153846153846    0.08333333333334    0.00000000000000             2
   -0.46153846153846    0.08333333333334    0.00000000000000             2
   -0.38461538461539    0.08333333333334    0.00000000000000             2
   -0.30769230769231    0.08333333333334    0.00000000000000             2
   -0.23076923076923    0.08333333333334    0.00000000000000             2
   -0.15384615384615    0.08333333333334    0.00000000000000             2
   -0.07692307692308    0.08333333333334    0.00000000000000             2
    0.00000000000000    0.16666666666666    0.00000000000000             2
    0.07692307692308    0.16666666666666    0.00000000000000             2
    0.15384615384615    0.16666666666666    0.00000000000000             2
    0.23076923076923    0.16666666666666    0.00000000000000             2
    0.30769230769231    0.16666666666666    0.00000000000000             2
    0.38461538461539    0.16666666666666    0.00000000000000             2
    0.46153846153846    0.16666666666666    0.00000000000000             2
   -0.46153846153846    0.16666666666666    0.00000000000000             2
   -0.38461538461539    0.16666666666666    0.00000000000000             2
   -0.30769230769231    0.16666666666666    0.00000000000000             2
   -0.23076923076923    0.16666666666666    0.00000000000000             2
   -0.15384615384615    0.16666666666666    0.00000000000000             2
   -0.07692307692308    0.16666666666666    0.00000000000000             2
    0.00000000000000    0.25000000000000    0.00000000000000             2
    0.07692307692308    0.25000000000000    0.00000000000000             2
    0.15384615384615    0.25000000000000    0.00000000000000             2
    0.23076923076923    0.25000000000000    0.00000000000000             2
    0.30769230769231    0.25000000000000    0.00000000000000             2
    0.38461538461539    0.25000000000000    0.00000000000000             2
    0.46153846153846    0.25000000000000    0.00000000000000             2
   -0.46153846153846    0.25000000000000    0.00000000000000             2
   -0.38461538461539    0.25000000000000    0.00000000000000             2
   -0.30769230769231    0.25000000000000    0.00000000000000             2
   -0.23076923076923    0.25000000000000    0.00000000000000             2
   -0.15384615384615    0.25000000000000    0.00000000000000             2
   -0.07692307692308    0.25000000000000    0.00000000000000             2
    0.00000000000000    0.33333333333334    0.00000000000000             2
    0.07692307692308    0.33333333333334    0.00000000000000             2
    0.15384615384615    0.33333333333334    0.00000000000000             2
    0.23076923076923    0.33333333333334    0.00000000000000             2
    0.30769230769231    0.33333333333334    0.00000000000000             2
    0.38461538461539    0.33333333333334    0.00000000000000             2
    0.46153846153846    0.33333333333334    0.00000000000000             2
   -0.46153846153846    0.33333333333334    0.00000000000000             2
   -0.38461538461539    0.33333333333334    0.00000000000000             2
   -0.30769230769231    0.33333333333334    0.00000000000000             2
   -0.23076923076923    0.33333333333334    0.00000000000000             2
   -0.15384615384615    0.33333333333334    0.00000000000000             2
   -0.07692307692308    0.33333333333334    0.00000000000000             2
    0.00000000000000    0.41666666666666    0.00000000000000             2
    0.07692307692308    0.41666666666666    0.00000000000000             2
    0.15384615384615    0.41666666666666    0.00000000000000             2
    0.23076923076923    0.41666666666666    0.00000000000000             2
    0.30769230769231    0.41666666666666    0.00000000000000             2
    0.38461538461539    0.41666666666666    0.00000000000000             2
    0.46153846153846    0.41666666666666    0.00000000000000             2
   -0.46153846153846    0.41666666666666    0.00000000000000             2
   -0.38461538461539    0.41666666666666    0.00000000000000             2
   -0.30769230769231    0.41666666666666    0.00000000000000             2
   -0.23076923076923    0.41666666666666    0.00000000000000             2
   -0.15384615384615    0.41666666666666    0.00000000000000             2
   -0.07692307692308    0.41666666666666    0.00000000000000             2
    0.00000000000000    0.50000000000000    0.00000000000000             1
    0.07692307692308    0.50000000000000    0.00000000000000             2
    0.15384615384615    0.50000000000000    0.00000000000000             2
    0.23076923076923    0.50000000000000    0.00000000000000             2
    0.30769230769231    0.50000000000000    0.00000000000000             2
    0.38461538461539    0.50000000000000    0.00000000000000             2
    0.46153846153846    0.50000000000000    0.00000000000000             2
    0.00000000000000    0.00000000000000    0.25000000000000             2
    0.07692307692308   -0.00000000000000    0.25000000000000             4
    0.15384615384615   -0.00000000000000    0.25000000000000             4
    0.23076923076923   -0.00000000000000    0.25000000000000             4
    0.30769230769231   -0.00000000000000    0.25000000000000             4
    0.38461538461539   -0.00000000000000    0.25000000000000             4
    0.46153846153846   -0.00000000000000    0.25000000000000             4
    0.00000000000000    0.08333333333334    0.25000000000000             4
    0.07692307692308    0.08333333333334    0.25000000000000             4
    0.15384615384615    0.08333333333334    0.25000000000000             4
    0.23076923076923    0.08333333333334    0.25000000000000             4
    0.30769230769231    0.08333333333334    0.25000000000000             4
    0.38461538461539    0.08333333333334    0.25000000000000             4
    0.46153846153846    0.08333333333334    0.25000000000000             4
   -0.46153846153846    0.08333333333334    0.25000000000000             4
   -0.38461538461539    0.08333333333334    0.25000000000000             4
   -0.30769230769231    0.08333333333334    0.25000000000000             4
   -0.23076923076923    0.08333333333334    0.25000000000000             4
   -0.15384615384615    0.08333333333334    0.25000000000000             4
   -0.07692307692308    0.08333333333334    0.25000000000000             4
    0.00000000000000    0.16666666666666    0.25000000000000             4
    0.07692307692308    0.16666666666666    0.25000000000000             4
    0.15384615384615    0.16666666666666    0.25000000000000             4
    0.23076923076923    0.16666666666666    0.25000000000000             4
    0.30769230769231    0.16666666666666    0.25000000000000             4
    0.38461538461539    0.16666666666666    0.25000000000000             4
    0.46153846153846    0.16666666666666    0.25000000000000             4
   -0.46153846153846    0.16666666666666    0.25000000000000             4
   -0.38461538461539    0.16666666666666    0.25000000000000             4
   -0.30769230769231    0.16666666666666    0.25000000000000             4
   -0.23076923076923    0.16666666666666    0.25000000000000             4
   -0.15384615384615    0.16666666666666    0.25000000000000             4
   -0.07692307692308    0.16666666666666    0.25000000000000             4
    0.00000000000000    0.25000000000000    0.25000000000000             4
    0.07692307692308    0.25000000000000    0.25000000000000             4
    0.15384615384615    0.25000000000000    0.25000000000000             4
    0.23076923076923    0.25000000000000    0.25000000000000             4
    0.30769230769231    0.25000000000000    0.25000000000000             4
    0.38461538461539    0.25000000000000    0.25000000000000             4
    0.46153846153846    0.25000000000000    0.25000000000000             4
   -0.46153846153846    0.25000000000000    0.25000000000000             4
   -0.38461538461539    0.25000000000000    0.25000000000000             4
   -0.30769230769231    0.25000000000000    0.25000000000000             4
   -0.23076923076923    0.25000000000000    0.25000000000000             4
   -0.15384615384615    0.25000000000000    0.25000000000000             4
   -0.07692307692308    0.25000000000000    0.25000000000000             4
    0.00000000000000    0.33333333333334    0.25000000000000             4
    0.07692307692308    0.33333333333334    0.25000000000000             4
    0.15384615384615    0.33333333333334    0.25000000000000             4
    0.23076923076923    0.33333333333334    0.25000000000000             4
    0.30769230769231    0.33333333333334    0.25000000000000             4
    0.38461538461539    0.33333333333334    0.25000000000000             4
    0.46153846153846    0.33333333333334    0.25000000000000             4
   -0.46153846153846    0.33333333333334    0.25000000000000             4
   -0.38461538461539    0.33333333333334    0.25000000000000             4
   -0.30769230769231    0.33333333333334    0.25000000000000             4
   -0.23076923076923    0.33333333333334    0.25000000000000             4
   -0.15384615384615    0.33333333333334    0.25000000000000             4
   -0.07692307692308    0.33333333333334    0.25000000000000             4
    0.00000000000000    0.41666666666666    0.25000000000000             4
    0.07692307692308    0.41666666666666    0.25000000000000             4
    0.15384615384615    0.41666666666666    0.25000000000000             4
    0.23076923076923    0.41666666666666    0.25000000000000             4
    0.30769230769231    0.41666666666666    0.25000000000000             4
    0.38461538461539    0.41666666666666    0.25000000000000             4
    0.46153846153846    0.41666666666666    0.25000000000000             4
   -0.46153846153846    0.41666666666666    0.25000000000000             4
   -0.38461538461539    0.41666666666666    0.25000000000000             4
   -0.30769230769231    0.41666666666666    0.25000000000000             4
   -0.23076923076923    0.41666666666666    0.25000000000000             4
   -0.15384615384615    0.41666666666666    0.25000000000000             4
   -0.07692307692308    0.41666666666666    0.25000000000000             4
    0.00000000000000    0.50000000000000    0.25000000000000             2
    0.07692307692308    0.50000000000000    0.25000000000000             4
    0.15384615384615    0.50000000000000    0.25000000000000             4
    0.23076923076923    0.50000000000000    0.25000000000000             4
    0.30769230769231    0.50000000000000    0.25000000000000             4
    0.38461538461539    0.50000000000000    0.25000000000000             4
    0.46153846153846    0.50000000000000    0.25000000000000             4
    0.00000000000000    0.00000000000000    0.50000000000000             1
    0.07692307692308   -0.00000000000000    0.50000000000000             2
    0.15384615384615   -0.00000000000000    0.50000000000000             2
    0.23076923076923   -0.00000000000000    0.50000000000000             2
    0.30769230769231   -0.00000000000000    0.50000000000000             2
    0.38461538461539   -0.00000000000000    0.50000000000000             2
    0.46153846153846   -0.00000000000000    0.50000000000000             2
    0.00000000000000    0.08333333333334    0.50000000000000             2
    0.07692307692308    0.08333333333334    0.50000000000000             2
    0.15384615384615    0.08333333333334    0.50000000000000             2
    0.23076923076923    0.08333333333334    0.50000000000000             2
    0.30769230769231    0.08333333333334    0.50000000000000             2
    0.38461538461539    0.08333333333334    0.50000000000000             2
    0.46153846153846    0.08333333333334    0.50000000000000             2
   -0.46153846153846    0.08333333333334    0.50000000000000             2
   -0.38461538461539    0.08333333333334    0.50000000000000             2
   -0.30769230769231    0.08333333333334    0.50000000000000             2
   -0.23076923076923    0.08333333333334    0.50000000000000             2
   -0.15384615384615    0.08333333333334    0.50000000000000             2
   -0.07692307692308    0.08333333333334    0.50000000000000             2
    0.00000000000000    0.16666666666666    0.50000000000000             2
    0.07692307692308    0.16666666666666    0.50000000000000             2
    0.15384615384615    0.16666666666666    0.50000000000000             2
    0.23076923076923    0.16666666666666    0.50000000000000             2
    0.30769230769231    0.16666666666666    0.50000000000000             2
    0.38461538461539    0.16666666666666    0.50000000000000             2
    0.46153846153846    0.16666666666666    0.50000000000000             2
   -0.46153846153846    0.16666666666666    0.50000000000000             2
   -0.38461538461539    0.16666666666666    0.50000000000000             2
   -0.30769230769231    0.16666666666666    0.50000000000000             2
   -0.23076923076923    0.16666666666666    0.50000000000000             2
   -0.15384615384615    0.16666666666666    0.50000000000000             2
   -0.07692307692308    0.16666666666666    0.50000000000000             2
    0.00000000000000    0.25000000000000    0.50000000000000             2
    0.07692307692308    0.25000000000000    0.50000000000000             2
    0.15384615384615    0.25000000000000    0.50000000000000             2
    0.23076923076923    0.25000000000000    0.50000000000000             2
    0.30769230769231    0.25000000000000    0.50000000000000             2
    0.38461538461539    0.25000000000000    0.50000000000000             2
    0.46153846153846    0.25000000000000    0.50000000000000             2
   -0.46153846153846    0.25000000000000    0.50000000000000             2
   -0.38461538461539    0.25000000000000    0.50000000000000             2
   -0.30769230769231    0.25000000000000    0.50000000000000             2
   -0.23076923076923    0.25000000000000    0.50000000000000             2
   -0.15384615384615    0.25000000000000    0.50000000000000             2
   -0.07692307692308    0.25000000000000    0.50000000000000             2
    0.00000000000000    0.33333333333334    0.50000000000000             2
    0.07692307692308    0.33333333333334    0.50000000000000             2
    0.15384615384615    0.33333333333334    0.50000000000000             2
    0.23076923076923    0.33333333333334    0.50000000000000             2
    0.30769230769231    0.33333333333334    0.50000000000000             2
    0.38461538461539    0.33333333333334    0.50000000000000             2
    0.46153846153846    0.33333333333334    0.50000000000000             2
   -0.46153846153846    0.33333333333334    0.50000000000000             2
   -0.38461538461539    0.33333333333334    0.50000000000000             2
   -0.30769230769231    0.33333333333334    0.50000000000000             2
   -0.23076923076923    0.33333333333334    0.50000000000000             2
   -0.15384615384615    0.33333333333334    0.50000000000000             2
   -0.07692307692308    0.33333333333334    0.50000000000000             2
    0.00000000000000    0.41666666666666    0.50000000000000             2
    0.07692307692308    0.41666666666666    0.50000000000000             2
    0.15384615384615    0.41666666666666    0.50000000000000             2
    0.23076923076923    0.41666666666666    0.50000000000000             2
    0.30769230769231    0.41666666666666    0.50000000000000             2
    0.38461538461539    0.41666666666666    0.50000000000000             2
    0.46153846153846    0.41666666666666    0.50000000000000             2
   -0.46153846153846    0.41666666666666    0.50000000000000             2
   -0.38461538461539    0.41666666666666    0.50000000000000             2
   -0.30769230769231    0.41666666666666    0.50000000000000             2
   -0.23076923076923    0.41666666666666    0.50000000000000             2
   -0.15384615384615    0.41666666666666    0.50000000000000             2
   -0.07692307692308    0.41666666666666    0.50000000000000             2
    0.00000000000000    0.50000000000000    0.50000000000000             1
    0.07692307692308    0.50000000000000    0.50000000000000             2
    0.15384615384615    0.50000000000000    0.50000000000000             2
    0.23076923076923    0.50000000000000    0.50000000000000             2
    0.30769230769231    0.50000000000000    0.50000000000000             2
    0.38461538461539    0.50000000000000    0.50000000000000             2
    0.46153846153846    0.50000000000000    0.50000000000000             2
Tetrahedra
      1872    0.00026709401709
         2         2         8         9        87
         2         1         2         8        87
         2         1         2        80        87
         2         2         9        87        88
         2         2        81        87        88
         2         2        80        81        87
         2         3         9        10        88
         2         2         3         9        88
         2         2         3        81        88
         2         3        10        88        89
         2         3        82        88        89
         2         3        81        82        88
         2         4        10        11        89
         2         3         4        10        89
         2         3         4        82        89
         2         4        11        89        90
         2         4        83        89        90
         2         4        82        83        89
         2         5        11        12        90
         2         4         5        11        90
         2         4         5        83        90
         2         5        12        90        91
         2         5        84        90        91
         2         5        83        84        90
         2         6        12        13        91
         2         5         6        12        91
         2         5         6        84        91
         2         6        13        91        92
         2         6        85        91        92
         2         6        84        85        91
         2         7        13        14        92
         2         6         7        13        92
         2         6         7        85        92
         2         7        14        92        93
         2         7        86        92        93
         2         7        85        86        92
         2         7        14        15        93
         2         7         7        14        93
         2         7         7        86        93
         2         7        15        93        94
         2         7        86        93        94
         2         7        86        86        93
         2         6        15        16        94
         2         6         7        15        94
         2         6         7        86        94
         2         6        16        94        95
         2         6        85        94        95
         2         6        85        86        94
         2         5        16        17        95
         2         5         6        16        95
         2         5         6        85        95
         2         5        17        95        96
         2         5        84        95        96
         2         5        84        85        95
         2         4        17        18        96
         2         4         5        17        96
         2         4         5        84        96
         2         4        18        96        97
         2         4        83        96        97
         2         4        83        84        96
         2         3        18        19        97
         2         3         4        18        97
         2         3         4        83        97
         2         3        19        97        98
         2         3        82        97        98
         2         3        82        83        97
         2         2        19        20        98
         2         2         3        19        98
         2         2         3        82        98
         2         2        20        98        99
         2         2        81        98        99
         2         2        81        82        98
         2         1         8        20        99
         2         1         2        20        99
         2         1         2        81        99
         2         1         8        87        99
         2         1        80        87        99
         2         1        80        81        99
         2         9        21        22       100
         2         8         9        21       100
         2         8         9        87       100
         2         9        22       100       101
         2         9        88       100       101
         2         9        87        88       100
         2        10        22        23       101
         2         9        10        22       101
         2         9        10        88       101
         2        10        23       101       102
         2        10        89       101       102
         2        10        88        89       101
         2        11        23        24       102
         2        10        11        23       102
         2        10        11        89       102
         2        11        24       102       103
         2        11        90       102       103
         2        11        89        90       102
         2        12        24        25       103
         2        11        12        24       103
         2        11        12        90       103
         2        12        25       103       104
         2        12        91       103       104
         2        12        90        91       103
         2        13        25        26       104
         2        12        13        25       104
         2        12        13        91       104
         2        13        26       104       105
         2        13        92       104       105
         2        13        91        92       104
         2        14        26        27       105
         2        13        14        26       105
         2        13        14        92       105
         2        14        27       105       106
         2        14        93       105       106
         2        14        92        93       105
         2        15        27        28       106
         2        14        15        27       106
         2        14        15        93       106
         2        15        28       106       107
         2        15        94       106       107
         2        15        93        94       106
         2        16        28        29       107
         2        15        16        28       107
         2        15        16        94       107
         2        16        29       107       108
         2        16        95       107       108
         2        16        94        95       107
         2        17        29        30       108
         2        16        17        29       108
         2        16        17        95       108
         2        17        30       108       109
         2        17        96       108       109
         2        17        95        96       108
         2        18        30        31       109
         2        17        18        30       109
         2        17        18        96       109
         2        18        31       109       110
         2        18        97       109       110
         2        18        96        97       109
         2        19        31        32       110
         2        18        19        31       110
         2        18        19        97       110
         2        19        32       110       111
         2        19        98       110       111
         2        19        97        98       110
         2        20        32        33       111
         2        19        20        32       111
         2        19        20        98       111
         2        20        33       111       112
         2        20        99       111       112
         2        20        98        99       111
         2         8        21        33       112
         2         8        20        33       112
         2         8        20        99       112
         2         8        21       100       112
         2         8        87       100       112
         2         8        87        99       112
         2        22        34        35       113
         2        21        22        34       113
         2        21        22       100       113
         2        22        35       113       114
         2        22       101       113       114
         2        22       100       101       113
         2        23        35        36       114
         2        22        23        35       114
         2        22        23       101       114
         2        23        36       114       115
         2        23       102       114       115
         2        23       101       102       114
         2        24        36        37       115
         2        23        24        36       115
         2        23        24       102       115
         2        24        37       115       116
         2        24       103       115       116
         2        24       102       103       115
         2        25        37        38       116
         2        24        25        37       116
         2        24        25       103       116
         2        25        38       116       117
         2        25       104       116       117
         2        25       103       104       116
         2        26        38        39       117
         2        25        26        38       117
         2        25        26       104       117
         2        26        39       117       118
         2        26       105       117       118
         2        26       104       105       117
         2        27        39        40       118
         2        26        27        39       118
         2        26        27       105       118
         2        27        40       118       119
         2        27       106       118       119
         2        27       105       106       118
         2        28        40        41       119
         2        27        28        40       119
         2        27        28       106       119
         2        28        41       119       120
         2        28       107       119       120
         2        28       106       107       119
         2        29        41        42       120
         2        28        29        41       120
         2        28        29       107       120
         2        29        42       120       121
         2        29       108       120       121
         2        29       107       108       120
         2        30        42        43       121
         2        29        30        42       121
         2        29        30       108       121
         2        30        43       121       122
         2        30       109       121       122
         2        30       108       109       121
         2        31        43        44       122
         2        30        31        43       122
         2        30        31       109       122
         2        31        44       122       123
         2        31       110       122       123
         2        31       109       110       122
         2        32        44        45       123
         2        31        32        44       123
         2        31        32       110       123
         2        32        45       123       124
         2        32       111       123       124
         2        32       110       111       123
         2        33        45        46       124
         2        32        33        45       124
         2        32        33       111       124
         2        33        46       124       125
         2        33       112       124       125
         2        33       111       112       124
         2        21        34        46       125
         2        21        33        46       125
         2        21        33       112       125
         2        21        34       113       125
         2        21       100       113       125
         2        21       100       112       125
         2        35        47        48       126
         2        34        35        47       126
         2        34        35       113       126