       N       E                     dE             d eps       ncg     rms          rms(c)
DAV:   1     0.258740000670E+03    0.25874E+03   -0.17858E+04 24648   0.149E+03
DAV:   2    -0.151183473901E+02   -0.27386E+03   -0.26476E+03 29698   0.375E+02
DAV:   3    -0.376926989843E+02   -0.22574E+02   -0.22427E+02 42184   0.890E+01
DAV:   4    -0.390667322626E+02   -0.13740E+01   -0.13710E+01 34528   0.209E+01
DAV:   5    -0.391071219846E+02   -0.40390E-01   -0.40387E-01 35784   0.297E+00    0.179E+01
RMM:   6    -0.379353608043E+02    0.11718E+01   -0.49533E+00 27133   0.121E+01    0.793E+00
RMM:   7    -0.385618331350E+02   -0.62647E+00   -0.87922E-01 31104   0.594E+00    0.395E+00
RMM:   8    -0.386409117471E+02   -0.79079E-01   -0.40164E-01 37372   0.368E+00    0.157E+00
RMM:   9    -0.386511351140E+02   -0.10223E-01   -0.14235E-01 39638   0.234E+00    0.409E-01
RMM:  10    -0.386624658830E+02   -0.11331E-01   -0.75674E-02 44001   0.139E+00    0.208E-01
RMM:  11    -0.386668541231E+02   -0.43882E-02   -0.28680E-02 45230   0.814E-01    0.157E-01
RMM:  12    -0.386684912514E+02   -0.16371E-02   -0.12680E-02 46696   0.490E-01    0.117E-01
RMM:  13    -0.386689212180E+02   -0.42997E-03   -0.43146E-03 44060   0.349E-01    0.572E-02
RMM:  14    -0.386692866525E+02   -0.36543E-03   -0.24859E-03 44338   0.248E-01    0.108E-02
RMM:  15    -0.386694216186E+02   -0.13497E-03   -0.12219E-03 42663   0.146E-01    0.112E-02
RMM:  16    -0.386694738875E+02   -0.52269E-04   -0.49250E-04 41418   0.944E-02    0.102E-02
RMM:  17    -0.386694894746E+02   -0.15587E-04   -0.18697E-04 40238   0.651E-02    0.458E-03
RMM:  18    -0.386694965497E+02   -0.70751E-05   -0.72867E-05 32300   0.450E-02
   1 F= -.38669497E+02 E0= -.38669497E+02  d E =0.000000E+00  mag=    -0.0000
