Automatically generated mesh
      40
Reciprocal lattice
    0.00000000000000    0.00000000000000    0.00000000000000             1
    0.16666666666666    0.00000000000000    0.00000000000000             2
    0.33333333333334    0.00000000000000    0.00000000000000             2
    0.50000000000000    0.00000000000000    0.00000000000000             1
    0.00000000000000    0.16666666666666   -0.00000000000000             2
    0.16666666666666    0.16666666666666   -0.00000000000000             4
    0.33333333333334    0.16666666666666   -0.00000000000000             4
    0.50000000000000    0.16666666666666   -0.00000000000000             2
    0.00000000000000    0.33333333333334   -0.00000000000000             2
    0.16666666666666    0.33333333333334   -0.00000000000000             4
    0.33333333333334    0.33333333333334   -0.00000000000000             4
    0.50000000000000    0.33333333333334   -0.00000000000000             2
    0.00000000000000    0.50000000000000    0.00000000000000             1
    0.16666666666666    0.50000000000000    0.00000000000000             2
    0.33333333333334    0.50000000000000    0.00000000000000             2
    0.50000000000000    0.50000000000000    0.00000000000000             1
    0.00000000000000   -0.00000000000000    0.33333333333333             2
    0.16666666666666   -0.00000000000000    0.33333333333333             4
    0.33333333333334   -0.00000000000000    0.33333333333333             4
    0.50000000000000   -0.00000000000000    0.33333333333333             2
    0.00000000000000    0.16666666666666    0.33333333333333             2
    0.16666666666666    0.16666666666666    0.33333333333333             4
    0.33333333333334    0.16666666666666    0.33333333333333             4
    0.50000000000000    0.16666666666666    0.33333333333333             2
    0.00000000000000    0.33333333333334    0.33333333333333             2
    0.16666666666666    0.33333333333334    0.33333333333333             4
    0.33333333333334    0.33333333333334    0.33333333333333             4
    0.50000000000000    0.33333333333334    0.33333333333333             2
    0.00000000000000    0.50000000000000    0.33333333333333             2
    0.16666666666666    0.50000000000000    0.33333333333333             4
    0.33333333333334    0.50000000000000    0.33333333333333             4
    0.50000000000000    0.50000000000000    0.33333333333333             2
    0.00000000000000   -0.33333333333334    0.33333333333333             2
    0.16666666666666   -0.33333333333334    0.33333333333333             4
    0.33333333333334   -0.33333333333334    0.33333333333333             4
    0.50000000000000   -0.33333333333334    0.33333333333333             2
    0.00000000000000   -0.16666666666666    0.33333333333333             2
    0.16666666666666   -0.16666666666666    0.33333333333333             4
    0.33333333333334   -0.16666666666666    0.33333333333333             4
    0.50000000000000   -0.16666666666666    0.33333333333333             2
Tetrahedra
       324    0.00154320987654
         2         2         5         6        21
         2         1         2         5        21
         2         1         2        17        21
         2         2         6        21        22
         2         2        18        21        22
         2         2        17        18        21
         2         3         6         7        22
         2         2         3         6        22
         2         2         3        18        22
         2         3         7        22        23
         2         3        19        22        23
         2         3        18        19        22
         2         4         7         8        23
         2         3         4         7        23
         2         3         4        19        23
         2         4         8        23        24
         2         4        20        23        24
         2         4        19        20        23
         2         3         7         8        24
         2         3         4         8        24
         2         3         4        20        24
         2         3         7        23        24
         2         3        19        23        24
         2         3        19        20        24
         2         2         6         7        23
         2         2         3         7        23
         2         2         3        19        23
         2         2         6        22        23
         2         2        18        22        23
         2         2        18        19        23
         2         1         5         6        22
         2         1         2         6        22
         2         1         2        18        22
         2         1         5        21        22
         2         1        17        21        22
         2         1        17        18        22
         2         6         9        10        25
         2         5         6         9        25
         2         5         6        21        25
         2         6        10        25        26
         2         6        22        25        26
         2         6        21        22        25
         2         7        10        11        26
         2         6         7        10        26
         2         6         7        22        26
         2         7        11        26        27
         2         7        23        26        27
         2         7        22        23        26
         2         8        11        12        27
         2         7         8        11        27
         2         7         8        23        27
         2         8        12        27        28
         2         8        24        27        28
         2         8        23        24        27
         2         7        11        12        28
         2         7         8        12        28
         2         7         8        24        28
         2         7        11        27        28
         2         7        23        27        28
         2         7        23        24        28
         2         6        10        11        27
         2         6         7        11        27
         2         6         7        23        27
         2         6        10        26        27
         2         6        22        26        27
         2         6        22        23        27
         2         5         9        10        26
         2         5         6        10        26
         2         5         6        22        26
         2         5         9        25        26
         2         5        21        25        26
         2         5        21        22        26
         2        10        13        14        29
         2         9        10        13        29
         2         9        10        25        29
         2        10        14        29        30
         2        10        26        29        30
         2        10        25        26        29
         2        11        14        15        30
         2        10        11        14        30
         2        10        11        26        30
         2        11        15        30        31
         2        11        27        30        31
         2        11        26        27        30
         2        12        15        16        31
         2        11        12        15        31
         2        11        12        27        31
         2        12        16        31        32
         2        12        28        31        32
         2        12        27        28        31
         2        11        15        16        32
         2        11        12        16        32
         2        11        12        28        32
         2        11        15        31        32
         2        11        27        31        32
         2        11        27        28        32
         2        10        14        15        31
         2        10        11        15        31
         2        10        11        27        31
         2        10        14        30        31
         2        10        26        30        31
         2        10        26        27        31
         2         9        13        14        30
         2         9        10        14        30
         2         9        10        26        30
         2         9        13        29        30
         2         9        25        29        30
         2         9        25        26        30
         2         9        10        14        33
         2         9        13        14        33
         2        13        14        29        33
         2        10        14        33        34
         2        14        30        33        34
         2        14        29        30        33
         2        10        11        15        34
         2        10        14        15        34
         2        14        15        30        34
         2        11        15        34        35
         2        15        31        34        35
         2        15        30        31        34
         2        11        12        16        35
         2        11        15        16        35
         2        15        16        31        35
         2        12        16        35        36
         2        16        32        35        36
         2        16        31        32        35
         2        11        12        15        36
         2        12        15        16        36
         2        15        16        32        36
         2        11        15        35        36
         2        15        31        35        36
         2        15        31        32        36
         2        10        11        14        35
         2        11        14        15        35
         2        14        15        31        35
         2        10        14        34        35
         2        14        30        34        35
         2        14        30        31        35
         2         9        10        13        34
         2        10        13        14        34
         2        13        14        30        34
         2         9        13        33        34
         2        13        29        33        34
         2        13        29        30        34
         2         5         6        10        37
         2         5         9        10        37
         2         9        10        33        37
         2         6        10        37        38
         2        10        34        37        38
         2        10        33        34        37
         2         6         7        11        38
         2         6        10        11        38
         2        10        11        34        38
         2         7        11        38        39
         2        11        35        38        39
         2        11        34        35        38
         2         7         8        12        39
         2         7        11        12        39
         2        11        12        35        39
         2         8        12        39        40
         2        12        36        39        40
         2        12        35        36        39
         2         7         8        11        40
         2         8        11        12        40
         2        11        12        36        40
         2         7        11        39        40
         2        11        35        39        40
         2        11        35        36        40
         2         6         7        10        39
         2         7        10        11        39
         2        10        11        35        39
         2         6        10        38        39
         2        10        34        38        39
         2        10        34        35        39
         2         5         6         9        38
         2         6         9        10        38
         2         9        10        34        38
         2         5         9        37        38
         2         9        33        37        38
         2         9        33        34        38
         2         1         2         6        17
         2         1         5         6        17
         2         5         6        17        37
         2         2         6        17        18
         2         6        17        18        38
         2         6        17        37        38
         2         2         3         7        18
         2         2         6         7        18
         2         6         7        18        38
         2         3         7        18        19
         2         7        18        19        39
         2         7        18        38        39
         2         3         4         8        19
         2         3         7         8        19
         2         7         8        19        39
         2         4         8        19        20
         2         8        19        20        40
         2         8        19        39        40
         2         3         4         7        20
         2         4         7         8        20
         2         7         8        20        40
         2         3         7        19        20
         2         7        19        20        39
         2         7        20        39        40
         2         2         3         6        19
         2         3         6         7        19
         2         6         7        19        39
         2         2         6        18        19
         2         6        18        19        38
         2         6        19        38        39
         2         1         2         5        18
         2         2         5         6        18
         2         5         6        18        38
         2         1         5        17        18
         2         5        17        18        37
         2         5        18        37        38
         2        18        21        22        37
         2        17        18        21        37
         2        17        17        18        37
         2        18        22        37        38
         2        18        18        37        38
         2        17        18        18        37
         2        19        22        23        38
         2        18        19        22        38
         2        18        18        19        38
         2        19        23        38        39
         2        19        19        38        39
         2        18        19        19        38
         2        20        23        24        39
         2        19        20        23        39
         2        19        19        20        39
         2        20        24        39        40
         2        20        20        39        40
         2        19        20        20        39
         2        19        23        24        40
         2        19        20        24        40
         2        19        20        20        40
         2        19        23        39        40
         2        19        19        39        40
         2        19        19        20        40
         2        18        22        23        39
         2        18        19        23        39
         2        18        19        19        39
         2        18        22        38        39
         2        18        18        38        39
         2        18        18        19        39
         2        17        21        22        38
         2        17        18        22        38
         2        17        18        18        38
         2        17        21        37        38
         2        17        17        37        38
         2        17        17        18        38
         2        22        25        26        33
         2        21        22        25        33
         2        21        22        33        37
         2        22        26        33        34
         2        22        33        34        38
         2        22        33        37        38
         2        23        26        27        34
         2        22        23        26        34
         2        22        23        34        38
         2        23        27        34        35
         2        23        34        35        39
         2        23        34        38        39
         2        24        27        28        35
         2        23        24        27        35
         2        23        24        35        39
         2        24        28        35        36
         2        24        35        36        40
         2        24        35        39        40
         2        23        27        28        36
         2        23        24        28        36
         2        23        24        36        40
         2        23        27        35        36
         2        23        35        36        39
         2        23        36        39        40
         2        22        26        27        35
         2        22        23        27        35
         2        22        23        35        39
         2        22        26        34        35
         2        22        34        35        38
         2        22        35        38        39
         2        21        25        26        34
         2        21        22        26        34
         2        21        22        34        38
         2        21        25        33        34
         2        21        33        34        37
         2        21        34        37        38
         2        26        29        29        30
         2        25        26        29        29
         2        25        26        29        33
         2        26        29        30        30
         2        26        29        30        34
         2        26        29        33        34
         2        27        30        30        31
         2        26        27        30        30
         2        26        27        30        34
         2        27        30        31        31
         2        27        30        31        35
         2        27        30        34        35
         2        28        31        31        32
         2        27        28        31        31
         2        27        28        31        35
         2        28        31        32        32
         2        28        31        32        36
         2        28        31        35        36
         2        27        31        32        32
         2        27        28        32        32
         2        27        28        32        36
         2        27        31        31        32
         2        27        31        32        35
         2        27        32        35        36
         2        26        30        31        31
         2        26        27        31        31
         2        26        27        31        35
         2        26        30        30        31
         2        26        30        31        34
         2        26        31        34        35
         2        25        29        30        30
         2        25        26        30        30
         2        25        26        30        34
         2        25        29        29        30
         2        25        29        30        33
         2        25        30        33        34
