       N       E                     dE             d eps       ncg     rms          rms(c)
DAV:   1     0.386449667555E+03    0.38645E+03   -0.25438E+04  7680   0.129E+03
DAV:   2    -0.421612121880E+01   -0.39067E+03   -0.35740E+03  8624   0.307E+02
DAV:   3    -0.556291886690E+02   -0.51413E+02   -0.50777E+02 11048   0.869E+01
DAV:   4    -0.630089420929E+02   -0.73798E+01   -0.73058E+01 13896   0.325E+01
DAV:   5    -0.638547397530E+02   -0.84580E+00   -0.84550E+00 10984   0.750E+00    0.201E+01
DAV:   6    -0.651518546285E+02   -0.12971E+01   -0.27269E+00 10304   0.615E+00    0.106E+01
DAV:   7    -0.664199852632E+02   -0.12681E+01   -0.68481E-01  9480   0.393E+00    0.531E+00
DAV:   8    -0.666976786296E+02   -0.27769E+00   -0.60606E-01  9872   0.285E+00    0.120E+00
DAV:   9    -0.667260316903E+02   -0.28353E-01   -0.82605E-02 11472   0.110E+00    0.446E-01
DAV:  10    -0.667289834593E+02   -0.29518E-02   -0.69930E-03  9888   0.388E-01    0.196E-01
DAV:  11    -0.667302471475E+02   -0.12637E-02   -0.15922E-03  9776   0.202E-01    0.100E-01
DAV:  12    -0.667305699524E+02   -0.32280E-03   -0.60783E-04  9784   0.952E-02    0.422E-02
DAV:  13    -0.667306253833E+02   -0.55431E-04   -0.10560E-04  8712   0.527E-02    0.202E-02
DAV:  14    -0.667306431572E+02   -0.17774E-04   -0.39020E-05  8056   0.309E-02    0.587E-03
DAV:  15    -0.667306450990E+02   -0.19418E-05   -0.51892E-06  5640   0.136E-02
   1 F= -.66730645E+02 E0= -.66730645E+02  d E =0.000000E+00  mag=    -0.0003
