 running on   24 total cores
 distrk:  each k-point on   24 cores,    1 groups
 distr:  one band on    6 cores,    4 groups
 using from now: INCAR     
 vasp.6.1.2 22Jul20 (build Mar 31 2021 18:09:49) complex                        
  
 POSCAR found type information on POSCAR LiO 
 POSCAR found :  2 types and       8 ions
 scaLAPACK will be used
 -----------------------------------------------------------------------------
|                                                                             |
|               ----> ADVICE to this user running VASP <----                  |
|                                                                             |
|     You have a (more or less) 'small supercell' and for smaller cells       |
|     it is recommended to use the reciprocal-space projection scheme!        |
|     The real-space optimization is not efficient for small cells and it     |
|     is also less accurate ...                                               |
|     Therefore, set LREAL=.FALSE. in the INCAR file.                         |
|                                                                             |
 -----------------------------------------------------------------------------

 LDA part: xc-table for Pade appr. of Perdew
 generate k-points for:   12   12    4
 POSCAR, INCAR and KPOINTS ok, starting setup
 FFT: planning ...
 WAVECAR not read
 entering main loop
       N       E                     dE             d eps       ncg     rms          rms(c)
DAV:   1     0.253905362330E+03    0.25391E+03   -0.17328E+04 18376   0.137E+03
DAV:   2    -0.143363868614E+02   -0.26824E+03   -0.25794E+03 22004   0.348E+02
DAV:   3    -0.374639149548E+02   -0.23128E+02   -0.22932E+02 29560   0.850E+01
DAV:   4    -0.391740276166E+02   -0.17101E+01   -0.17031E+01 27464   0.215E+01
DAV:   5    -0.392199427827E+02   -0.45915E-01   -0.45912E-01 25964   0.314E+00    0.178E+01
RMM:   6    -0.380943855444E+02    0.11256E+01   -0.45336E+00 20478   0.109E+01    0.783E+00
RMM:   7    -0.386976236108E+02   -0.60324E+00   -0.68683E-01 23154   0.509E+00    0.389E+00
RMM:   8    -0.387741281177E+02   -0.76505E-01   -0.30415E-01 27319   0.315E+00    0.156E+00
RMM:   9    -0.387843783546E+02   -0.10250E-01   -0.10110E-01 28769   0.204E+00    0.386E-01
RMM:  10    -0.387937957478E+02   -0.94174E-02   -0.52529E-02 32434   0.116E+00    0.186E-01
RMM:  11    -0.387975317259E+02   -0.37360E-02   -0.20076E-02 33095   0.669E-01    0.127E-01
RMM:  12    -0.387988109964E+02   -0.12793E-02   -0.84087E-03 34280   0.402E-01    0.903E-02
RMM:  13    -0.387992235316E+02   -0.41254E-03   -0.31836E-03 32968   0.272E-01    0.357E-02
RMM:  14    -0.387994766650E+02   -0.25313E-03   -0.15888E-03 33432   0.190E-01    0.852E-03
RMM:  15    -0.387995645106E+02   -0.87846E-04   -0.73054E-04 31667   0.112E-01    0.910E-03
WARNING in EDDRMM: call to ZHEGV failed, returncode =   6  3      2
RMM:  16    -0.387995984983E+02   -0.33988E-04   -0.30863E-04 30579   0.742E-02    0.571E-03
RMM:  17    -0.387996117342E+02   -0.13236E-04   -0.12334E-04 28223   0.512E-02    0.308E-03
RMM:  18    -0.387996160841E+02   -0.43499E-05   -0.43469E-05 23957   0.374E-02
   1 F= -.38799616E+02 E0= -.38799616E+02  d E =0.000000E+00  mag=    -0.0000
