 running on   24 total cores
 distrk:  each k-point on   24 cores,    1 groups
 distr:  one band on    6 cores,    4 groups
 using from now: INCAR     
 vasp.6.1.2 22Jul20 (build Mar 31 2021 18:09:49) complex                        
  
 POSCAR found type information on POSCAR LiP 
 POSCAR found :  2 types and       8 ions
 scaLAPACK will be used
 -----------------------------------------------------------------------------
|                                                                             |
|               ----> ADVICE to this user running VASP <----                  |
|                                                                             |
|     You have a (more or less) 'small supercell' and for smaller cells       |
|     it is recommended to use the reciprocal-space projection scheme!        |
|     The real-space optimization is not efficient for small cells and it     |
|     is also less accurate ...                                               |
|     Therefore, set LREAL=.FALSE. in the INCAR file.                         |
|                                                                             |
 -----------------------------------------------------------------------------

 LDA part: xc-table for Pade appr. of Perdew
 generate k-points for:    9    9    4
 POSCAR, INCAR and KPOINTS ok, starting setup
 FFT: planning ...
 WAVECAR not read
 entering main loop
       N       E                     dE             d eps       ncg     rms          rms(c)
DAV:   1     0.158520241290E+03    0.15852E+03   -0.11815E+04  9120   0.118E+03
DAV:   2     0.173669909464E+01   -0.15678E+03   -0.14818E+03 10008   0.299E+02
DAV:   3    -0.236790988506E+02   -0.25416E+02   -0.25185E+02 16216   0.696E+01
DAV:   4    -0.263832983050E+02   -0.27042E+01   -0.26836E+01 13408   0.308E+01
DAV:   5    -0.265855301622E+02   -0.20223E+00   -0.20222E+00 14576   0.671E+00    0.149E+01
RMM:   6    -0.270490366493E+02   -0.46351E+00   -0.16294E+00 11120   0.630E+00    0.755E+00
RMM:   7    -0.277539035177E+02   -0.70487E+00   -0.49282E-01 12602   0.425E+00    0.284E+00
RMM:   8    -0.278247766134E+02   -0.70873E-01   -0.38830E-01 14359   0.286E+00    0.118E+00
RMM:   9    -0.278335268636E+02   -0.87503E-02   -0.95831E-02 15164   0.169E+00    0.517E-01
RMM:  10    -0.278417799152E+02   -0.82531E-02   -0.42822E-02 15877   0.101E+00    0.267E-01
RMM:  11    -0.278439707230E+02   -0.21908E-02   -0.15870E-02 16190   0.588E-01    0.196E-01
RMM:  12    -0.278447411964E+02   -0.77047E-03   -0.59872E-03 15820   0.448E-01    0.509E-02
RMM:  13    -0.278453388645E+02   -0.59767E-03   -0.33814E-03 16278   0.275E-01    0.186E-02
RMM:  14    -0.278455528661E+02   -0.21400E-03   -0.17283E-03 15991   0.179E-01    0.222E-02
RMM:  15    -0.278456459631E+02   -0.93097E-04   -0.80052E-04 14309   0.119E-01    0.194E-02
RMM:  16    -0.278456944161E+02   -0.48453E-04   -0.42467E-04 14168   0.866E-02    0.269E-02
RMM:  17    -0.278457125364E+02   -0.18120E-04   -0.23719E-04 13801   0.717E-02    0.160E-02
RMM:  18    -0.278457281738E+02   -0.15637E-04   -0.14444E-04 12993   0.534E-02    0.142E-02
RMM:  19    -0.278457366233E+02   -0.84495E-05   -0.94609E-05 11940   0.442E-02
   1 F= -.27845737E+02 E0= -.27845737E+02  d E =0.000000E+00  mag=    -0.0001
