  16  16   1   0
  0.1255713E+02  0.5043864E-09  0.5043864E-09  0.9240513E-09  0.5000000E-15
  1.000000000000000E-004
  CAR 
 unknown system                          
     13.38387568    -17.88029753  301      4.01765045      1.00000000
    -17.880  0.0000E+00  0.0000E+00  0.0000E+00  0.0000E+00
    -17.776  0.0000E+00  0.0000E+00  0.0000E+00  0.0000E+00
    -17.672  0.0000E+00  0.0000E+00  0.0000E+00  0.0000E+00
    -17.568  0.0000E+00  0.0000E+00  0.0000E+00  0.0000E+00
    -17.463  0.0000E+00  0.0000E+00  0.0000E+00  0.0000E+00
    -17.359  0.0000E+00  0.0000E+00  0.0000E+00  0.0000E+00
    -17.255  0.0000E+00  0.0000E+00  0.0000E+00  0.0000E+00
    -17.151  0.0000E+00  0.0000E+00  0.0000E+00  0.0000E+00
    -17.047  0.0000E+00  0.0000E+00  0.0000E+00  0.0000E+00
    -16.942  0.0000E+00  0.0000E+00  0.0000E+00  0.0000E+00
    -16.838  0.0000E+00  0.0000E+00  0.0000E+00  0.0000E+00
    -16.734  0.0000E+00  0.0000E+00  0.0000E+00  0.0000E+00
    -16.630  0.0000E+00  0.0000E+00  0.0000E+00  0.0000E+00
    -16.526  0.0000E+00  0.0000E+00  0.0000E+00  0.0000E+00
    -16.421  0.1985E-02  0.1985E-02  0.2507E-04  0.2507E-04
    -16.317  0.8680E-02  0.8680E-02  0.6718E-03  0.6718E-03
    -16.213  0.1678E-01  0.1678E-01  0.1945E-02  0.1945E-02
    -16.109  0.1948E-01  0.1948E-01  0.3665E-02  0.3665E-02
    -16.004  0.3199E-01  0.3199E-01  0.6535E-02  0.6535E-02
    -15.900  0.2353E-01  0.2353E-01  0.9214E-02  0.9214E-02
    -15.796  0.3337E-01  0.3337E-01  0.1211E-01  0.1211E-01
    -15.692  0.3206E-01  0.3206E-01  0.1581E-01  0.1581E-01
    -15.588  0.1831E-01  0.1831E-01  0.1872E-01  0.1872E-01
    -15.483  0.5757E-02  0.5757E-02  0.2011E-01  0.2011E-01
    -15.379  0.0000E+00  0.0000E+00  0.2020E-01  0.2020E-01
    -15.275  0.0000E+00  0.0000E+00  0.2020E-01  0.2020E-01
    -15.171  0.0000E+00  0.0000E+00  0.2020E-01  0.2020E-01
    -15.067  0.0000E+00  0.0000E+00  0.2020E-01  0.2020E-01
    -14.962  0.0000E+00  0.0000E+00  0.2020E-01  0.2020E-01
    -14.858  0.0000E+00  0.0000E+00  0.2020E-01  0.2020E-01
    -14.754  0.0000E+00  0.0000E+00  0.2020E-01  0.2020E-01
    -14.650  0.0000E+00  0.0000E+00  0.2020E-01  0.2020E-01
    -14.545  0.2205E-01  0.2205E-01  0.2095E-01  0.2095E-01
    -14.441  0.2909E-01  0.2909E-01  0.2398E-01  0.2398E-01
    -14.337  0.2333E-01  0.2333E-01  0.2694E-01  0.2694E-01
    -14.233  0.1094E-01  0.1094E-01  0.2880E-01  0.2880E-01
    -14.129  0.7483E-02  0.7483E-02  0.2966E-01  0.2966E-01
    -14.024  0.1413E-01  0.1413E-01  0.3084E-01  0.3084E-01
    -13.920  0.1082E-01  0.1082E-01  0.3205E-01  0.3205E-01
    -13.816  0.1235E-01  0.1235E-01  0.3325E-01  0.3325E-01
    -13.712  0.1193E-01  0.1193E-01  0.3443E-01  0.3443E-01
    -13.608  0.1944E-01  0.1944E-01  0.3604E-01  0.3604E-01
    -13.503  0.2134E-01  0.2134E-01  0.3831E-01  0.3831E-01
    -13.399  0.1756E-01  0.1756E-01  0.4030E-01  0.4030E-01
    -13.295  0.1773E-01  0.1773E-01  0.4204E-01  0.4204E-01
    -13.191  0.2675E-01  0.2674E-01  0.4462E-01  0.4462E-01
    -13.086  0.1916E-01  0.1916E-01  0.4689E-01  0.4689E-01
    -12.982  0.1557E-01  0.1557E-01  0.4871E-01  0.4871E-01
    -12.878  0.1356E-01  0.1356E-01  0.5018E-01  0.5018E-01
    -12.774  0.1261E-01  0.1261E-01  0.5152E-01  0.5152E-01
    -12.670  0.1295E-01  0.1295E-01  0.5285E-01  0.5285E-01
    -12.565  0.1462E-01  0.1462E-01  0.5426E-01  0.5426E-01
    -12.461  0.1739E-01  0.1739E-01  0.5591E-01  0.5591E-01
    -12.357  0.1411E-01  0.1411E-01  0.5761E-01  0.5761E-01
    -12.253  0.1076E-01  0.1076E-01  0.5885E-01  0.5885E-01
    -12.149  0.1240E-01  0.1240E-01  0.6003E-01  0.6003E-01
    -12.044  0.8213E-02  0.8213E-02  0.6068E-01  0.6068E-01
    -11.940  0.5134E-01  0.5134E-01  0.6408E-01  0.6408E-01
    -11.836  0.3937E-01  0.3937E-01  0.6997E-01  0.6997E-01
    -11.732  0.6050E-01  0.6050E-01  0.7522E-01  0.7522E-01
    -11.627  0.1677E-01  0.1677E-01  0.8076E-01  0.8076E-01
    -11.523  0.4212E-01  0.4212E-01  0.8286E-01  0.8286E-01
    -11.419  0.7121E-01  0.7121E-01  0.8958E-01  0.8958E-01
    -11.315  0.6519E-01  0.6518E-01  0.9821E-01  0.9821E-01
    -11.211  0.0000E+00  0.0000E+00  0.1010E+00  0.1010E+00
    -11.106  0.0000E+00  0.0000E+00  0.1010E+00  0.1010E+00
    -11.002  0.0000E+00  0.0000E+00  0.1010E+00  0.1010E+00
    -10.898  0.0000E+00  0.0000E+00  0.1010E+00  0.1010E+00
    -10.794  0.0000E+00  0.0000E+00  0.1010E+00  0.1010E+00
    -10.690  0.0000E+00  0.0000E+00  0.1010E+00  0.1010E+00
    -10.585  0.0000E+00  0.0000E+00  0.1010E+00  0.1010E+00
    -10.481  0.0000E+00  0.0000E+00  0.1010E+00  0.1010E+00
    -10.377  0.0000E+00  0.0000E+00  0.1010E+00  0.1010E+00
    -10.273  0.0000E+00  0.0000E+00  0.1010E+00  0.1010E+00
    -10.168  0.0000E+00  0.0000E+00  0.1010E+00  0.1010E+00
    -10.064  0.0000E+00  0.0000E+00  0.1010E+00  0.1010E+00
     -9.960  0.0000E+00  0.0000E+00  0.1010E+00  0.1010E+00
     -9.856  0.0000E+00  0.0000E+00  0.1010E+00  0.1010E+00
     -9.752  0.2009E-03  0.2009E-03  0.1010E+00  0.1010E+00
     -9.647  0.9306E-03  0.9306E-03  0.1011E+00  0.1011E+00
     -9.543  0.1754E-02  0.1754E-02  0.1012E+00  0.1012E+00
     -9.439  0.2573E-02  0.2573E-02  0.1014E+00  0.1014E+00
     -9.335  0.3540E-02  0.3540E-02  0.1018E+00  0.1018E+00
     -9.231  0.4782E-02  0.4782E-02  0.1022E+00  0.1022E+00
     -9.126  0.6279E-02  0.6279E-02  0.1028E+00  0.1028E+00
     -9.022  0.1036E-01  0.1036E-01  0.1037E+00  0.1037E+00
     -8.918  0.9705E-02  0.9705E-02  0.1047E+00  0.1047E+00
     -8.814  0.1024E-01  0.1024E-01  0.1057E+00  0.1057E+00
     -8.709  0.1017E-01  0.1017E-01  0.1068E+00  0.1068E+00
     -8.605  0.8806E-02  0.8806E-02  0.1078E+00  0.1078E+00
     -8.501  0.8659E-02  0.8659E-02  0.1087E+00  0.1087E+00
     -8.397  0.9027E-02  0.9027E-02  0.1096E+00  0.1096E+00
     -8.293  0.1016E-01  0.1016E-01  0.1106E+00  0.1106E+00
     -8.188  0.1221E-01  0.1221E-01  0.1118E+00  0.1118E+00
     -8.084  0.1249E-01  0.1249E-01  0.1131E+00  0.1131E+00
     -7.980  0.1300E-01  0.1300E-01  0.1144E+00  0.1144E+00
     -7.876  0.1446E-01  0.1446E-01  0.1159E+00  0.1159E+00
     -7.772  0.1390E-01  0.1390E-01  0.1173E+00  0.1173E+00
     -7.667  0.1249E-01  0.1249E-01  0.1187E+00  0.1187E+00
     -7.563  0.1325E-01  0.1325E-01  0.1201E+00  0.1201E+00
     -7.459  0.1506E-01  0.1506E-01  0.1216E+00  0.1216E+00
     -7.355  0.1362E-01  0.1362E-01  0.1231E+00  0.1231E+00
     -7.250  0.1253E-01  0.1253E-01  0.1245E+00  0.1245E+00
     -7.146  0.1059E-01  0.1059E-01  0.1257E+00  0.1257E+00
     -7.042  0.9020E-02  0.9020E-02  0.1267E+00  0.1267E+00
     -6.938  0.9558E-02  0.9558E-02  0.1276E+00  0.1276E+00
     -6.834  0.1043E-01  0.1043E-01  0.1287E+00  0.1287E+00
     -6.729  0.1072E-01  0.1072E-01  0.1298E+00  0.1298E+00
     -6.625  0.1025E-01  0.1025E-01  0.1309E+00  0.1309E+00
     -6.521  0.1062E-01  0.1062E-01  0.1320E+00  0.1320E+00
     -6.417  0.1078E-01  0.1078E-01  0.1331E+00  0.1331E+00
     -6.313  0.1191E-01  0.1191E-01  0.1343E+00  0.1343E+00
     -6.208  0.1416E-01  0.1416E-01  0.1356E+00  0.1356E+00
     -6.104  0.1514E-01  0.1514E-01  0.1371E+00  0.1371E+00
     -6.000  0.1611E-01  0.1611E-01  0.1388E+00  0.1388E+00
     -5.896  0.1581E-01  0.1581E-01  0.1406E+00  0.1406E+00
     -5.791  0.4295E-02  0.4295E-02  0.1415E+00  0.1415E+00
     -5.687  0.9759E-02  0.9759E-02  0.1422E+00  0.1422E+00
     -5.583  0.1741E-01  0.1741E-01  0.1436E+00  0.1436E+00
     -5.479  0.1688E-01  0.1688E-01  0.1455E+00  0.1455E+00
     -5.375  0.1845E-01  0.1845E-01  0.1473E+00  0.1473E+00
     -5.270  0.1472E-01  0.1472E-01  0.1491E+00  0.1491E+00
     -5.166  0.1870E-01  0.1870E-01  0.1507E+00  0.1507E+00
     -5.062  0.2238E-01  0.2238E-01  0.1529E+00  0.1529E+00
     -4.958  0.2321E-01  0.2321E-01  0.1552E+00  0.1552E+00
     -4.854  0.2701E-01  0.2701E-01  0.1582E+00  0.1582E+00
     -4.749  0.1256E-01  0.1256E-01  0.1602E+00  0.1602E+00
     -4.645  0.7572E-02  0.7572E-02  0.1613E+00  0.1613E+00
     -4.541  0.1011E-01  0.1011E-01  0.1621E+00  0.1621E+00
     -4.437  0.3050E-01  0.3050E-01  0.1641E+00  0.1641E+00
     -4.332  0.3359E-01  0.3359E-01  0.1680E+00  0.1680E+00
     -4.228  0.3727E-01  0.3727E-01  0.1711E+00  0.1711E+00
     -4.124  0.3648E-01  0.3648E-01  0.1753E+00  0.1753E+00
     -4.020  0.2051E-01  0.2051E-01  0.1781E+00  0.1781E+00
     -3.916  0.2262E-01  0.2262E-01  0.1807E+00  0.1807E+00
     -3.811  0.6606E-03  0.6605E-03  0.1818E+00  0.1818E+00
     -3.707  0.0000E+00  0.0000E+00  0.1818E+00  0.1818E+00
     -3.603  0.3054E-02  0.3054E-02  0.1819E+00  0.1819E+00
     -3.499  0.1194E-01  0.1194E-01  0.1828E+00  0.1828E+00
     -3.395  0.1639E-01  0.1639E-01  0.1844E+00  0.1844E+00
     -3.290  0.2718E-01  0.2718E-01  0.1865E+00  0.1865E+00
     -3.186  0.4795E-01  0.4795E-01  0.1914E+00  0.1914E+00
     -3.082  0.2918E-01  0.2918E-01  0.1956E+00  0.1956E+00
     -2.978  0.3972E-01  0.3972E-01  0.1988E+00  0.1988E+00
     -2.873  0.2928E-01  0.2928E-01  0.2028E+00  0.2028E+00
     -2.769  0.2942E-01  0.2942E-01  0.2057E+00  0.2057E+00
     -2.665  0.4915E-01  0.4915E-01  0.2101E+00  0.2101E+00
     -2.561  0.2422E-01  0.2422E-01  0.2134E+00  0.2134E+00
     -2.457  0.4027E-01  0.4027E-01  0.2162E+00  0.2162E+00
     -2.352  0.3842E-01  0.3842E-01  0.2211E+00  0.2211E+00
     -2.248  0.9087E-02  0.9087E-02  0.2224E+00  0.2224E+00
     -2.144  0.5522E-01  0.5522E-01  0.2252E+00  0.2252E+00
     -2.040  0.2890E-01  0.2890E-01  0.2305E+00  0.2305E+00
     -1.936  0.7038E-01  0.7038E-01  0.2355E+00  0.2355E+00
     -1.831  0.3181E-01  0.3181E-01  0.2407E+00  0.2407E+00
     -1.727  0.4675E-02  0.4675E-02  0.2423E+00  0.2423E+00
     -1.623  0.0000E+00  0.0000E+00  0.2424E+00  0.2424E+00
     -1.519  0.0000E+00  0.0000E+00  0.2424E+00  0.2424E+00
     -1.414  0.0000E+00  0.0000E+00  0.2424E+00  0.2424E+00
     -1.310  0.0000E+00  0.0000E+00  0.2424E+00  0.2424E+00
     -1.206  0.0000E+00  0.0000E+00  0.2424E+00  0.2424E+00
     -1.102  0.0000E+00  0.0000E+00  0.2424E+00  0.2424E+00
     -0.998  0.0000E+00  0.0000E+00  0.2424E+00  0.2424E+00
     -0.893  0.0000E+00  0.0000E+00  0.2424E+00  0.2424E+00
     -0.789  0.0000E+00  0.0000E+00  0.2424E+00  0.2424E+00
     -0.685  0.0000E+00  0.0000E+00  0.2424E+00  0.2424E+00
     -0.581  0.0000E+00  0.0000E+00  0.2424E+00  0.2424E+00
     -0.477  0.0000E+00  0.0000E+00  0.2424E+00  0.2424E+00
     -0.372  0.1260E-02  0.1260E-02  0.2424E+00  0.2424E+00
     -0.268  0.5253E-01  0.5253E-01  0.2468E+00  0.2468E+00
     -0.164  0.3792E-01  0.3792E-01  0.2509E+00  0.2509E+00
     -0.060  0.3476E-01  0.3476E-01  0.2549E+00  0.2549E+00
      0.044  0.3215E-01  0.3215E-01  0.2583E+00  0.2583E+00
      0.149  0.2928E-01  0.2928E-01  0.2614E+00  0.2614E+00
      0.253  0.5270E-01  0.5270E-01  0.2665E+00  0.2665E+00
      0.357  0.2990E-01  0.2990E-01  0.2703E+00  0.2703E+00
      0.461  0.2830E-01  0.2830E-01  0.2732E+00  0.2732E+00
      0.566  0.3365E-01  0.3365E-01  0.2760E+00  0.2760E+00
      0.670  0.4101E-01  0.4101E-01  0.2802E+00  0.2802E+00
      0.774  0.2501E-01  0.2501E-01  0.2839E+00  0.2839E+00
      0.878  0.3030E-01  0.3030E-01  0.2860E+00  0.2860E+00
      0.982  0.4999E-01  0.4999E-01  0.2899E+00  0.2899E+00
      1.087  0.3496E-01  0.3496E-01  0.2952E+00  0.2952E+00
      1.191  0.4509E-01  0.4509E-01  0.2996E+00  0.2996E+00
      1.295  0.2866E-01  0.2866E-01  0.3033E+00  0.3033E+00
      1.399  0.6622E-01  0.6622E-01  0.3082E+00  0.3082E+00
      1.503  0.5255E-01  0.5255E-01  0.3142E+00  0.3142E+00
      1.608  0.7021E-01  0.7021E-01  0.3198E+00  0.3198E+00
      1.712  0.3000E-01  0.3000E-01  0.3251E+00  0.3251E+00
      1.816  0.5224E-01  0.5224E-01  0.3289E+00  0.3289E+00
      1.920  0.2188E-01  0.2188E-01  0.3335E+00  0.3335E+00
      2.025  0.9420E-01  0.9420E-01  0.3385E+00  0.3385E+00
      2.129  0.3191E-01  0.3191E-01  0.3433E+00  0.3433E+00
      2.233  0.6544E-01  0.6544E-01  0.3501E+00  0.3501E+00
      2.337  0.1960E-01  0.1960E-01  0.3542E+00  0.3542E+00
      2.441  0.8092E-01  0.8092E-01  0.3585E+00  0.3585E+00
      2.546  0.5367E-01  0.5367E-01  0.3638E+00  0.3638E+00
      2.650  0.3105E-01  0.3105E-01  0.3690E+00  0.3690E+00
      2.754  0.2020E-01  0.2020E-01  0.3717E+00  0.3717E+00
      2.858  0.2334E-01  0.2334E-01  0.3733E+00  0.3733E+00
      2.962  0.4561E-01  0.4561E-01  0.3783E+00  0.3783E+00
      3.067  0.3312E-01  0.3312E-01  0.3826E+00  0.3826E+00
      3.171  0.3415E-01  0.3415E-01  0.3866E+00  0.3866E+00
      3.275  0.3378E-01  0.3378E-01  0.3901E+00  0.3901E+00
      3.379  0.3241E-01  0.3241E-01  0.3936E+00  0.3936E+00
      3.484  0.4220E-01  0.4220E-01  0.3973E+00  0.3973E+00
      3.588  0.2620E-01  0.2620E-01  0.4009E+00  0.4009E+00
      3.692  0.9550E-02  0.9550E-02  0.4031E+00  0.4031E+00
      3.796  0.4337E-02  0.4337E-02  0.4038E+00  0.4038E+00
      3.900  0.7849E-03  0.7849E-03  0.4040E+00  0.4040E+00
      4.005  0.0000E+00  0.0000E+00  0.4040E+00  0.4040E+00
      4.109  0.0000E+00  0.0000E+00  0.4040E+00  0.4040E+00
      4.213  0.0000E+00  0.0000E+00  0.4040E+00  0.4040E+00
      4.317  0.0000E+00  0.0000E+00  0.4040E+00  0.4040E+00
      4.421  0.0000E+00  0.0000E+00  0.4040E+00  0.4040E+00
      4.526  0.0000E+00  0.0000E+00  0.4040E+00  0.4040E+00
      4.630  0.0000E+00  0.0000E+00  0.4040E+00  0.4040E+00
      4.734  0.0000E+00  0.0000E+00  0.4040E+00  0.4040E+00
      4.838  0.0000E+00  0.0000E+00  0.4040E+00  0.4040E+00
      4.943  0.0000E+00  0.0000E+00  0.4040E+00  0.4040E+00
      5.047  0.0000E+00  0.0000E+00  0.4040E+00  0.4040E+00
      5.151  0.0000E+00  0.0000E+00  0.4040E+00  0.4040E+00
      5.255  0.0000E+00  0.0000E+00  0.4040E+00  0.4040E+00
      5.359  0.0000E+00  0.0000E+00  0.4040E+00  0.4040E+00
      5.464  0.0000E+00  0.0000E+00  0.4040E+00  0.4040E+00
      5.568  0.0000E+00  0.0000E+00  0.4040E+00  0.4040E+00
      5.672  0.0000E+00  0.0000E+00  0.4040E+00  0.4040E+00
      5.776  0.0000E+00  0.0000E+00  0.4040E+00  0.4040E+00
      5.880  0.0000E+00  0.0000E+00  0.4040E+00  0.4040E+00
      5.985  0.0000E+00  0.0000E+00  0.4040E+00  0.4040E+00
      6.089  0.0000E+00  0.0000E+00  0.4040E+00  0.4040E+00
      6.193  0.0000E+00  0.0000E+00  0.4040E+00  0.4040E+00
      6.297  0.0000E+00  0.0000E+00  0.4040E+00  0.4040E+00
      6.402  0.0000E+00  0.0000E+00  0.4040E+00  0.4040E+00
      6.506  0.0000E+00  0.0000E+00  0.4040E+00  0.4040E+00
      6.610  0.0000E+00  0.0000E+00  0.4040E+00  0.4040E+00
      6.714  0.0000E+00  0.0000E+00  0.4040E+00  0.4040E+00
      6.818  0.0000E+00  0.0000E+00  0.4040E+00  0.4040E+00
      6.923  0.0000E+00  0.0000E+00  0.4040E+00  0.4040E+00
      7.027  0.0000E+00  0.0000E+00  0.4040E+00  0.4040E+00
      7.131  0.0000E+00  0.0000E+00  0.4040E+00  0.4040E+00
      7.235  0.0000E+00  0.0000E+00  0.4040E+00  0.4040E+00
      7.339  0.0000E+00  0.0000E+00  0.4040E+00  0.4040E+00
      7.444  0.0000E+00  0.0000E+00  0.4040E+00  0.4040E+00
      7.548  0.0000E+00  0.0000E+00  0.4040E+00  0.4040E+00
      7.652  0.1370E-01  0.1370E-01  0.4044E+00  0.4044E+00
      7.756  0.8942E-02  0.8942E-02  0.4055E+00  0.4055E+00
      7.861  0.1091E-01  0.1091E-01  0.4066E+00  0.4066E+00
      7.965  0.1742E-01  0.1742E-01  0.4081E+00  0.4081E+00
      8.069  0.1573E-01  0.1573E-01  0.4098E+00  0.4098E+00
      8.173  0.2142E-01  0.2142E-01  0.4120E+00  0.4120E+00
      8.277  0.1529E-01  0.1529E-01  0.4138E+00  0.4138E+00
      8.382  0.2923E-01  0.2923E-01  0.4159E+00  0.4159E+00
      8.486  0.4411E-01  0.4411E-01  0.4200E+00  0.4200E+00
      8.590  0.2219E-01  0.2219E-01  0.4234E+00  0.4234E+00
      8.694  0.1422E-01  0.1422E-01  0.4251E+00  0.4251E+00
      8.798  0.2572E-01  0.2572E-01  0.4271E+00  0.4271E+00
      8.903  0.3632E-01  0.3632E-01  0.4305E+00  0.4305E+00
      9.007  0.2208E-01  0.2208E-01  0.4337E+00  0.4337E+00
      9.111  0.3226E-01  0.3226E-01  0.4364E+00  0.4364E+00
      9.215  0.3861E-01  0.3861E-01  0.4402E+00  0.4402E+00
      9.320  0.2616E-01  0.2616E-01  0.4434E+00  0.4434E+00
      9.424  0.2131E-01  0.2131E-01  0.4456E+00  0.4456E+00
      9.528  0.3601E-01  0.3601E-01  0.4486E+00  0.4486E+00
      9.632  0.5023E-01  0.5023E-01  0.4533E+00  0.4533E+00
      9.736  0.3415E-01  0.3415E-01  0.4572E+00  0.4572E+00
      9.841  0.2890E-01  0.2891E-01  0.4606E+00  0.4606E+00
      9.945  0.3683E-01  0.3683E-01  0.4642E+00  0.4642E+00
     10.049  0.3470E-01  0.3470E-01  0.4681E+00  0.4681E+00
     10.153  0.3141E-01  0.3141E-01  0.4714E+00  0.4714E+00
     10.257  0.2669E-01  0.2669E-01  0.4748E+00  0.4748E+00
     10.362  0.2682E-01  0.2682E-01  0.4773E+00  0.4773E+00
     10.466  0.4666E-01  0.4666E-01  0.4810E+00  0.4810E+00
     10.570  0.4802E-01  0.4802E-01  0.4859E+00  0.4859E+00
     10.674  0.4351E-01  0.4351E-01  0.4909E+00  0.4909E+00
     10.779  0.4805E-01  0.4807E-01  0.4953E+00  0.4953E+00
     10.883  0.3834E-01  0.3836E-01  0.5002E+00  0.5002E+00
     10.987  0.2705E-01  0.2706E-01  0.5037E+00  0.5037E+00
     11.091  0.3956E-01  0.3925E-01  0.5070E+00  0.5070E+00
     11.195  0.3829E-01  0.3872E-01  0.5109E+00  0.5109E+00
     11.300  0.3944E-01  0.3986E-01  0.5150E+00  0.5150E+00
     11.404  0.2723E-01  0.2749E-01  0.5184E+00  0.5184E+00
     11.508  0.2170E-01  0.2209E-01  0.5208E+00  0.5210E+00
     11.612  0.1734E-01  0.1691E-01  0.5229E+00  0.5230E+00
     11.716  0.1119E-01  0.1063E-01  0.5244E+00  0.5244E+00
     11.821  0.2982E-02  0.2943E-02  0.5251E+00  0.5251E+00
     11.925  0.2865E-04  0.8406E-03  0.5253E+00  0.5252E+00
     12.029  0.0000E+00  0.0000E+00  0.5253E+00  0.5253E+00
     12.133  0.0000E+00  0.0000E+00  0.5253E+00  0.5253E+00
     12.238  0.0000E+00  0.0000E+00  0.5253E+00  0.5253E+00
     12.342  0.0000E+00  0.0000E+00  0.5253E+00  0.5253E+00
     12.446  0.0000E+00  0.0000E+00  0.5253E+00  0.5253E+00
     12.550  0.0000E+00  0.0000E+00  0.5253E+00  0.5253E+00
     12.654  0.0000E+00  0.0000E+00  0.5253E+00  0.5253E+00
     12.759  0.0000E+00  0.0000E+00  0.5253E+00  0.5253E+00
     12.863  0.0000E+00  0.0000E+00  0.5253E+00  0.5253E+00
     12.967  0.0000E+00  0.0000E+00  0.5253E+00  0.5253E+00
     13.071  0.0000E+00  0.0000E+00  0.5253E+00  0.5253E+00
     13.175  0.0000E+00  0.0000E+00  0.5253E+00  0.5253E+00
     13.280  0.0000E+00  0.0000E+00  0.5253E+00  0.5253E+00
     13.384  0.0000E+00  0.0000E+00  0.5253E+00  0.5253E+00
     13.38387568    -17.88029753  301      4.01765045      1.00000000
    -17.880  0.0000E+00  0.0000E+00  0.0000E+00  0.0000E+00  0.0000E+00  0.0000E+00  0.0000E+00  0.0000E+00  0.0000E+00  0.0000E+00  0.0000E+00  0.0000E+00  0.0000E+00  0.0000E+00  0.0000E+00  0.0000E+00  0.0000E+00  0.0000E+00
    -17.776  0.0000E+00  0.0000E+00  0.0000E+00  0.0000E+00  0.0000E+00  0.0000E+00  0.0000E+00  0.0000E+00  0.0000E+00  0.0000E+00  0.0000E+00  0.0000E+00  0.0000E+00  0.0000E+00  0.0000E+00  0.0000E+00  0.0000E+00  0.0000E+00
    -17.672  0.0000E+00  0.0000E+00  0.0000E+00  0.0000E+00  0.0000E+00  0.0000E+00  0.0000E+00  0.0000E+00  0.0000E+00  0.0000E+00  0.0000E+00  0.0000E+00  0.0000E+00  0.0000E+00  0.0000E+00  0.0000E+00  0.0000E+00  0.0000E+00
    -17.568  0.0000E+00  0.0000E+00  0.0000E+00  0.0000E+00  0.0000E+00  0.0000E+00  0.0000E+00  0.0000E+00  0.0000E+00  0.0000E+00  0.0000E+00  0.0000E+00  0.0000E+00  0.0000E+00  0.0000E+00  0.0000E+00  0.0000E+00  0.0000E+00
    -17.463  0.0000E+00  0.0000E+00  0.0000E+00  0.0000E+00  0.0000E+00  0.0000E+00  0.0000E+00  0.0000E+00  0.0000E+00  0.0000E+00  0.0000E+00  0.0000E+00  0.0000E+00  0.0000E+00  0.0000E+00  0.0000E+00  0.0000E+00  0.0000E+00
    -17.359  0.0000E+00  0.0000E+00  0.0000E+00  0.0000E+00  0.0000E+00  0.0000E+00  0.0000E+00  0.0000E+00  0.0000E+00  0.0000E+00  0.0000E+00  0.0000E+00  0.0000E+00  0.0000E+00  0.0000E+00  0.0000E+00  0.0000E+00  0.0000E+00
    -17.255  0.0000E+00  0.0000E+00  0.0000E+00  0.0000E+00  0.0000E+00  0.0000E+00  0.0000E+00  0.0000E+00  0.0000E+00  0.0000E+00  0.0000E+00  0.0000E+00  0.0000E+00  0.0000E+00  0.0000E+00  0.0000E+00  0.0000E+00  0.0000E+00
    -17.151  0.0000E+00  0.0000E+00  0.0000E+00  0.0000E+00  0.0000E+00  0.0000E+00  0.0000E+00  0.0000E+00  0.0000E+00  0.0000E+00  0.0000E+00  0.0000E+00  0.0000E+00  0.0000E+00  0.0000E+00  0.0000E+00  0.0000E+00  0.0000E+00
    -17.047  0.0000E+00  0.0000E+00  0.0000E+00  0.0000E+00  0.0000E+00  0.0000E+00  0.0000E+00  0.0000E+00  0.0000E+00  0.0000E+00  0.0000E+00  0.0000E+00  0.0000E+00  0.0000E+00  0.0000E+00  0.0000E+00  0.0000E+00  0.0000E+00
    -16.942  0.0000E+00  0.0000E+00  0.0000E+00  0.0000E+00  0.0000E+00  0.0000E+00  0.0000E+00  0.0000E+00  0.0000E+00  0.0000E+00  0.0000E+00  0.0000E+00  0.0000E+00  0.0000E+00  0.0000E+00  0.0000E+00  0.0000E+00  0.0000E+00
    -16.838  0.0000E+00  0.0000E+00  0.0000E+00  0.0000E+00  0.0000E+00  0.0000E+00  0.0000E+00  0.0000E+00  0.0000E+00  0.0000E+00  0.0000E+00  0.0000E+00  0.0000E+00  0.0000E+00  0.0000E+00  0.0000E+00  0.0000E+00  0.0000E+00
    -16.734  0.0000E+00  0.0000E+00  0.0000E+00  0.0000E+00  0.0000E+00  0.0000E+00  0.0000E+00  0.0000E+00  0.0000E+00  0.0000E+00  0.0000E+00  0.0000E+00  0.0000E+00  0.0000E+00  0.0000E+00  0.0000E+00  0.0000E+00  0.0000E+00
    -16.630  0.0000E+00  0.0000E+00  0.0000E+00  0.0000E+00  0.0000E+00  0.0000E+00  0.0000E+00  0.0000E+00  0.0000E+00  0.0000E+00  0.0000E+00  0.0000E+00  0.0000E+00  0.0000E+00  0.0000E+00  0.0000E+00  0.0000E+00  0.0000E+00
    -16.526  0.0000E+00  0.0000E+00  0.0000E+00  0.0000E+00  0.0000E+00  0.0000E+00  0.0000E+00  0.0000E+00  0.0000E+00  0.0000E+00  0.0000E+00  0.0000E+00  0.0000E+00  0.0000E+00  0.0000E+00  0.0000E+00  0.0000E+00  0.0000E+00
    -16.421  0.8106E-02  0.8107E-02  0.1482E-04  0.1482E-04  0.2148E-04  0.2148E-04  0.9282E-04  0.9282E-04  0.0000E+00  0.0000E+00  0.0000E+00  0.0000E+00  0.0000E+00  0.0000E+00  0.0000E+00  0.0000E+00  0.0000E+00  0.0000E+00
    -16.317  0.3379E-01  0.3441E-01  0.1504E-03  0.1501E-03  0.2841E-03  0.2541E-03  0.4900E-03  0.4951E-03  0.0000E+00  0.0000E+00  0.0000E+00  0.0000E+00  0.0000E+00  0.0000E+00  0.0000E+00  0.0000E+00  0.0000E+00  0.0000E+00
    -16.213  0.6039E-01  0.6542E-01  0.4096E-03  0.4029E-03  0.1114E-02  0.8719E-03  0.1044E-02  0.1091E-02  0.0000E+00  0.0000E+00  0.0000E+00  0.0000E+00  0.0000E+00  0.0000E+00  0.0000E+00  0.0000E+00  0.0000E+00  0.0000E+00
    -16.109  0.7121E-01  0.7101E-01  0.6625E-03  0.6566E-03  0.1245E-02  0.1255E-02  0.1643E-02  0.1649E-02  0.0000E+00  0.0000E+00  0.0000E+00  0.0000E+00  0.0000E+00  0.0000E+00  0.0000E+00  0.0000E+00  0.0000E+00  0.0000E+00
    -16.004  0.1104E+00  0.1082E+00  0.1247E-02  0.1250E-02  0.3224E-02  0.3332E-02  0.2873E-02  0.2852E-02  0.0000E+00  0.0000E+00  0.0000E+00  0.0000E+00  0.0000E+00  0.0000E+00  0.0000E+00  0.0000E+00  0.0000E+00  0.0000E+00
    -15.900  0.6704E-01  0.6636E-01  0.1374E-02  0.1372E-02  0.3393E-02  0.3425E-02  0.2334E-02  0.2330E-02  0.0000E+00  0.0000E+00  0.0000E+00  0.0000E+00  0.0000E+00  0.0000E+00  0.0000E+00  0.0000E+00  0.0000E+00  0.0000E+00
    -15.796  0.6503E-01  0.6520E-01  0.3034E-02  0.3015E-02  0.6899E-02  0.6891E-02  0.3374E-02  0.3390E-02  0.0000E+00  0.0000E+00  0.0000E+00  0.0000E+00  0.0000E+00  0.0000E+00  0.0000E+00  0.0000E+00  0.0000E+00  0.0000E+00
    -15.692  0.3887E-01  0.3909E-01  0.3854E-02  0.3830E-02  0.9082E-02  0.9072E-02  0.2610E-02  0.2632E-02  0.0000E+00  0.0000E+00  0.0000E+00  0.0000E+00  0.0000E+00  0.0000E+00  0.0000E+00  0.0000E+00  0.0000E+00  0.0000E+00
    -15.588  0.1642E-01  0.1587E-01  0.3331E-02  0.3373E-02  0.5014E-02  0.5040E-02  0.1673E-02  0.1633E-02  0.0000E+00  0.0000E+00  0.0000E+00  0.0000E+00  0.0000E+00  0.0000E+00  0.0000E+00  0.0000E+00  0.0000E+00  0.0000E+00
    -15.483  0.3697E-02  0.3640E-02  0.1650E-02  0.1654E-02  0.1560E-02  0.1563E-02  0.3692E-03  0.3651E-03  0.0000E+00  0.0000E+00  0.0000E+00  0.0000E+00  0.0000E+00  0.0000E+00  0.0000E+00  0.0000E+00  0.0000E+00  0.0000E+00
    -15.379  0.0000E+00  0.0000E+00  0.0000E+00  0.0000E+00  0.0000E+00  0.0000E+00  0.0000E+00  0.0000E+00  0.0000E+00  0.0000E+00  0.0000E+00  0.0000E+00  0.0000E+00  0.0000E+00  0.0000E+00  0.0000E+00  0.0000E+00  0.0000E+00
    -15.275  0.0000E+00  0.0000E+00  0.0000E+00  0.0000E+00  0.0000E+00  0.0000E+00  0.0000E+00  0.0000E+00  0.0000E+00  0.0000E+00  0.0000E+00  0.0000E+00  0.0000E+00  0.0000E+00  0.0000E+00  0.0000E+00  0.0000E+00  0.0000E+00
    -15.171  0.0000E+00  0.0000E+00  0.0000E+00  0.0000E+00  0.0000E+00  0.0000E+00  0.0000E+00  0.0000E+00  0.0000E+00  0.0000E+00  0.0000E+00  0.0000E+00  0.0000E+00  0.0000E+00  0.0000E+00  0.0000E+00  0.0000E+00  0.0000E+00
    -15.067  0.0000E+00  0.0000E+00  0.0000E+00  0.0000E+00  0.0000E+00  0.0000E+00  0.0000E+00  0.0000E+00  0.0000E+00  0.0000E+00  0.0000E+00  0.0000E+00  0.0000E+00  0.0000E+00  0.0000E+00  0.0000E+00  0.0000E+00  0.0000E+00
    -14.962  0.0000E+00  0.0000E+00  0.0000E+00  0.0000E+00  0.0000E+00  0.0000E+00  0.0000E+00  0.0000E+00  0.0000E+00  0.0000E+00  0.0000E+00  0.0000E+00  0.0000E+00  0.0000E+00  0.0000E+00  0.0000E+00  0.0000E+00  0.0000E+00
    -14.858  0.0000E+00  0.0000E+00  0.0000E+00  0.0000E+00  0.0000E+00  0.0000E+00  0.0000E+00  0.0000E+00  0.0000E+00  0.0000E+00  0.0000E+00  0.0000E+00  0.0000E+00  0.0000E+00  0.0000E+00  0.0000E+00  0.0000E+00  0.0000E+00
    -14.754  0.0000E+00  0.0000E+00  0.0000E+00  0.0000E+00  0.0000E+00  0.0000E+00  0.0000E+00  0.0000E+00  0.0000E+00  0.0000E+00  0.0000E+00  0.0000E+00  0.0000E+00  0.0000E+00  0.0000E+00  0.0000E+00  0.0000E+00  0.0000E+00
    -14.650  0.0000E+00  0.0000E+00  0.0000E+00  0.0000E+00  0.0000E+00  0.0000E+00  0.0000E+00  0.0000E+00  0.0000E+00  0.0000E+00  0.0000E+00  0.0000E+00  0.0000E+00  0.0000E+00  0.0000E+00  0.0000E+00  0.0000E+00  0.0000E+00
    -14.545  0.2383E+00  0.2384E+00  0.4116E-03  0.4111E-03  0.7655E-03  0.7653E-03  0.2030E-03  0.2031E-03  0.0000E+00  0.0000E+00  0.0000E+00  0.0000E+00  0.0000E+00  0.0000E+00  0.0000E+00  0.0000E+00  0.0000E+00  0.0000E+00
    -14.441  0.3053E+00  0.3060E+00  0.1034E-02  0.1008E-02  0.1653E-02  0.1651E-02  0.5794E-03  0.5854E-03  0.0000E+00  0.0000E+00  0.0000E+00  0.0000E+00  0.0000E+00  0.0000E+00  0.0000E+00  0.0000E+00  0.0000E+00  0.0000E+00
    -14.337  0.2195E+00  0.2232E+00  0.1443E-02  0.1320E-02  0.2130E-02  0.2110E-02  0.9529E-03  0.9863E-03  0.0000E+00  0.0000E+00  0.0000E+00  0.0000E+00  0.0000E+00  0.0000E+00  0.0000E+00  0.0000E+00  0.0000E+00  0.0000E+00
    -14.233  0.9975E-01  0.1055E+00  0.8523E-03  0.7276E-03  0.1499E-02  0.1389E-02  0.5537E-03  0.6072E-03  0.0000E+00  0.0000E+00  0.0000E+00  0.0000E+00  0.0000E+00  0.0000E+00  0.0000E+00  0.0000E+00  0.0000E+00  0.0000E+00
    -14.129  0.6607E-01  0.6787E-01  0.5610E-03  0.5473E-03  0.1257E-02  0.1185E-02  0.5919E-03  0.6094E-03  0.0000E+00  0.0000E+00  0.0000E+00  0.0000E+00  0.0000E+00  0.0000E+00  0.0000E+00  0.0000E+00  0.0000E+00  0.0000E+00
    -14.024  0.1019E+00  0.1011E+00  0.1208E-02  0.1257E-02  0.1587E-02  0.1560E-02  0.2408E-02  0.2403E-02  0.0000E+00  0.0000E+00  0.0000E+00  0.0000E+00  0.0000E+00  0.0000E+00  0.0000E+00  0.0000E+00  0.0000E+00  0.0000E+00
    -13.920  0.7125E-01  0.6855E-01  0.1230E-02  0.1302E-02  0.1094E-02  0.1120E-02  0.2355E-02  0.2330E-02  0.0000E+00  0.0000E+00  0.0000E+00  0.0000E+00  0.0000E+00  0.0000E+00  0.0000E+00  0.0000E+00  0.0000E+00  0.0000E+00
    -13.816  0.7820E-01  0.7386E-01  0.1702E-02  0.1797E-02  0.1503E-02  0.1585E-02  0.2901E-02  0.2860E-02  0.0000E+00  0.0000E+00  0.0000E+00  0.0000E+00  0.0000E+00  0.0000E+00  0.0000E+00  0.0000E+00  0.0000E+00  0.0000E+00
    -13.712  0.7419E-01  0.7224E-01  0.1651E-02  0.1684E-02  0.2640E-02  0.2702E-02  0.2449E-02  0.2432E-02  0.0000E+00  0.0000E+00  0.0000E+00  0.0000E+00  0.0000E+00  0.0000E+00  0.0000E+00  0.0000E+00  0.0000E+00  0.0000E+00
    -13.608  0.1074E+00  0.1055E+00  0.4867E-02  0.4903E-02  0.5288E-02  0.5351E-02  0.3024E-02  0.3006E-02  0.0000E+00  0.0000E+00  0.0000E+00  0.0000E+00  0.0000E+00  0.0000E+00  0.0000E+00  0.0000E+00  0.0000E+00  0.0000E+00
    -13.503  0.1004E+00  0.9953E-01  0.7286E-02  0.7311E-02  0.5433E-02  0.5458E-02  0.3205E-02  0.3196E-02  0.0000E+00  0.0000E+00  0.0000E+00  0.0000E+00  0.0000E+00  0.0000E+00  0.0000E+00  0.0000E+00  0.0000E+00  0.0000E+00
    -13.399  0.6700E-01  0.6704E-01  0.7468E-02  0.7472E-02  0.4103E-02  0.4086E-02  0.2649E-02  0.2650E-02  0.0000E+00  0.0000E+00  0.0000E+00  0.0000E+00  0.0000E+00  0.0000E+00  0.0000E+00  0.0000E+00  0.0000E+00  0.0000E+00
    -13.295  0.5152E-01  0.5179E-01  0.8503E-02  0.8474E-02  0.4242E-02  0.4155E-02  0.2128E-02  0.2136E-02  0.0000E+00  0.0000E+00  0.0000E+00  0.0000E+00  0.0000E+00  0.0000E+00  0.0000E+00  0.0000E+00  0.0000E+00  0.0000E+00
    -13.191  0.7423E-01  0.7481E-01  0.1065E-01  0.1057E-01  0.7017E-02  0.6796E-02  0.3401E-02  0.3421E-02  0.0000E+00  0.0000E+00  0.0000E+00  0.0000E+00  0.0000E+00  0.0000E+00  0.0000E+00  0.0000E+00  0.0000E+00  0.0000E+00
    -13.086  0.4517E-01  0.4581E-01  0.8175E-02  0.8089E-02  0.4537E-02  0.4282E-02  0.2903E-02  0.2926E-02  0.0000E+00  0.0000E+00  0.0000E+00  0.0000E+00  0.0000E+00  0.0000E+00  0.0000E+00  0.0000E+00  0.0000E+00  0.0000E+00
    -12.982  0.3167E-01  0.3200E-01  0.7513E-02  0.7469E-02  0.3659E-02  0.3527E-02  0.2638E-02  0.2649E-02  0.0000E+00  0.0000E+00  0.0000E+00  0.0000E+00  0.0000E+00  0.0000E+00  0.0000E+00  0.0000E+00  0.0000E+00  0.0000E+00
    -12.878  0.2303E-01  0.2310E-01  0.7693E-02  0.7736E-02  0.3336E-02  0.3368E-02  0.2501E-02  0.2498E-02  0.0000E+00  0.0000E+00  0.0000E+00  0.0000E+00  0.0000E+00  0.0000E+00  0.0000E+00  0.0000E+00  0.0000E+00  0.0000E+00
    -12.774  0.1942E-01  0.1889E-01  0.8023E-02  0.8174E-02  0.2552E-02  0.2858E-02  0.2626E-02  0.2599E-02  0.0000E+00  0.0000E+00  0.0000E+00  0.0000E+00  0.0000E+00  0.0000E+00  0.0000E+00  0.0000E+00  0.0000E+00  0.0000E+00
    -12.670  0.1699E-01  0.1638E-01  0.9988E-02  0.1017E-01  0.2645E-02  0.2985E-02  0.3028E-02  0.2998E-02  0.0000E+00  0.0000E+00  0.0000E+00  0.0000E+00  0.0000E+00  0.0000E+00  0.0000E+00  0.0000E+00  0.0000E+00  0.0000E+00