   16   16   99    2
  0.1255713E+02  0.5043864E-09  0.5043864E-09  0.9240513E-09  0.5000000E-15
  1.000000000000000E-004
  CAR 
 unknown system                          
     80     60     52
 
  0.0000000E+00  0.0000000E+00  0.0000000E+00  0.5102041E-02
    1      -16.459198    -16.459199   1.000000   1.000000
    2      -15.750501    -15.750501   1.000000   1.000000
    3      -14.624092    -14.624093   1.000000   1.000000
    4      -12.504334    -12.504335   1.000000   1.000000
    5      -12.330855    -12.330856   1.000000   1.000000
    6      -12.107227    -12.107227   1.000000   1.000000
    7      -12.084903    -12.084904   1.000000   1.000000
    8      -11.929165    -11.929165   1.000000   1.000000
    9      -11.850168    -11.850169   1.000000   1.000000
   10      -11.390928    -11.390929   1.000000   1.000000
   11       -8.760924     -8.760925   1.000000   1.000000
   12       -8.574089     -8.574089   1.000000   1.000000
   13       -8.514800     -8.514800   1.000000   1.000000
   14       -5.778230     -5.778231   1.000000   1.000000
   15       -5.671188     -5.671189   1.000000   1.000000
   16       -4.915994     -4.915994   1.000000   1.000000
   17       -4.357321     -4.357321   1.000000   1.000000
   18       -3.777686     -3.777687   1.000000   1.000000
   19       -3.248566     -3.248566   1.000000   1.000000
   20       -3.222352     -3.222352   1.000000   1.000000
   21       -2.393818     -2.393819   1.000000   1.000000
   22       -2.388028     -2.388029   1.000000   1.000000
   23       -2.362915     -2.362915   1.000000   1.000000
   24       -1.839684     -1.839684   1.000000   1.000000
   25        0.059411      0.059412   1.000000   1.000000
   26        0.537922      0.537921   1.000000   1.000000
   27        0.636390      0.636390   1.000000   1.000000
   28        0.662336      0.662336   1.000000   1.000000
   29        0.681172      0.681172   1.000000   1.000000
   30        1.267798      1.267797   1.000000   1.000000
   31        1.292065      1.292064   1.000000   1.000000
   32        1.442501      1.442499   1.000000   1.000000
   33        1.489041      1.489040   1.000000   1.000000
   34        2.033032      2.033032   1.000000   1.000000
   35        2.181726      2.181726   1.000000   1.000000
   36        2.669053      2.669053   1.000000   1.000000
   37        2.789479      2.789480   1.000000   1.000000
   38        3.143860      3.143860   1.000000   1.000000
   39        3.583684      3.583685   1.000000   1.000000
   40        3.968385      3.968385   1.000000   1.000000
   41        8.262657      8.262657   0.000000   0.000000
   42        8.427293      8.427293   0.000000   0.000000
   43        9.077273      9.077272   0.000000   0.000000
   44        9.218467      9.218467   0.000000   0.000000
   45        9.319848      9.319848   0.000000   0.000000
   46        9.421270      9.421269   0.000000   0.000000
   47        9.792615      9.792615   0.000000   0.000000
   48       10.270574     10.270566   0.000000   0.000000
   49       10.379754     10.379755   0.000000   0.000000
   50       10.467033     10.467034   0.000000   0.000000
   51       10.540649     10.540663   0.000000   0.000000
   52       11.469081     11.484614   0.000000   0.000000
 
  0.1428571E+00  0.1387779E-16  0.0000000E+00  0.2040816E-01
    1      -16.399406    -16.399407   1.000000   1.000000
    2      -15.742504    -15.742505   1.000000   1.000000
    3      -14.575515    -14.575516   1.000000   1.000000
    4      -12.901940    -12.901941   1.000000   1.000000
    5      -12.576638    -12.576638   1.000000   1.000000
    6      -12.168072    -12.168072   1.000000   1.000000
    7      -12.036543    -12.036543   1.000000   1.000000
    8      -11.816768    -11.816768   1.000000   1.000000
    9      -11.533019    -11.533020   1.000000   1.000000
   10      -11.375636    -11.375636   1.000000   1.000000
   11       -9.255829     -9.255829   1.000000   1.000000
   12       -8.338299     -8.338300   1.000000   1.000000
   13       -7.886542     -7.886542   1.000000   1.000000
   14       -6.056269     -6.056270   1.000000   1.000000
   15       -5.478889     -5.478890   1.000000   1.000000
   16       -4.904746     -4.904747   1.000000   1.000000
   17       -4.361014     -4.361015   1.000000   1.000000
   18       -3.913544     -3.913544   1.000000   1.000000
   19       -3.255080     -3.255081   1.000000   1.000000
   20       -3.070310     -3.070310   1.000000   1.000000
   21       -2.599009     -2.599010   1.000000   1.000000
   22       -2.380405     -2.380406   1.000000   1.000000
   23       -2.217852     -2.217852   1.000000   1.000000
   24       -1.848672     -1.848673   1.000000   1.000000
   25       -0.078429     -0.078429   1.000000   1.000000
   26        0.276140      0.276140   1.000000   1.000000
   27        0.542781      0.542780   1.000000   1.000000
   28        0.757149      0.757149   1.000000   1.000000
   29        0.992816      0.992816   1.000000   1.000000
   30        1.209599      1.209599   1.000000   1.000000
   31        1.320030      1.320029   1.000000   1.000000
   32        1.444379      1.444379   1.000000   1.000000
   33        1.547223      1.547223   1.000000   1.000000
   34        1.979836      1.979836   1.000000   1.000000
   35        2.294426      2.294426   1.000000   1.000000
   36        2.602367      2.602366   1.000000   1.000000
   37        2.732696      2.732697   1.000000   1.000000
   38        3.078717      3.078716   1.000000   1.000000
   39        3.524039      3.524040   1.000000   1.000000
   40        3.839908      3.839908   1.000000   1.000000
   41        8.347854      8.347854   0.000000   0.000000
   42        8.456181      8.456180   0.000000   0.000000
   43        8.764260      8.764260   0.000000   0.000000
   44        9.258493      9.258492   0.000000   0.000000
   45        9.409136      9.409136   0.000000   0.000000
   46        9.594556      9.594555   0.000000   0.000000
   47        9.873343      9.873343   0.000000   0.000000
   48        9.939447      9.939444   0.000000   0.000000
   49       10.261791     10.261789   0.000000   0.000000
   50       10.793664     10.793435   0.000000   0.000000
   51       11.025498     11.021199   0.000000   0.000000
   52       11.177309     11.172613   0.000000   0.000000
 
  0.2857143E+00  0.2775558E-16  0.0000000E+00  0.2040816E-01
    1      -16.235062    -16.235063   1.000000   1.000000
    2      -15.741347    -15.741347   1.000000   1.000000
    3      -14.468977    -14.468978   1.000000   1.000000
    4      -13.382973    -13.382973   1.000000   1.000000
    5      -12.949193    -12.949194   1.000000   1.000000
    6      -12.291965    -12.291966   1.000000   1.000000
    7      -12.018941    -12.018941   1.000000   1.000000
    8      -11.713387    -11.713387   1.000000   1.000000
    9      -11.359214    -11.359215   1.000000   1.000000
   10      -11.282449    -11.282449   1.000000   1.000000
   11       -9.368636     -9.368636   1.000000   1.000000
   12       -7.939116     -7.939117   1.000000   1.000000
   13       -7.303408     -7.303408   1.000000   1.000000
   14       -6.247748     -6.247749   1.000000   1.000000
   15       -5.317296     -5.317297   1.000000   1.000000
   16       -4.980384     -4.980384   1.000000   1.000000
   17       -4.366763     -4.366763   1.000000   1.000000
   18       -4.090629     -4.090629   1.000000   1.000000
   19       -3.252307     -3.252308   1.000000   1.000000
   20       -2.924989     -2.924989   1.000000   1.000000
   21       -2.643625     -2.643625   1.000000   1.000000
   22       -2.424936     -2.424936   1.000000   1.000000
   23       -2.123026     -2.123026   1.000000   1.000000
   24       -1.926202     -1.926202   1.000000   1.000000
   25       -0.206642     -0.206643   1.000000   1.000000
   26       -0.043246     -0.043246   1.000000   1.000000
   27        0.357129      0.357129   1.000000   1.000000
   28        0.694412      0.694412   1.000000   1.000000
   29        1.087517      1.087517   1.000000   1.000000
   30        1.312892      1.312892   1.000000   1.000000
   31        1.372602      1.372601   1.000000   1.000000
   32        1.545993      1.545993   1.000000   1.000000
   33        1.764508      1.764508   1.000000   1.000000
   34        1.965809      1.965808   1.000000   1.000000
   35        2.309905      2.309905   1.000000   1.000000
   36        2.508435      2.508434   1.000000   1.000000
   37        2.586008      2.586008   1.000000   1.000000
   38        2.952290      2.952290   1.000000   1.000000
   39        3.396821      3.396821   1.000000   1.000000
   40        3.676369      3.676369   1.000000   1.000000
   41        8.049985      8.049984   0.000000   0.000000
   42        8.439531      8.439531   0.000000   0.000000
   43        8.883181      8.883181   0.000000   0.000000
   44        9.166920      9.166919   0.000000   0.000000
   45        9.532154      9.532154   0.000000   0.000000
   46        9.709089      9.709088   0.000000   0.000000
   47        9.947615      9.947614   0.000000   0.000000
   48       10.349407     10.349407   0.000000   0.000000
   49       10.628962     10.628953   0.000000   0.000000
   50       10.818107     10.818185   0.000000   0.000000
   51       11.077950     11.077897   0.000000   0.000000
   52       11.252491     11.252066   0.000000   0.000000
 
  0.4285714E+00  0.0000000E+00  0.0000000E+00  0.2040816E-01
    1      -16.023975    -16.023975   1.000000   1.000000
    2      -15.805169    -15.805170   1.000000   1.000000
    3      -14.406762    -14.406762   1.000000   1.000000
    4      -13.609490    -13.609491   1.000000   1.000000
    5      -13.213883    -13.213884   1.000000   1.000000
    6      -12.425948    -12.425948   1.000000   1.000000
    7      -12.015268    -12.015268   1.000000   1.000000
    8      -11.606865    -11.606865   1.000000   1.000000
    9      -11.376073    -11.376073   1.000000   1.000000
   10      -11.309914    -11.309914   1.000000   1.000000
   11       -9.124254     -9.124255   1.000000   1.000000
   12       -7.605031     -7.605032   1.000000   1.000000
   13       -7.376764     -7.376764   1.000000   1.000000
   14       -5.845218     -5.845219   1.000000   1.000000
   15       -5.342305     -5.342305   1.000000   1.000000
   16       -5.148529     -5.148530   1.000000   1.000000
   17       -4.410564     -4.410565   1.000000   1.000000
   18       -4.158354     -4.158355   1.000000   1.000000
   19       -3.133831     -3.133832   1.000000   1.000000
   20       -2.942564     -2.942564   1.000000   1.000000
   21       -2.606924     -2.606925   1.000000   1.000000
   22       -2.430088     -2.430089   1.000000   1.000000
   23       -2.101843     -2.101844   1.000000   1.000000
   24       -2.054990     -2.054990   1.000000   1.000000
   25       -0.266742     -0.266742   1.000000   1.000000
   26       -0.202694     -0.202694   1.000000   1.000000
   27        0.060748      0.060749   1.000000   1.000000
   28        0.729043      0.729043   1.000000   1.000000
   29        1.041979      1.041979   1.000000   1.000000
   30        1.352214      1.352213   1.000000   1.000000
   31        1.533632      1.533632   1.000000   1.000000
   32        1.599355      1.599356   1.000000   1.000000
   33        1.907505      1.907505   1.000000   1.000000
   34        2.011168      2.011168   1.000000   1.000000
   35        2.114162      2.114162   1.000000   1.000000
   36        2.382953      2.382952   1.000000   1.000000
   37        2.598013      2.598013   1.000000   1.000000
   38        2.882144      2.882143   1.000000   1.000000
   39        3.274279      3.274279   1.000000   1.000000
   40        3.698978      3.698978   1.000000   1.000000
   41        7.599813      7.599812   0.000000   0.000000
   42        8.428676      8.428676   0.000000   0.000000
   43        9.103451      9.103450   0.000000   0.000000
   44        9.357619      9.357618   0.000000   0.000000
   45        9.651102      9.651102   0.000000   0.000000
   46        9.963803      9.963803   0.000000   0.000000
   47       10.296019     10.296017   0.000000   0.000000
   48       10.477325     10.477327   0.000000   0.000000
   49       10.777608     10.777619   0.000000   0.000000
   50       10.929031     10.929044   0.000000   0.000000
   51       10.976162     10.976801   0.000000   0.000000
   52       11.101123     11.101200   0.000000   0.000000
 
  0.1428571E+00  0.1428571E+00  0.0000000E+00  0.1020408E-01
    1      -16.343343    -16.343343   1.000000   1.000000
    2      -15.761294    -15.761295   1.000000   1.000000
    3      -14.466109    -14.466110   1.000000   1.000000
    4      -12.989502    -12.989503   1.000000   1.000000
    5      -12.638165    -12.638166   1.000000   1.000000
    6      -12.615999    -12.616000   1.000000   1.000000
    7      -11.922143    -11.922143   1.000000   1.000000
    8      -11.699401    -11.699402   1.000000   1.000000
    9      -11.591257    -11.591257   1.000000   1.000000
   10      -11.394082    -11.394082   1.000000   1.000000
   11       -8.542834     -8.542834   1.000000   1.000000
   12       -8.283988     -8.283988   1.000000   1.000000
   13       -8.243417     -8.243418   1.000000   1.000000
   14       -6.299176     -6.299177   1.000000   1.000000
   15       -5.133199     -5.133199   1.000000   1.000000
   16       -4.880245     -4.880245   1.000000   1.000000
   17       -4.315803     -4.315803   1.000000   1.000000
   18       -3.854069     -3.854070   1.000000   1.000000
   19       -3.341493     -3.341493   1.000000   1.000000
   20       -3.173646     -3.173647   1.000000   1.000000
   21       -2.541610     -2.541611   1.000000   1.000000
   22       -2.403866     -2.403867   1.000000   1.000000
   23       -2.273770     -2.273771   1.000000   1.000000
   24       -1.873131     -1.873131   1.000000   1.000000
   25       -0.157195     -0.157195   1.000000   1.000000
   26        0.239347      0.239347   1.000000   1.000000
   27        0.333373      0.333373   1.000000   1.000000
   28        0.775253      0.775252   1.000000   1.000000
   29        0.972453      0.972453   1.000000   1.000000
   30        1.274938      1.274938   1.000000   1.000000
   31        1.330446      1.330446   1.000000   1.000000
   32        1.563489      1.563489   1.000000   1.000000
   33        1.585918      1.585918   1.000000   1.000000
   34        2.018745      2.018745   1.000000   1.000000
   35        2.329340      2.329340   1.000000   1.000000
   36        2.567049      2.567049   1.000000   1.000000
   37        2.684811      2.684811   1.000000   1.000000
   38        3.029247      3.029246   1.000000   1.000000
   39        3.414457      3.414457   1.000000   1.000000
   40        3.747187      3.747186   1.000000   1.000000
   41        8.391783      8.391783   0.000000   0.000000
   42        8.619782      8.619782   0.000000   0.000000
   43        8.733761      8.733761   0.000000   0.000000
   44        8.779292      8.779292   0.000000   0.000000
   45        9.577958      9.577958   0.000000   0.000000
   46        9.642983      9.642982   0.000000   0.000000
   47        9.880355      9.880353   0.000000   0.000000
   48       10.117264     10.117264   0.000000   0.000000
   49       10.273782     10.273781   0.000000   0.000000
   50       10.636017     10.636018   0.000000   0.000000
   51       11.001307     11.001303   0.000000   0.000000
   52       11.452377     11.450077   0.000000   0.000000
 
  0.2857143E+00  0.1428571E+00  0.0000000E+00  0.2040816E-01
    1      -16.178514    -16.178514   1.000000   1.000000
    2      -15.763229    -15.763229   1.000000   1.000000
    3      -14.321412    -14.321413   1.000000   1.000000
    4      -13.411202    -13.411203   1.000000   1.000000
    5      -13.064090    -13.064091   1.000000   1.000000
    6      -12.675417    -12.675418   1.000000   1.000000
    7      -11.889533    -11.889533   1.000000   1.000000
    8      -11.672145    -11.672146   1.000000   1.000000
    9      -11.451797    -11.451797   1.000000   1.000000
   10      -11.373498    -11.373498   1.000000   1.000000
   11       -8.591991     -8.591991   1.000000   1.000000
   12       -7.944813     -7.944813   1.000000   1.000000
   13       -7.676325     -7.676326   1.000000   1.000000
   14       -6.441599     -6.441600   1.000000   1.000000
   15       -4.957279     -4.957279   1.000000   1.000000
   16       -4.895093     -4.895093   1.000000   1.000000
   17       -4.299760     -4.299760   1.000000   1.000000
   18       -3.981012     -3.981013   1.000000   1.000000
   19       -3.427386     -3.427387   1.000000   1.000000
   20       -3.118704     -3.118705   1.000000   1.000000
   21       -2.608164     -2.608165   1.000000   1.000000
   22       -2.321691     -2.321692   1.000000   1.000000
   23       -2.299886     -2.299886   1.000000   1.000000
   24       -1.907504     -1.907504   1.000000   1.000000
   25       -0.265085     -0.265085   1.000000   1.000000
   26        0.093370      0.093370   1.000000   1.000000
   27        0.178021      0.178021   1.000000   1.000000
   28        0.622728      0.622727   1.000000   1.000000
   29        0.993280      0.993279   1.000000   1.000000
   30        1.202142      1.202143   1.000000   1.000000
   31        1.380882      1.380882   1.000000   1.000000
   32        1.694380      1.694380   1.000000   1.000000
   33        1.836163      1.836162   1.000000   1.000000
   34        2.023892      2.023891   1.000000   1.000000
   35        2.339208      2.339208   1.000000   1.000000
   36        2.470090      2.470089   1.000000   1.000000
   37        2.609966      2.609965   1.000000   1.000000
   38        2.905153      2.905153   1.000000   1.000000
   39        3.287468      3.287468   1.000000   1.000000
   40        3.570208      3.570208   1.000000   1.000000
   41        8.099862      8.099862   0.000000   0.000000
   42        8.636530      8.636530   0.000000   0.000000
   43        8.769175      8.769175   0.000000   0.000000
   44        9.154036      9.154036   0.000000   0.000000
   45        9.308415      9.308414   0.000000   0.000000
   46        9.735614      9.735614   0.000000   0.000000
   47        9.912206      9.912207   0.000000   0.000000
   48       10.318078     10.318080   0.000000   0.000000
   49       10.488174     10.488172   0.000000   0.000000
   50       10.728469     10.728468   0.000000   0.000000
   51       11.309859     11.309928   0.000000   0.000000
   52       11.496312     11.498690   0.000000   0.000000
 
  0.4285714E+00  0.1428571E+00  0.0000000E+00  0.2040816E-01
    1      -15.959573    -15.959573   1.000000   1.000000
    2      -15.799179    -15.799180   1.000000   1.000000
    3      -14.295943    -14.295944   1.000000   1.000000
    4      -13.727036    -13.727037   1.000000   1.000000
    5      -13.300606    -13.300607   1.000000   1.000000
    6      -12.644342    -12.644343   1.000000   1.000000
    7      -11.901858    -11.901858   1.000000   1.000000
    8      -11.628556    -11.628556   1.000000   1.000000
    9      -11.452897    -11.452897   1.000000   1.000000
   10      -11.372138    -11.372139   1.000000   1.000000
   11       -8.616966     -8.616967   1.000000   1.000000
   12       -7.616184     -7.616184   1.000000   1.000000
   13       -7.448245     -7.448245   1.000000   1.000000
   14       -6.002593     -6.002594   1.000000   1.000000
   15       -5.321290     -5.321290   1.000000   1.000000
   16       -4.898837     -4.898837   1.000000   1.000000
   17       -4.257652     -4.257652   1.000000   1.000000
   18       -4.213070     -4.213070   1.000000   1.000000
   19       -3.315948     -3.315949   1.000000   1.000000
   20       -3.031133     -3.031134   1.000000   1.000000
   21       -2.677845     -2.677845   1.000000   1.000000
   22       -2.415121     -2.415121   1.000000   1.000000
   23       -2.136321     -2.136321   1.000000   1.000000
   24       -1.957077     -1.957078   1.000000   1.000000
   25       -0.309363     -0.309364   1.000000   1.000000
   26       -0.055124     -0.055124   1.000000   1.000000
   27        0.052928      0.052928   1.000000   1.000000
   28        0.509817      0.509817   1.000000   1.000000
   29        1.095567      1.095567   1.000000   1.000000
   30        1.293788      1.293788   1.000000   1.000000
   31        1.395004      1.395004   1.000000   1.000000
   32        1.628287      1.628287   1.000000   1.000000
   33        1.903752      1.903752   1.000000   1.000000
   34        2.027980      2.027980   1.000000   1.000000
   35        2.103407      2.103407   1.000000   1.000000
   36        2.415522      2.415522   1.000000   1.000000
   37        2.635818      2.635818   1.000000   1.000000
   38        2.897596      2.897596   1.000000   1.000000
   39        3.195266      3.195266   1.000000   1.000000
   40        3.585271      3.585271   1.000000   1.000000
   41        7.675048      7.675047   0.000000   0.000000
   42        8.765920      8.765920   0.000000   0.000000
   43        9.018609      9.018609   0.000000   0.000000
   44        9.152153      9.152152   0.000000   0.000000
   45        9.566856      9.566856   0.000000   0.000000
   46        9.788083      9.788085   0.000000   0.000000
   47        9.860294      9.860294   0.000000   0.000000
   48       10.556922     10.556927   0.000000   0.000000
   49       10.716125     10.716128   0.000000   0.000000
   50       10.946102     10.946003   0.000000   0.000000
   51       11.290597     11.292679   0.000000   0.000000
   52       11.527473     11.526068   0.000000   0.000000
 
 -0.4285714E+00  0.1428571E+00  0.0000000E+00  0.2040816E-01
    1      -15.980363    -15.980363   1.000000   1.000000
    2      -15.726461    -15.726462   1.000000   1.000000
    3      -14.390295    -14.390295   1.000000   1.000000
    4      -13.841730    -13.841731   1.000000   1.000000
    5      -13.281566    -13.281567   1.000000   1.000000
    6      -12.384416    -12.384416   1.000000   1.000000
    7      -11.924328    -11.924328   1.000000   1.000000
    8      -11.600581    -11.600582   1.000000   1.000000
    9      -11.522854    -11.522854   1.000000   1.000000
   10      -11.361865    -11.361865   1.000000   1.000000
   11       -9.030848     -9.030848   1.000000   1.000000
   12       -7.361390     -7.361390   1.000000   1.000000
   13       -7.160680     -7.160680   1.000000   1.000000
   14       -5.825683     -5.825684   1.000000   1.000000
   15       -5.463034     -5.463035   1.000000   1.000000
   16       -5.157893     -5.157893   1.000000   1.000000
   17       -4.422809     -4.422809   1.000000   1.000000
   18       -4.277316     -4.277317   1.000000   1.000000
   19       -3.134660     -3.134661   1.000000   1.000000
   20       -3.041706     -3.041706   1.000000   1.000000
   21       -2.677944     -2.677945   1.000000   1.000000
   22       -2.353994     -2.353995   1.000000   1.000000
   23       -2.130833     -2.130833   1.000000   1.000000
   24       -1.897789     -1.897790   1.000000   1.000000
   25       -0.310337     -0.310337   1.000000   1.000000
   26       -0.047670     -0.047671   1.000000   1.000000
   27        0.063425      0.063426   1.000000   1.000000
   28        0.671996      0.671996   1.000000   1.000000
   29        1.051440      1.051440   1.000000   1.000000
   30        1.315883      1.315883   1.000000   1.000000
   31        1.396501      1.396502   1.000000   1.000000
   32        1.502221      1.502220   1.000000   1.000000
   33        1.774747      1.774747   1.000000   1.000000
   34        2.048904      2.048904   1.000000   1.000000
   35        2.132281      2.132280   1.000000   1.000000
   36        2.445207      2.445207   1.000000   1.000000
   37        2.552184      2.552184   1.000000   1.000000
   38        2.892583      2.892583   1.000000   1.000000
   39        3.235449      3.235449   1.000000   1.000000
   40        3.634828      3.634827   1.000000   1.000000
   41        7.683210      7.683209   0.000000   0.000000
   42        8.489728      8.489727   0.000000   0.000000
   43        9.137758      9.137758   0.000000   0.000000
   44        9.469628      9.469628   0.000000   0.000000
   45        9.572757      9.572756   0.000000   0.000000
   46        9.707259      9.707259   0.000000   0.000000
   47        9.916812      9.916812   0.000000   0.000000
   48       10.706531     10.706522   0.000000   0.000000
   49       10.756640     10.756622   0.000000   0.000000
   50       10.799585     10.799596   0.000000   0.000000
   51       11.330730     11.329249   0.000000   0.000000
   52       11.489820     11.487865   0.000000   0.000000
 
 -0.2857143E+00  0.1428571E+00  0.2775558E-16  0.2040816E-01
    1      -16.176341    -16.176342   1.000000   1.000000
    2      -15.662078    -15.662078   1.000000   1.000000
    3      -14.506055    -14.506055   1.000000   1.000000
    4      -13.658941    -13.658941   1.000000   1.000000
    5      -13.070503    -13.070504   1.000000   1.000000
    6      -12.068649    -12.068649   1.000000   1.000000
    7      -11.951814    -11.951814   1.000000   1.000000
    8      -11.765746    -11.765746   1.000000   1.000000
    9      -11.359929    -11.359930   1.000000   1.000000
   10      -11.307938    -11.307938   1.000000   1.000000
   11       -9.637065     -9.637066   1.000000   1.000000
   12       -7.575089     -7.575090   1.000000   1.000000
   13       -6.718884     -6.718885   1.000000   1.000000
   14       -6.217507     -6.217507   1.000000   1.000000
   15       -5.773821     -5.773821   1.000000   1.000000
   16       -4.906427     -4.906427   1.000000   1.000000
   17       -4.453512     -4.453513   1.000000   1.000000
   18       -4.330853     -4.330854   1.000000   1.000000
   19       -3.194297     -3.194298   1.000000   1.000000
   20       -2.950975     -2.950975   1.000000   1.000000
   21       -2.549497     -2.549498   1.000000   1.000000
   22       -2.449766     -2.449767   1.000000   1.000000
   23       -2.072286     -2.072286   1.000000   1.000000
   24       -1.834945     -1.834946   1.000000   1.000000
   25       -0.304720     -0.304720   1.000000   1.000000
   26        0.174151      0.174151   1.000000   1.000000
   27        0.356291      0.356291   1.000000   1.000000
   28        0.818363      0.818362   1.000000   1.000000
   29        0.864919      0.864919   1.000000   1.000000
   30        1.163676      1.163676   1.000000   1.000000
   31        1.336492      1.336491   1.000000   1.000000
   32        1.563704      1.563704   1.000000   1.000000
   33        1.736735      1.736735   1.000000   1.000000
   34        2.021318      2.021317   1.000000   1.000000
   35        2.227170      2.227170   1.000000   1.000000
   36        2.461978      2.461978   1.000000   1.000000
   37        2.556572      2.556572   1.000000   1.000000
   38        2.945425      2.945424   1.000000   1.000000
   39        3.359966      3.359966   1.000000   1.000000
   40        3.636085      3.636085   1.000000   1.000000
   41        8.120073      8.120072   0.000000   0.000000
   42        8.319113      8.319113   0.000000   0.000000
   43        8.869057      8.869056   0.000000   0.000000
   44        9.197105      9.197105   0.000000   0.000000
   45        9.561490      9.561489   0.000000   0.000000
   46        9.895699      9.895699   0.000000   0.000000
   47        9.969173      9.969172   0.000000   0.000000
   48       10.423313     10.423314   0.000000   0.000000
   49       10.577638     10.577640   0.000000   0.000000
   50       10.642912     10.642913   0.000000   0.000000
   51       11.234460     11.235165   0.000000   0.000000
   52       11.492215     11.494836   0.000000   0.000000
 
 -0.1428571E+00  0.1428571E+00  0.0000000E+00  0.1020408E-01
    1      -16.336831    -16.336831   1.000000   1.000000
    2      -15.695496    -15.695496   1.000000   1.000000
    3      -14.586065    -14.586066   1.000000   1.000000
    4      -13.258292    -13.258292   1.000000   1.000000
    5      -12.757225    -12.757225   1.000000   1.000000
    6      -12.003137    -12.003137   1.000000   1.000000
    7      -11.982389    -11.982390   1.000000   1.000000
    8      -11.861449    -11.861450   1.000000   1.000000
    9      -11.354082    -11.354082   1.000000   1.000000
   10      -11.222872    -11.222872   1.000000   1.000000
   11       -9.842051     -9.842052   1.000000   1.000000
   12       -8.044352     -8.044353   1.000000   1.000000
   13       -7.179631     -7.179632   1.000000   1.000000
   14       -5.952380     -5.952380   1.000000   1.000000
   15       -5.895541     -5.895542   1.000000   1.000000
   16       -4.867002     -4.867002   1.000000   1.000000
   17       -4.408292     -4.408293   1.000000   1.000000
   18       -4.165842     -4.165843   1.000000   1.000000
   19       -3.224835     -3.224836   1.000000   1.000000
   20       -2.787699     -2.787699   1.000000   1.000000
   21       -2.762622     -2.762623   1.000000   1.000000
   22       -2.432076     -2.432076   1.000000   1.000000
   23       -2.080327     -2.080328   1.000000   1.000000
   24       -1.826588     -1.826589   1.000000   1.000000
   25       -0.214615     -0.214615   1.000000   1.000000
   26        0.442593      0.442594   1.000000   1.000000
   27        0.520164      0.520164   1.000000   1.000000
   28        0.840362      0.840361   1.000000   1.000000
   29        0.840920      0.840920   1.000000   1.000000
   30        1.089838      1.089838   1.000000   1.000000
   31        1.280004      1.280003   1.000000   1.000000
   32        1.530836      1.530836   1.000000   1.000000
   33        1.611199      1.611198   1.000000   1.000000
   34        1.963379      1.963379   1.000000   1.000000
   35        2.357320      2.357320   1.000000   1.000000