       N       E                     dE             d eps       ncg     rms          rms(c)
DAV:   1     0.477667183942E+03    0.47767E+03   -0.40052E+04 12480   0.141E+03
DAV:   2    -0.100157775341E+03   -0.57782E+03   -0.55604E+03 16036   0.312E+02
DAV:   3    -0.138780741619E+03   -0.38623E+02   -0.38311E+02 15336   0.878E+01
DAV:   4    -0.139625956765E+03   -0.84522E+00   -0.84213E+00 16240   0.132E+01
DAV:   5    -0.139647721951E+03   -0.21765E-01   -0.21733E-01 15328   0.205E+00    0.434E+01
RMM:   6    -0.120767796369E+03    0.18880E+02   -0.67752E+01 12480   0.287E+01    0.181E+01
RMM:   7    -0.120736003620E+03    0.31793E-01   -0.89058E+00 12521   0.104E+01    0.743E+00
RMM:   8    -0.120619383076E+03    0.11662E+00   -0.82447E-01 12556   0.383E+00    0.105E+00
RMM:   9    -0.120599272938E+03    0.20110E-01   -0.14936E-01 12544   0.135E+00    0.571E-01
RMM:  10    -0.120601400002E+03   -0.21271E-02   -0.10305E-02 13667   0.334E-01    0.339E-01
RMM:  11    -0.120602118029E+03   -0.71803E-03   -0.38434E-03 12484   0.240E-01    0.121E-01
RMM:  12    -0.120601974349E+03    0.14368E-03   -0.28015E-04 12480   0.684E-02    0.559E-02
RMM:  13    -0.120601948451E+03    0.25899E-04   -0.42351E-04 12305   0.671E-02    0.295E-02
RMM:  14    -0.120601949207E+03   -0.75568E-06   -0.36729E-05  9689   0.242E-02
   1 F= -.12060195E+03 E0= -.12060195E+03  d E =-.120602E+03  mag=     0.0000
       N       E                     dE             d eps       ncg     rms          rms(c)
DAV:   1    -0.120601552731E+03    0.39572E-03   -0.82279E-02 15028   0.138E+00    0.197E-01
RMM:   2    -0.120601554405E+03   -0.16745E-05   -0.28143E-03 12481   0.244E-01    0.735E-02
RMM:   3    -0.120601470601E+03    0.83805E-04   -0.27254E-04 12565   0.644E-02    0.352E-02
RMM:   4    -0.120601461275E+03    0.93255E-05   -0.53386E-05 10750   0.277E-02
   2 F= -.12060146E+03 E0= -.12060146E+03  d E =0.487931E-03  mag=    -0.0000
       N       E                     dE             d eps       ncg     rms          rms(c)
DAV:   1    -0.120602085343E+03   -0.61474E-03   -0.43564E-02 14232   0.101E+00    0.142E-01
RMM:   2    -0.120602077997E+03    0.73459E-05   -0.13913E-03 12480   0.174E-01    0.530E-02
RMM:   3    -0.120602033827E+03    0.44169E-04   -0.13260E-04 12472   0.453E-02    0.250E-02
RMM:   4    -0.120602028350E+03    0.54771E-05   -0.23399E-05  7793   0.196E-02
   3 F= -.12060203E+03 E0= -.12060203E+03  d E =-.791438E-04  mag=     0.0000
