 vasp.5.4.4.18Apr17-6-g9f103f2a35 (build Aug 12 2020 11:57:02) complex          
  
 executed on             LinuxIFC date 2021.01.31  03:40:23
 running on   24 total cores
 distrk:  each k-point on   24 cores,    1 groups
 distr:  one band on NCORES_PER_BAND=   6 cores,    4 groups


--------------------------------------------------------------------------------------------------------


 INCAR:
 POTCAR:    PAW_PBE P 06Sep2000                   
 POTCAR:    PAW_PBE N 08Apr2002                   
 POTCAR:    PAW_PBE P 06Sep2000                   
   VRHFIN =P : s2p3                                                             
   LEXCH  = PE                                                                  
   EATOM  =   176.0430 eV,   12.9388 Ry                                         
                                                                                
   TITEL  = PAW_PBE P 06Sep2000                                                 
   LULTRA =        F    use ultrasoft PP ?                                      
   IUNSCR =        1    unscreen: 0-lin 1-nonlin 2-no                           
   RPACOR =    1.500    partial core radius                                     
   POMASS =   30.974; ZVAL   =    5.000    mass and valenz                      
   RCORE  =    1.900    outmost cutoff radius                                   
   RWIGS  =    2.330; RWIGS  =    1.233    wigner-seitz radius (au A)           
   ENMAX  =  255.040; ENMIN  =  191.280 eV                                      
   ICORE  =        2    local potential                                         
   LCOR   =        T    correct aug charges                                     
   LPAW   =        T    paw PP                                                  
   EAUG   =  342.924                                                            
   DEXC   =    0.000                                                            
   RMAX   =    1.935    core radius for proj-oper                               
   RAUG   =    1.300    factor for augmentation sphere                          
   RDEP   =    1.931    radius for radial grids                                 
   RDEPT  =    1.794    core radius for aug-charge                              
                                                                                
   Atomic configuration                                                         
    6 entries                                                                   
     n  l   j            E        occ.                                          
     1  0  0.50     -2084.0982   2.0000                                         
     2  0  0.50      -173.9859   2.0000                                         
     2  1  1.50      -124.4865   6.0000                                         
     3  0  0.50       -13.9692   2.0000                                         
     3  1  0.50        -5.5067   3.0000                                         
     3  2  1.50        -5.4423   0.0000                                         
   Description                                                                  
     l       E           TYP  RCUT    TYP  RCUT                                 
     0    -13.9691527     23  1.900                                             
     0    -11.7794650     23  1.900                                             
     1     -5.5066937     23  1.900                                             
     1     -0.2556953     23  1.900                                             
     2     -5.4423304     23  1.900                                             
  local pseudopotential read in
  partial core-charges read in
  partial kinetic energy density read in
  atomic valenz-charges read in
  non local Contribution for L=           0  read in
    real space projection operators read in
  non local Contribution for L=           0  read in
    real space projection operators read in
  non local Contribution for L=           1  read in
    real space projection operators read in
  non local Contribution for L=           1  read in
    real space projection operators read in
    PAW grid and wavefunctions read in
 
   number of l-projection  operators is LMAX  =           4
   number of lm-projection operators is LMMAX =           8
 
 POTCAR:    PAW_PBE N 08Apr2002                   
   VRHFIN =N: s2p3                                                              
   LEXCH  = PE                                                                  
   EATOM  =   264.5486 eV,   19.4438 Ry                                         
                                                                                
   TITEL  = PAW_PBE N 08Apr2002                                                 
   LULTRA =        F    use ultrasoft PP ?                                      
   IUNSCR =        1    unscreen: 0-lin 1-nonlin 2-no                           
   RPACOR =    1.200    partial core radius                                     
   POMASS =   14.001; ZVAL   =    5.000    mass and valenz                      
   RCORE  =    1.500    outmost cutoff radius                                   
   RWIGS  =    1.400; RWIGS  =    0.741    wigner-seitz radius (au A)           
   ENMAX  =  400.000; ENMIN  =  300.000 eV                                      
   ICORE  =        2    local potential                                         
   LCOR   =        T    correct aug charges                                     
   LPAW   =        T    paw PP                                                  
   EAUG   =  627.112                                                            
   DEXC   =    0.000                                                            
   RMAX   =    1.529    core radius for proj-oper                               
   RAUG   =    1.300    factor for augmentation sphere                          
   RDEP   =    1.514    radius for radial grids                                 
   RDEPT  =    1.338    core radius for aug-charge                              
                                                                                
   Atomic configuration                                                         
    4 entries                                                                   
     n  l   j            E        occ.                                          
     1  0  0.50      -384.7179   2.0000                                         
     2  0  0.50       -18.5828   2.0000                                         
     2  1  0.50        -7.0898   3.0000                                         
     3  2  1.50        -6.8029   0.0000                                         
   Description                                                                  
     l       E           TYP  RCUT    TYP  RCUT                                 
     0    -18.5828119     23  1.200                                             
     0    -13.5018863     23  1.200                                             
     1     -7.0897853     23  1.500                                             
     1      9.5240782     23  1.500                                             
     2     -6.8029130      7  1.500                                             
  local pseudopotential read in
  partial core-charges read in
  partial kinetic energy density read in
  atomic valenz-charges read in
  non local Contribution for L=           0  read in
    real space projection operators read in
  non local Contribution for L=           0  read in
    real space projection operators read in
  non local Contribution for L=           1  read in
    real space projection operators read in
  non local Contribution for L=           1  read in
    real space projection operators read in
    PAW grid and wavefunctions read in
 
   number of l-projection  operators is LMAX  =           4
   number of lm-projection operators is LMMAX =           8
 
 Optimization of the real space projectors (new method)

 maximal supplied QI-value         = 19.84
 optimisation between [QCUT,QGAM] = [ 11.51, 23.22] = [ 37.09,150.92] Ry 
 Optimized for a Real-space Cutoff    1.21 Angstroem

   l    n(q)    QCUT    max X(q) W(low)/X(q) W(high)/X(q)  e(spline) 
   0      8    11.508   160.924    0.96E-04    0.17E-03    0.52E-07
   0      8    11.508   130.086    0.95E-04    0.17E-03    0.51E-07
   1      8    11.508    74.434    0.16E-03    0.74E-04    0.91E-07
   1      8    11.508    49.120    0.16E-03    0.71E-04    0.89E-07
 Optimization of the real space projectors (new method)

 maximal supplied QI-value         = 25.13
 optimisation between [QCUT,QGAM] = [ 11.56, 23.12] = [ 37.43,149.72] Ry 
 Optimized for a Real-space Cutoff    1.40 Angstroem

   l    n(q)    QCUT    max X(q) W(low)/X(q) W(high)/X(q)  e(spline) 
   0     10    11.561    79.467    0.46E-04    0.78E-04    0.61E-06
   0     10    11.561    66.151    0.45E-04    0.77E-04    0.61E-06
   1      9    11.561    18.886    0.22E-03    0.13E-03    0.12E-05
   1      9    11.561    13.488    0.23E-03    0.13E-03    0.12E-05
  PAW_PBE P 06Sep2000                   :
 energy of atom  1       EATOM= -176.0430
 kinetic energy error for atom=    0.0011 (will be added to EATOM!!)
  PAW_PBE N 08Apr2002                   :
 energy of atom  2       EATOM= -264.5486
 kinetic energy error for atom=    0.0125 (will be added to EATOM!!)
 
 
 POSCAR: P6 N10                                  
  positions in direct lattice
  No initial velocities read in
 exchange correlation table for  LEXCH =        8
   RHO(1)=    0.500       N(1)  =     2000
   RHO(2)=  100.500       N(2)  =     4000
 


--------------------------------------------------------------------------------------------------------


 ion  position               nearest neighbor table
   1  0.482  0.518  0.250-   8 1.57  11 1.57   9 1.68  14 1.68
   2  0.662  0.070  0.555-  13 1.56  15 1.57   7 1.71   9 1.72   4 2.57
   3  0.070  0.662  0.055-  16 1.56   8 1.57  14 1.71  10 1.72   5 2.57
   4  0.338  0.930  0.445-  13 1.56  11 1.57   9 1.71   7 1.72   2 2.57
   5  0.930  0.338  0.945-  16 1.56  12 1.57  10 1.71  14 1.72   3 2.57
   6  0.518  0.482  0.750-  12 1.57  15 1.57   7 1.68  10 1.68
   7  0.501  0.789  0.600-   6 1.68   2 1.71   4 1.72
   8  0.229  0.508  0.192-   3 1.57   1 1.57
   9  0.499  0.211  0.400-   1 1.68   4 1.71   2 1.72
  10  0.211  0.499  0.900-   6 1.68   5 1.71   3 1.72
  11  0.492  0.771  0.308-   4 1.57   1 1.57
  12  0.771  0.492  0.808-   5 1.57   6 1.57
  13  0.000  0.000  0.500-   2 1.56   4 1.56
  14  0.789  0.501  0.100-   1 1.68   3 1.71   5 1.72
  15  0.508  0.229  0.692-   2 1.57   6 1.57
  16  0.000  0.000  0.000-   3 1.56   5 1.56
 
  LATTYP: Found a base centered monoclinic cell.
 ALAT       =     8.1858000000
 B/A-ratio  =     0.7201900853
 C/A-ratio  =     1.8036732641
 COS(beta)  =    -0.6701037082
  
  Lattice vectors:
  
 A1 = (  -2.9476660000,   4.0929000000,   0.0000000000)
 A2 = (   2.9476660000,   4.0929000000,   0.0000000000)
 A3 = (   0.0000000000, -12.1925140000,  -8.3266630000)


Analysis of symmetry for initial positions (statically):
=====================================================================
 Subroutine PRICEL returns:
 Original cell was already a primitive cell.
 

 Routine SETGRP: Setting up the symmetry group for a 
 base centered monoclinic supercell.


 Subroutine GETGRP returns: Found  4 space group operations
 (whereof  2 operations were pure point group operations)
 out of a pool of  4 trial point group operations.


The static configuration has the point symmetry S_2 .
 The point group associated with its full space group is C_2h.


Analysis of symmetry for dynamics (positions and initial velocities):
=====================================================================
 Subroutine PRICEL returns:
 Original cell was already a primitive cell.
 

 Routine SETGRP: Setting up the symmetry group for a 
 base centered monoclinic supercell.


 Subroutine GETGRP returns: Found  4 space group operations
 (whereof  2 operations were pure point group operations)
 out of a pool of  4 trial point group operations.


The dynamic configuration has the point symmetry S_2 .
 The point group associated with its full space group is C_2h.


Analysis of structural, dynamic, and magnetic symmetry:
=====================================================================
 Subroutine PRICEL returns:
 Original cell was already a primitive cell.
 

 Routine SETGRP: Setting up the symmetry group for a 
 base centered monoclinic supercell.


 Subroutine GETGRP returns: Found  4 space group operations
 (whereof  2 operations were pure point group operations)
 out of a pool of  4 trial point group operations.


The magnetic configuration has the point symmetry S_2 .
 The point group associated with its full space group is C_2h.


 Subroutine INISYM returns: Found  4 space group operations
 (whereof  2 operations are pure point group operations),
 and found     1 'primitive' translations

 
 
 KPOINTS: Fully automatic kpoint scheme           

Automatic generation of k-mesh.
 generate k-points for:    7    7    4
Space group operators:
 irot       det(A)        alpha          n_x          n_y          n_z        tau_x        tau_y        tau_z
    1     1.000000     0.000000     1.000000     0.000000     0.000000     0.000000     0.000000     0.000000
    2    -1.000000     0.000000     1.000000     0.000000     0.000000     0.000000     0.000000     0.000000
    3     1.000000   180.000000     1.000000     0.000000     0.000000     0.000000     0.000000    -0.500000
    4    -1.000000   180.000000     1.000000     0.000000     0.000000     0.000000     0.000000    -0.500000
 
 Subroutine IBZKPT returns following result:
 ===========================================
 
 Found     60 irreducible k-points:
 
 Following reciprocal coordinates:
            Coordinates               Weight
  0.000000  0.000000  0.000000      1.000000
  0.142857  0.000000  0.000000      4.000000
  0.285714  0.000000  0.000000      4.000000
  0.428571  0.000000  0.000000      4.000000
  0.142857  0.142857  0.000000      2.000000
  0.285714  0.142857  0.000000      4.000000
  0.428571  0.142857  0.000000      4.000000
 -0.428571  0.142857  0.000000      4.000000
 -0.285714  0.142857  0.000000      4.000000
 -0.142857  0.142857  0.000000      2.000000
  0.285714  0.285714  0.000000      2.000000
  0.428571  0.285714 -0.000000      4.000000
 -0.428571  0.285714  0.000000      4.000000
 -0.285714  0.285714  0.000000      2.000000
  0.428571  0.428571  0.000000      2.000000
 -0.428571  0.428571  0.000000      2.000000
  0.000000  0.000000  0.250000      2.000000
  0.142857  0.000000  0.250000      4.000000
  0.285714  0.000000  0.250000      4.000000
  0.428571  0.000000  0.250000      4.000000
 -0.428571  0.000000  0.250000      4.000000
 -0.285714 -0.000000  0.250000      4.000000
 -0.142857  0.000000  0.250000      4.000000
  0.142857  0.142857  0.250000      2.000000
  0.285714  0.142857  0.250000      4.000000
  0.428571  0.142857  0.250000      4.000000
 -0.428571  0.142857  0.250000      4.000000
 -0.285714  0.142857  0.250000      4.000000
 -0.142857  0.142857  0.250000      4.000000
  0.285714  0.285714  0.250000      2.000000
  0.428571  0.285714  0.250000      4.000000
 -0.428571  0.285714  0.250000      4.000000
 -0.285714  0.285714  0.250000      4.000000
 -0.142857  0.285714  0.250000      4.000000
  0.428571  0.428571  0.250000      2.000000
 -0.428571  0.428571  0.250000      4.000000
 -0.285714  0.428571  0.250000      4.000000
 -0.142857  0.428571  0.250000      4.000000
 -0.428571 -0.428571  0.250000      2.000000
 -0.285714 -0.428571  0.250000      4.000000
 -0.142857 -0.428571  0.250000      4.000000
 -0.285714 -0.285714  0.250000      2.000000
 -0.142857 -0.285714  0.250000      4.000000
 -0.142857 -0.142857  0.250000      2.000000
  0.000000  0.000000  0.500000      1.000000
  0.142857  0.000000  0.500000      4.000000
  0.285714  0.000000  0.500000      4.000000
  0.428571  0.000000  0.500000      4.000000
  0.142857  0.142857  0.500000      2.000000
  0.285714  0.142857  0.500000      4.000000
  0.428571  0.142857  0.500000      4.000000
 -0.428571  0.142857  0.500000      4.000000
 -0.285714  0.142857  0.500000      4.000000
 -0.142857  0.142857  0.500000      2.000000
  0.285714  0.285714  0.500000      2.000000
  0.428571  0.285714  0.500000      4.000000
 -0.428571  0.285714  0.500000      4.000000
 -0.285714  0.285714  0.500000      2.000000
  0.428571  0.428571  0.500000      2.000000
 -0.428571  0.428571  0.500000      2.000000
 
 Following cartesian coordinates:
            Coordinates               Weight
  0.000000  0.000000  0.000000      1.000000
  0.024232  0.017452 -0.008398      4.000000
  0.048464  0.034904 -0.016795      4.000000
  0.072697  0.052355 -0.025193      4.000000
  0.000000  0.034904 -0.016795      2.000000
  0.024232  0.052355 -0.025193      4.000000
  0.048464  0.069807 -0.033591      4.000000
 -0.096929 -0.034904  0.016795      4.000000
 -0.072697 -0.017452  0.008398      4.000000
 -0.048464  0.000000  0.000000      2.000000
  0.000000  0.069807 -0.033591      2.000000
  0.024232  0.087259 -0.041988      4.000000
 -0.121161 -0.017452  0.008398      4.000000
 -0.096929  0.000000  0.000000      2.000000
  0.000000  0.104711 -0.050386      2.000000
 -0.145393  0.000000  0.000000      2.000000
  0.000000  0.000000  0.030024      2.000000
  0.024232  0.017452  0.021626      4.000000
  0.048464  0.034904  0.013229      4.000000
  0.072697  0.052355  0.004831      4.000000
 -0.072697 -0.052355  0.055217      4.000000
 -0.048464 -0.034904  0.046819      4.000000
 -0.024232 -0.017452  0.038422      4.000000
  0.000000  0.034904  0.013229      2.000000
  0.024232  0.052355  0.004831      4.000000
  0.048464  0.069807 -0.003567      4.000000
 -0.096929 -0.034904  0.046819      4.000000
 -0.072697 -0.017452  0.038422      4.000000
 -0.048464  0.000000  0.030024      4.000000
  0.000000  0.069807 -0.003567      2.000000
  0.024232  0.087259 -0.011964      4.000000
 -0.121161 -0.017452  0.038422      4.000000
 -0.096929  0.000000  0.030024      4.000000
 -0.072697  0.017452  0.021626      4.000000
  0.000000  0.104711 -0.020362      2.000000
 -0.145393  0.000000  0.030024      4.000000
 -0.121161  0.017452  0.021626      4.000000
 -0.096929  0.034904  0.013229      4.000000
  0.000000 -0.104711  0.080410      2.000000
  0.024232 -0.087259  0.072012      4.000000
  0.048464 -0.069807  0.063615      4.000000
  0.000000 -0.069807  0.063615      2.000000
  0.024232 -0.052355  0.055217      4.000000
  0.000000 -0.034904  0.046819      2.000000
  0.000000  0.000000  0.060048      1.000000
  0.024232  0.017452  0.051650      4.000000
  0.048464  0.034904  0.043253      4.000000
  0.072697  0.052355  0.034855      4.000000
  0.000000  0.034904  0.043253      2.000000
  0.024232  0.052355  0.034855      4.000000
  0.048464  0.069807  0.026457      4.000000
 -0.096929 -0.034904  0.076843      4.000000
 -0.072697 -0.017452  0.068446      4.000000
 -0.048464  0.000000  0.060048      2.000000
  0.000000  0.069807  0.026457      2.000000
  0.024232  0.087259  0.018060      4.000000
 -0.121161 -0.017452  0.068446      4.000000
 -0.096929  0.000000  0.060048      2.000000
  0.000000  0.104711  0.009662      2.000000
 -0.145393  0.000000  0.060048      2.000000
 
 TETIRR: Found    294 inequivalent tetrahedra from     1176


--------------------------------------------------------------------------------------------------------




 Dimension of arrays:
   k-points           NKPTS =     60   k-points in BZ     NKDIM =     60   number of bands    NBANDS=     52
   number of dos      NEDOS =    301   number of ions     NIONS =     16
   non local maximal  LDIM  =      4   non local SUM 2l+1 LMDIM =      8
   total plane-waves  NPLWV = 112000
   max r-space proj   IRMAX =   6507   max aug-charges    IRDMAX=  17162
   dimension x,y,z NGX =    40 NGY =   40 NGZ =   70
   dimension x,y,z NGXF=    80 NGYF=   80 NGZF=  140
   support grid    NGXF=    80 NGYF=   80 NGZF=  140
   ions per type =               6  10
   NGX,Y,Z   is equivalent  to a cutoff of  13.18, 13.18, 12.59 a.u.
   NGXF,Y,Z  is equivalent  to a cutoff of  26.37, 26.37, 25.19 a.u.

 SYSTEM =  unknown system                          
 POSCAR =  P6 N10                                  

 Startparameter for this run:
   NWRITE =      2    write-flag & timer
   PREC   = accura    normal or accurate (medium, high low for compatibility)
   ISTART =      0    job   : 0-new  1-cont  2-samecut
   ICHARG =      2    charge: 1-file 2-atom 10-const
   ISPIN  =      2    spin polarized calculation?
   LNONCOLLINEAR =      F non collinear calculations
   LSORBIT =      F    spin-orbit coupling
   INIWAV =      1    electr: 0-lowe 1-rand  2-diag
   LASPH  =      T    aspherical Exc in radial PAW
   METAGGA=      F    non-selfconsistent MetaGGA calc.

 Electronic Relaxation 1
   ENCUT  =  520.0 eV  38.22 Ry    6.18 a.u.   9.38  9.38 17.18*2*pi/ulx,y,z
   ENINI  =  520.0     initial cutoff
   ENAUG  =  627.1 eV  augmentation charge cutoff
   NELM   =    100;   NELMIN=  2; NELMDL= -5     # of ELM steps 
   EDIFF  = 0.1E-04   stopping-criterion for ELM
   LREAL  =      T    real-space projection
   NLSPLINE    = F    spline interpolate recip. space projectors
   LCOMPAT=      F    compatible to vasp.4.4
   GGA_COMPAT  = T    GGA compatible to vasp.4.4-vasp.4.6
   LMAXPAW     = -100 max onsite density
   LMAXMIX     =    2 max onsite mixed and CHGCAR
   VOSKOWN=      0    Vosko Wilk Nusair interpolation
   ROPT   =   -0.00025  -0.00025
 Ionic relaxation
   EDIFFG = 0.1E-03   stopping-criterion for IOM
   NSW    =     99    number of steps for IOM
   NBLOCK =      1;   KBLOCK =     99    inner block; outer block 
   IBRION =      2    ionic relax: 0-MD 1-quasi-New 2-CG
   NFREE  =      1    steps in history (QN), initial steepest desc. (CG)
   ISIF   =      3    stress and relaxation
   IWAVPR =     11    prediction:  0-non 1-charg 2-wave 3-comb
   ISYM   =      2    0-nonsym 1-usesym 2-fastsym
   LCORR  =      T    Harris-Foulkes like correction to forces

   POTIM  = 0.5000    time-step for ionic-motion
   TEIN   =    0.0    initial temperature
   TEBEG  =    0.0;   TEEND  =   0.0 temperature during run
   SMASS  =  -3.00    Nose mass-parameter (am)
   estimated Nose-frequenzy (Omega)   =  0.10E-29 period in steps =****** mass=  -0.581E-27a.u.
   SCALEE = 1.0000    scale energy and forces
   NPACO  =    256;   APACO  = 16.0  distance and # of slots for P.C.
   PSTRESS=    0.0 pullay stress

  Mass of Ions in am
   POMASS =  30.97 14.00
  Ionic Valenz
   ZVAL   =   5.00  5.00
  Atomic Wigner-Seitz radii
   RWIGS  =  -1.00 -1.00
  virtual crystal weights 
   VCA    =   1.00  1.00
   NELECT =      80.0000    total number of electrons
   NUPDOWN=      -1.0000    fix difference up-down

 DOS related values:
   EMIN   =  10.00;   EMAX   =-10.00  energy-range for DOS
   EFERMI =   0.00
   ISMEAR =    -5;   SIGMA  =   0.05  broadening in eV -4-tet -1-fermi 0-gaus

 Electronic relaxation 2 (details)
   IALGO  =     68    algorithm
   LDIAG  =      T    sub-space diagonalisation (order eigenvalues)
   LSUBROT=      F    optimize rotation matrix (better conditioning)
   TURBO    =      0    0=normal 1=particle mesh
   IRESTART =      0    0=no restart 2=restart with 2 vectors
   NREBOOT  =      0    no. of reboots
   NMIN     =      0    reboot dimension
   EREF     =   0.00    reference energy to select bands
   IMIX   =      4    mixing-type and parameters
     AMIX     =   0.40;   BMIX     =  1.00
     AMIX_MAG =   1.60;   BMIX_MAG =  1.00
     AMIN     =   0.10
     WC   =   100.;   INIMIX=   1;  MIXPRE=   1;  MAXMIX= -45

 Intra band minimization:
   WEIMIN = 0.0010     energy-eigenvalue tresh-hold
   EBREAK =  0.48E-07  absolut break condition
   DEPER  =   0.30     relativ break condition  

   TIME   =   0.40     timestep for ELM

  volume/ion in A,a.u.               =      12.56        84.74
  Fermi-wavevector in a.u.,A,eV,Ry     =   1.204392  2.275972 19.736083  1.450561
  Thomas-Fermi vector in A             =   2.340119
 
 Write flags
   LWAVE        =      F    write WAVECAR
   LDOWNSAMPLE  =      F    k-point downsampling of WAVECAR
   LCHARG       =      F    write CHGCAR
   LVTOT        =      F    write LOCPOT, total local potential
   LVHAR        =      F    write LOCPOT, Hartree potential only
   LELF         =      F    write electronic localiz. function (ELF)
   LORBIT       =     11    0 simple, 1 ext, 2 COOP (PROOUT), +10 PAW based schemes


 Dipole corrections
   LMONO  =      F    monopole corrections only (constant potential shift)
   LDIPOL =      F    correct potential (dipole corrections)
   IDIPOL =      0    1-x, 2-y, 3-z, 4-all directions 
   EPSILON=  1.0000000 bulk dielectric constant

 Exchange correlation treatment:
   GGA     =    --    GGA type
   LEXCH   =     8    internal setting for exchange type
   VOSKOWN=      0    Vosko Wilk Nusair interpolation
   LHFCALC =     F    Hartree Fock is set to
   LHFONE  =     F    Hartree Fock one center treatment
   AEXX    =    0.0000 exact exchange contribution

 Linear response parameters
   LEPSILON=     F    determine dielectric tensor
   LRPA    =     F    only Hartree local field effects (RPA)
   LNABLA  =     F    use nabla operator in PAW spheres
   LVEL    =     F    velocity operator in full k-point grid
   LINTERFAST=   F  fast interpolation
   KINTER  =     0    interpolate to denser k-point grid
   CSHIFT  =0.1000    complex shift for real part using Kramers Kronig
   OMEGAMAX=  -1.0    maximum frequency
   DEG_THRESHOLD= 0.2000000E-02 threshold for treating states as degnerate
   RTIME   =   -0.100 relaxation time in fs
  (WPLASMAI=    0.000 imaginary part of plasma frequency in eV, 0.658/RTIME)
   DFIELD  = 0.0000000 0.0000000 0.0000000 field for delta impulse in time
 
 Orbital magnetization related:
   ORBITALMAG=     F  switch on orbital magnetization
   LCHIMAG   =     F  perturbation theory with respect to B field
   DQ        =  0.001000  dq finite difference perturbation B field
   LLRAUG    =     F  two centre corrections for induced B field



--------------------------------------------------------------------------------------------------------


 conjugate gradient relaxation of ions
 charge density and potential will be updated during run
 spin polarized calculation
 RMM-DIIS sequential band-by-band and
  variant of blocked Davidson during initial phase
 perform sub-space diagonalisation
    before iterative eigenvector-optimisation
 modified Broyden-mixing scheme, WC =      100.0
 initial mixing is a Kerker type mixing with AMIX =  0.4000 and BMIX =      1.0000
 Hartree-type preconditioning will be used
 using additional bands           12
 real space projection scheme for non local part
 use partial core corrections
 calculate Harris-corrections to forces 
   (improved forces if not selfconsistent)
 use gradient corrections 
 use of overlap-Matrix (Vanderbilt PP)
 Fermi weights with tetrahedron method with Bloechl corrections


--------------------------------------------------------------------------------------------------------


  energy-cutoff  :      520.00
  volume of cell :      200.91
      direct lattice vectors                 reciprocal lattice vectors
     2.947666000  4.092900000  0.000000000     0.169625731  0.122162770 -0.058783606
    -2.947666000  4.092900000  0.000000000    -0.169625731  0.122162770 -0.058783606
     0.000000000  4.006714000  8.326663000     0.000000000  0.000000000  0.120096130

  length of vectors
     5.043864120  5.043864120  9.240512637     0.217145443  0.217145443  0.120096130


 
 k-points in units of 2pi/SCALE and weight: Fully automatic kpoint scheme           
   0.00000000  0.00000000  0.00000000       0.005
   0.02423225  0.01745182 -0.00839766       0.020
   0.04846449  0.03490365 -0.01679532       0.020
   0.07269674  0.05235547 -0.02519297       0.020
   0.00000000  0.03490365 -0.01679532       0.010
   0.02423225  0.05235547 -0.02519297       0.020
   0.04846449  0.06980730 -0.03359063       0.020
  -0.09692899 -0.03490365  0.01679532       0.020
  -0.07269674 -0.01745182  0.00839766       0.020
  -0.04846449  0.00000000  0.00000000       0.010
   0.00000000  0.06980730 -0.03359063       0.010
   0.02423225  0.08725912 -0.04198829       0.020
  -0.12116124 -0.01745182  0.00839766       0.020
  -0.09692899  0.00000000  0.00000000       0.010
   0.00000000  0.10471095 -0.05038595       0.010
  -0.14539348  0.00000000  0.00000000       0.010
   0.00000000  0.00000000  0.03002403       0.010
   0.02423225  0.01745182  0.02162637       0.020
   0.04846449  0.03490365  0.01322872       0.020
   0.07269674  0.05235547  0.00483106       0.020
  -0.07269674 -0.05235547  0.05521701       0.020
  -0.04846449 -0.03490365  0.04681935       0.020
  -0.02423225 -0.01745182  0.03842169       0.020
   0.00000000  0.03490365  0.01322872       0.010
   0.02423225  0.05235547  0.00483106       0.020
   0.04846449  0.06980730 -0.00356660       0.020
  -0.09692899 -0.03490365  0.04681935       0.020
  -0.07269674 -0.01745182  0.03842169       0.020
  -0.04846449  0.00000000  0.03002403       0.020
   0.00000000  0.06980730 -0.00356660       0.010
   0.02423225  0.08725912 -0.01196426       0.020
  -0.12116124 -0.01745182  0.03842169       0.020
  -0.09692899  0.00000000  0.03002403       0.020
  -0.07269674  0.01745182  0.02162637       0.020
   0.00000000  0.10471095 -0.02036192       0.010
  -0.14539348  0.00000000  0.03002403       0.020
  -0.12116124  0.01745182  0.02162637       0.020
  -0.09692899  0.03490365  0.01322872       0.020
   0.00000000 -0.10471095  0.08040998       0.010
   0.02423225 -0.08725912  0.07201232       0.020
   0.04846449 -0.06980730  0.06361466       0.020
   0.00000000 -0.06980730  0.06361466       0.010
   0.02423225 -0.05235547  0.05521701       0.020
   0.00000000 -0.03490365  0.04681935       0.010
   0.00000000  0.00000000  0.06004806       0.005
   0.02423225  0.01745182  0.05165041       0.020
   0.04846449  0.03490365  0.04325275       0.020
   0.07269674  0.05235547  0.03485509       0.020
   0.00000000  0.03490365  0.04325275       0.010
   0.02423225  0.05235547  0.03485509       0.020
   0.04846449  0.06980730  0.02645743       0.020
  -0.09692899 -0.03490365  0.07684338       0.020
  -0.07269674 -0.01745182  0.06844572       0.020
  -0.04846449  0.00000000  0.06004806       0.010
   0.00000000  0.06980730  0.02645743       0.010
   0.02423225  0.08725912  0.01805977       0.020
  -0.12116124 -0.01745182  0.06844572       0.020
  -0.09692899  0.00000000  0.06004806       0.010
   0.00000000  0.10471095  0.00966212       0.010
  -0.14539348  0.00000000  0.06004806       0.010
 
 k-points in reciprocal lattice and weights: Fully automatic kpoint scheme           
   0.00000000  0.00000000  0.00000000       0.005
   0.14285714  0.00000000  0.00000000       0.020
   0.28571429  0.00000000  0.00000000       0.020
   0.42857143  0.00000000  0.00000000       0.020
   0.14285714  0.14285714  0.00000000       0.010
   0.28571429  0.14285714  0.00000000       0.020
   0.42857143  0.14285714  0.00000000       0.020
  -0.42857143  0.14285714  0.00000000       0.020
  -0.28571429  0.14285714  0.00000000       0.020
  -0.14285714  0.14285714  0.00000000       0.010
   0.28571429  0.28571429  0.00000000       0.010
   0.42857143  0.28571429 -0.00000000       0.020
  -0.42857143  0.28571429  0.00000000       0.020
  -0.28571429  0.28571429  0.00000000       0.010
   0.42857143  0.42857143  0.00000000       0.010
  -0.42857143  0.42857143  0.00000000       0.010
   0.00000000  0.00000000  0.25000000       0.010
   0.14285714  0.00000000  0.25000000       0.020
   0.28571429  0.00000000  0.25000000       0.020
   0.42857143  0.00000000  0.25000000       0.020
  -0.42857143  0.00000000  0.25000000       0.020
  -0.28571429 -0.00000000  0.25000000       0.020
  -0.14285714  0.00000000  0.25000000       0.020
   0.14285714  0.14285714  0.25000000       0.010
   0.28571429  0.14285714  0.25000000       0.020
   0.42857143  0.14285714  0.25000000       0.020
  -0.42857143  0.14285714  0.25000000       0.020
  -0.28571429  0.14285714  0.25000000       0.020
  -0.14285714  0.14285714  0.25000000       0.020
   0.28571429  0.28571429  0.25000000       0.010
   0.42857143  0.28571429  0.25000000       0.020
  -0.42857143  0.28571429  0.25000000       0.020
  -0.28571429  0.28571429  0.25000000       0.020
  -0.14285714  0.28571429  0.25000000       0.020
   0.42857143  0.42857143  0.25000000       0.010
  -0.42857143  0.42857143  0.25000000       0.020
  -0.28571429  0.42857143  0.25000000       0.020
  -0.14285714  0.42857143  0.25000000       0.020
  -0.42857143 -0.42857143  0.25000000       0.010
  -0.28571429 -0.42857143  0.25000000       0.020
  -0.14285714 -0.42857143  0.25000000       0.020
  -0.28571429 -0.28571429  0.25000000       0.010
  -0.14285714 -0.28571429  0.25000000       0.020
  -0.14285714 -0.14285714  0.25000000       0.010
   0.00000000  0.00000000  0.50000000       0.005
   0.14285714  0.00000000  0.50000000       0.020
   0.28571429  0.00000000  0.50000000       0.020
   0.42857143  0.00000000  0.50000000       0.020
   0.14285714  0.14285714  0.50000000       0.010
   0.28571429  0.14285714  0.50000000       0.020
   0.42857143  0.14285714  0.50000000       0.020
  -0.42857143  0.14285714  0.50000000       0.020
  -0.28571429  0.14285714  0.50000000       0.020
  -0.14285714  0.14285714  0.50000000       0.010
   0.28571429  0.28571429  0.50000000       0.010
   0.42857143  0.28571429  0.50000000       0.020
  -0.42857143  0.28571429  0.50000000       0.020
  -0.28571429  0.28571429  0.50000000       0.010
   0.42857143  0.42857143  0.50000000       0.010
  -0.42857143  0.42857143  0.50000000       0.010
 
 position of ions in fractional coordinates (direct lattice) 
   0.48197700  0.51802300  0.25000000
   0.66218900  0.06970000  0.55530200
   0.06970000  0.66218900  0.05530200
   0.33781100  0.93030000  0.44469800
   0.93030000  0.33781100  0.94469800
   0.51802300  0.48197700  0.75000000
   0.50075600  0.78912000  0.59974300
   0.22890800  0.50785500  0.19169400
   0.49924400  0.21088000  0.40025700
   0.21088000  0.49924400  0.90025700
   0.49214500  0.77109200  0.30830600
   0.77109200  0.49214500  0.80830600
   0.00000000  0.00000000  0.50000000
   0.78912000  0.50075600  0.09974300
   0.50785500  0.22890800  0.69169400
   0.00000000  0.00000000  0.00000000
 
 position of ions in cartesian coordinates  (Angst):
  -0.10625157  5.09457850  2.08166575
   1.74645968  5.22048479  4.62381262
  -1.74645968  3.21712779  0.46048112
  -1.74645968  6.97202921  3.70285038
   1.74645968  8.97538621  7.86618188
   0.10625157  7.09793550  6.24499725
  -0.85000076  7.68233215  4.99385785
  -0.82224259  3.78356032  1.59617134
   0.85000076  4.51018185  3.33280515
  -0.85000076  6.51353885  7.49613665
  -0.82224259  6.40559668  2.56716016
   0.82224259  8.40895368  6.73049166
   0.00000000  2.00335700  4.16333150
   0.85000076  5.67897515  0.83052635
   0.82224259  5.78691732  5.75950284
   0.00000000  0.00000000  0.00000000
 


--------------------------------------------------------------------------------------------------------


 k-point  1 :   0.0000 0.0000 0.0000  plane waves:    5417
 k-point  2 :   0.1429 0.0000 0.0000  plane waves:    5432
 k-point  3 :   0.2857 0.0000 0.0000  plane waves:    5420
 k-point  4 :   0.4286 0.0000 0.0000  plane waves:    5406
 k-point  5 :   0.1429 0.1429 0.0000  plane waves:    5402
 k-point  6 :   0.2857 0.1429 0.0000  plane waves:    5404
 k-point  7 :   0.4286 0.1429 0.0000  plane waves:    5404
 k-point  8 :  -0.4286 0.1429 0.0000  plane waves:    5409
 k-point  9 :  -0.2857 0.1429 0.0000  plane waves:    5414
 k-point 10 :  -0.1429 0.1429 0.0000  plane waves:    5429
 k-point 11 :   0.2857 0.2857 0.0000  plane waves:    5404
 k-point 12 :   0.4286 0.2857-0.0000  plane waves:    5402
 k-point 13 :  -0.4286 0.2857 0.0000  plane waves:    5402
 k-point 14 :  -0.2857 0.2857 0.0000  plane waves:    5407
 k-point 15 :   0.4286 0.4286 0.0000  plane waves:    5384
 k-point 16 :  -0.4286 0.4286 0.0000  plane waves:    5385
 k-point 17 :   0.0000 0.0000 0.2500  plane waves:    5424
 k-point 18 :   0.1429 0.0000 0.2500  plane waves:    5422
 k-point 19 :   0.2857 0.0000 0.2500  plane waves:    5414
 k-point 20 :   0.4286 0.0000 0.2500  plane waves:    5410
 k-point 21 :  -0.4286 0.0000 0.2500  plane waves:    5425
 k-point 22 :  -0.2857-0.0000 0.2500  plane waves:    5420
 k-point 23 :  -0.1429 0.0000 0.2500  plane waves:    5407
 k-point 24 :   0.1429 0.1429 0.2500  plane waves:    5422
 k-point 25 :   0.2857 0.1429 0.2500  plane waves:    5413
 k-point 26 :   0.4286 0.1429 0.2500  plane waves:    5407
 k-point 27 :  -0.4286 0.1429 0.2500  plane waves:    5406
 k-point 28 :  -0.2857 0.1429 0.2500  plane waves:    5424
 k-point 29 :  -0.1429 0.1429 0.2500  plane waves:    5418
 k-point 30 :   0.2857 0.2857 0.2500  plane waves:    5407
 k-point 31 :   0.4286 0.2857 0.2500  plane waves:    5401
 k-point 32 :  -0.4286 0.2857 0.2500  plane waves:    5404
 k-point 33 :  -0.2857 0.2857 0.2500  plane waves:    5406
 k-point 34 :  -0.1429 0.2857 0.2500  plane waves:    5422
 k-point 35 :   0.4286 0.4286 0.2500  plane waves:    5402
 k-point 36 :  -0.4286 0.4286 0.2500  plane waves:    5394
 k-point 37 :  -0.2857 0.4286 0.2500  plane waves:    5402
 k-point 38 :  -0.1429 0.4286 0.2500  plane waves:    5405
 k-point 39 :  -0.4286-0.4286 0.2500  plane waves:    5386
 k-point 40 :  -0.2857-0.4286 0.2500  plane waves:    5404
 k-point 41 :  -0.1429-0.4286 0.2500  plane waves:    5407
 k-point 42 :  -0.2857-0.2857 0.2500  plane waves:    5396
 k-point 43 :  -0.1429-0.2857 0.2500  plane waves:    5415
 k-point 44 :  -0.1429-0.1429 0.2500  plane waves:    5371
 k-point 45 :   0.0000 0.0000 0.5000  plane waves:    5404
 k-point 46 :   0.1429 0.0000 0.5000  plane waves:    5402
 k-point 47 :   0.2857 0.0000 0.5000  plane waves:    5419
 k-point 48 :   0.4286 0.0000 0.5000  plane waves:    5419
 k-point 49 :   0.1429 0.1429 0.5000  plane waves:    5401
 k-point 50 :   0.2857 0.1429 0.5000  plane waves:    5409
 k-point 51 :   0.4286 0.1429 0.5000  plane waves:    5423
 k-point 52 :  -0.4286 0.1429 0.5000  plane waves:    5423
 k-point 53 :  -0.2857 0.1429 0.5000  plane waves:    5424
 k-point 54 :  -0.1429 0.1429 0.5000  plane waves:    5426
 k-point 55 :   0.2857 0.2857 0.5000  plane waves:    5403
 k-point 56 :   0.4286 0.2857 0.5000  plane waves:    5395
 k-point 57 :  -0.4286 0.2857 0.5000  plane waves:    5406
 k-point 58 :  -0.2857 0.2857 0.5000  plane waves:    5418
 k-point 59 :   0.4286 0.4286 0.5000  plane waves:    5409
 k-point 60 :  -0.4286 0.4286 0.5000  plane waves:    5392

 maximum and minimum number of plane-waves per node :       934      856

 maximum number of plane-waves:      5432
 maximum index in each direction: 
   IXMAX=    9   IYMAX=    9   IZMAX=   17
   IXMIN=   -9   IYMIN=   -9   IZMIN=  -17


 real space projection operators:
  total allocation   :       5422.38 KBytes
  max/ min on nodes  :        952.88        825.00


 parallel 3D FFT for wavefunctions:
    minimum data exchange during FFTs selected (reduces bandwidth)
 parallel 3D FFT for charge:
    minimum data exchange during FFTs selected (reduces bandwidth)


 total amount of memory used by VASP MPI-rank0    63852. kBytes
=======================================================================

   base      :      30000. kBytes
   nonlr-proj:       2934. kBytes
   fftplans  :       2037. kBytes
   grid      :       5201. kBytes
   one-center:         18. kBytes
   wavefun   :      23662. kBytes
 
     INWAV:  cpu time    0.0000: real time    0.0001
 Broyden mixing: mesh for mixing (old mesh)
   NGX = 19   NGY = 19   NGZ = 35
  (NGX  = 80   NGY  = 80   NGZ  =140)
  gives a total of  12635 points

 initial charge density was supplied:
 charge density of overlapping atoms calculated
 number of electron      80.0000000 magnetization       0.0000000
 keeping initial charge density in first step


--------------------------------------------------------------------------------------------------------


 Maximum index for non-local projection operator         1163
 Maximum index for augmentation-charges         1389 (set IRDMAX)


--------------------------------------------------------------------------------------------------------


 First call to EWALD:  gamma=   0.303
 Maximum number of real-space cells 3x 3x 2
 Maximum number of reciprocal cells 2x 2x 4

    FEWALD:  cpu time    0.0030: real time    0.0057


--------------------------------------- Iteration      1(   1)  ---------------------------------------


    POTLOK:  cpu time    0.0766: real time    0.2237
    SETDIJ:  cpu time    0.2412: real time    0.7404
     EDDAV:  cpu time   17.3982: real time   52.4004
 BZINTS: Fermi energy: 16.592596; 80.000000 electrons
         Band energy: 105.722920;  BLOECHL correction: -0.133962
       DOS:  cpu time    0.0578: real time    0.1507
    --------------------------------------------
      LOOP:  cpu time   17.7739: real time   53.5152

 eigenvalue-minimisations  : 12480
 total energy-change (2. order) : 0.4776672E+03  (-0.4005157E+04)
 number of electron      80.0000000 magnetization       0.0000000
 augmentation part       80.0000000 magnetization       0.0000000

 Free energy of the ion-electron system (eV)
  ---------------------------------------------------
  alpha Z        PSCENC =       133.71049959
  Ewald energy   TEWEN  =     -2580.70849286
  -Hartree energ DENC   =     -1145.50546803
  -exchange      EXHF   =         0.00000000
  -V(xc)+E(xc)   XCENC  =       225.77648512
  PAW double counting   =      2887.88749517    -2850.82863734
  entropy T*S    EENTRO =         0.00000000
  eigenvalues    EBANDS =       105.72292002
  atomic energy  EATOM  =      3701.61238226
  Solvation  Ediel_sol  =         0.00000000
  ---------------------------------------------------
  free energy    TOTEN  =       477.66718394 eV

  energy without entropy =      477.66718394  energy(sigma->0) =      477.66718394


--------------------------------------------------------------------------------------------------------




--------------------------------------- Iteration      1(   2)  ---------------------------------------


     EDDAV:  cpu time   26.5287: real time   79.8674
 BZINTS: Fermi energy:  3.074793; 80.000000 electrons
         Band energy:-472.102039;  BLOECHL correction:  0.000000
       DOS:  cpu time    0.0172: real time    0.0330
    --------------------------------------------
      LOOP:  cpu time   26.5460: real time   79.9004

 eigenvalue-minimisations  : 16036
 total energy-change (2. order) :-0.5778250E+03  (-0.5560441E+03)
 number of electron      80.0000000 magnetization       0.0000000
 augmentation part       80.0000000 magnetization       0.0000000

 Free energy of the ion-electron system (eV)
  ---------------------------------------------------
  alpha Z        PSCENC =       133.71049959
  Ewald energy   TEWEN  =     -2580.70849286
  -Hartree energ DENC   =     -1145.50546803
  -exchange      EXHF   =         0.00000000
  -V(xc)+E(xc)   XCENC  =       225.77648512
  PAW double counting   =      2887.88749517    -2850.82863734
  entropy T*S    EENTRO =         0.00000000
  eigenvalues    EBANDS =      -472.10203926
  atomic energy  EATOM  =      3701.61238226
  Solvation  Ediel_sol  =         0.00000000
  ---------------------------------------------------
  free energy    TOTEN  =      -100.15777534 eV

  energy without entropy =     -100.15777534  energy(sigma->0) =     -100.15777534


--------------------------------------------------------------------------------------------------------




--------------------------------------- Iteration      1(   3)  ---------------------------------------


     EDDAV:  cpu time   25.8282: real time   77.7620
 BZINTS: Fermi energy:  1.053980; 80.000000 electrons
         Band energy:-510.725006;  BLOECHL correction:  0.000000
       DOS:  cpu time    0.0095: real time    0.0125
    --------------------------------------------
      LOOP:  cpu time   25.8376: real time   77.7744

 eigenvalue-minimisations  : 15336
 total energy-change (2. order) :-0.3862297E+02  (-0.3831127E+02)
 number of electron      80.0000000 magnetization       0.0000000
 augmentation part       80.0000000 magnetization       0.0000000

 Free energy of the ion-electron system (eV)
  ---------------------------------------------------
  alpha Z        PSCENC =       133.71049959
  Ewald energy   TEWEN  =     -2580.70849286
  -Hartree energ DENC   =     -1145.50546803
  -exchange      EXHF   =         0.00000000
  -V(xc)+E(xc)   XCENC  =       225.77648512
  PAW double counting   =      2887.88749517    -2850.82863734
  entropy T*S    EENTRO =         0.00000000
  eigenvalues    EBANDS =      -510.72500554
  atomic energy  EATOM  =      3701.61238226
  Solvation  Ediel_sol  =         0.00000000
  ---------------------------------------------------
  free energy    TOTEN  =      -138.78074162 eV

  energy without entropy =     -138.78074162  energy(sigma->0) =     -138.78074162


--------------------------------------------------------------------------------------------------------




--------------------------------------- Iteration      1(   4)  ---------------------------------------


     EDDAV:  cpu time   24.8854: real time   74.9484
 BZINTS: Fermi energy:  1.031129; 80.000000 electrons
         Band energy:-511.570221;  BLOECHL correction:  0.000000
       DOS:  cpu time    0.0102: real time    0.0105
    --------------------------------------------
      LOOP:  cpu time   24.8956: real time   74.9588

 eigenvalue-minimisations  : 16240
 total energy-change (2. order) :-0.8452151E+00  (-0.8421281E+00)
 number of electron      80.0000000 magnetization       0.0000000
 augmentation part       80.0000000 magnetization       0.0000000

 Free energy of the ion-electron system (eV)
  ---------------------------------------------------
  alpha Z        PSCENC =       133.71049959
  Ewald energy   TEWEN  =     -2580.70849286
  -Hartree energ DENC   =     -1145.50546803
  -exchange      EXHF   =         0.00000000
  -V(xc)+E(xc)   XCENC  =       225.77648512
  PAW double counting   =      2887.88749517    -2850.82863734
  entropy T*S    EENTRO =         0.00000000
  eigenvalues    EBANDS =      -511.57022069
  atomic energy  EATOM  =      3701.61238226
  Solvation  Ediel_sol  =         0.00000000
  ---------------------------------------------------
  free energy    TOTEN  =      -139.62595677 eV

  energy without entropy =     -139.62595677  energy(sigma->0) =     -139.62595677


--------------------------------------------------------------------------------------------------------




--------------------------------------- Iteration      1(   5)  ---------------------------------------


     EDDAV:  cpu time   24.4521: real time   73.6304
 BZINTS: Fermi energy:  1.026756; 80.000000 electrons
         Band energy:-511.591986;  BLOECHL correction:  0.000000
       DOS:  cpu time    0.0102: real time    0.0197
    CHARGE:  cpu time    0.3932: real time    1.1984
    MIXING:  cpu time    0.0058: real time    0.0187
    --------------------------------------------
      LOOP:  cpu time   24.8613: real time   74.8672

 eigenvalue-minimisations  : 15328
 total energy-change (2. order) :-0.2176519E-01  (-0.2173260E-01)
 number of electron      79.9999996 magnetization       0.0000000
 augmentation part        1.1015527 magnetization       0.0000075

 Broyden mixing:
  rms(total) = 0.43436E+01    rms(broyden)= 0.43432E+01
  rms(prec ) = 0.51054E+01
  weight for this iteration     100.00

 Free energy of the ion-electron system (eV)
  ---------------------------------------------------
  alpha Z        PSCENC =       133.71049959
  Ewald energy   TEWEN  =     -2580.70849286
  -Hartree energ DENC   =     -1145.50546803
  -exchange      EXHF   =         0.00000000
  -V(xc)+E(xc)   XCENC  =       225.77648512
  PAW double counting   =      2887.88749517    -2850.82863734
  entropy T*S    EENTRO =         0.00000000
  eigenvalues    EBANDS =      -511.59198587
  atomic energy  EATOM  =      3701.61238226
  Solvation  Ediel_sol  =         0.00000000
  ---------------------------------------------------
  free energy    TOTEN  =      -139.64772195 eV

  energy without entropy =     -139.64772195  energy(sigma->0) =     -139.64772195


--------------------------------------------------------------------------------------------------------




--------------------------------------- Iteration      1(   6)  ---------------------------------------


    POTLOK:  cpu time    0.0551: real time    0.1480
    SETDIJ:  cpu time    0.2542: real time    0.7763
    EDDIAG:  cpu time    6.1715: real time   18.5703
  RMM-DIIS:  cpu time    6.9806: real time   21.0177
    ORTHCH:  cpu time    0.1744: real time    0.5132
 BZINTS: Fermi energy:  3.558872; 80.000000 electrons
         Band energy:-376.257121;  BLOECHL correction:  0.000000
       DOS:  cpu time    0.0102: real time    0.0222
    CHARGE:  cpu time    0.3777: real time    1.1416
    MIXING:  cpu time    0.0031: real time    0.0236
    --------------------------------------------
      LOOP:  cpu time   14.0267: real time   42.2129

 eigenvalue-minimisations  : 12480
 total energy-change (2. order) : 0.1887993E+02  (-0.6775173E+01)
 number of electron      79.9999997 magnetization      -0.0000000
 augmentation part        0.0423844 magnetization       0.0001369

 Broyden mixing:
  rms(total) = 0.18087E+01    rms(broyden)= 0.18086E+01
  rms(prec ) = 0.19148E+01
  weight for this iteration     100.00

 eigenvalues of (default mixing * dielectric matrix)
  average eigenvalue GAMMA=   1.4169
  1.4169

 Free energy of the ion-electron system (eV)
  ---------------------------------------------------
  alpha Z        PSCENC =       133.71049959
  Ewald energy   TEWEN  =     -2580.70849286
  -Hartree energ DENC   =     -1269.61017573
  -exchange      EXHF   =         0.00000000
  -V(xc)+E(xc)   XCENC  =       235.06340698
  PAW double counting   =      7062.25437971    -7026.83267571
  entropy T*S    EENTRO =         0.00000000
  eigenvalues    EBANDS =      -376.25712062
  atomic energy  EATOM  =      3701.61238226
  Solvation  Ediel_sol  =         0.00000000
  ---------------------------------------------------
  free energy    TOTEN  =      -120.76779637 eV

  energy without entropy =     -120.76779637  energy(sigma->0) =     -120.76779637


--------------------------------------------------------------------------------------------------------




--------------------------------------- Iteration      1(   7)  ---------------------------------------


    POTLOK:  cpu time    0.0739: real time    0.2083
    SETDIJ:  cpu time    0.2783: real time    0.8541
    EDDIAG:  cpu time    5.2576: real time   15.8216
  RMM-DIIS:  cpu time    8.3166: real time   25.0479
    ORTHCH:  cpu time    0.1726: real time    0.5284
 BZINTS: Fermi energy:  4.129302; 80.000000 electrons
         Band energy:-341.435323;  BLOECHL correction:  0.000000
       DOS:  cpu time    0.0117: real time    0.0214
    CHARGE:  cpu time    0.3787: real time    1.1442
    MIXING:  cpu time    0.0045: real time    0.0180
    --------------------------------------------
      LOOP:  cpu time   14.4938: real time   43.6438

 eigenvalue-minimisations  : 12521
 total energy-change (2. order) : 0.3179275E-01  (-0.8905799E+00)
 number of electron      79.9999997 magnetization      -0.0000000
 augmentation part       -0.2719700 magnetization       0.0002486

 Broyden mixing:
  rms(total) = 0.74317E+00    rms(broyden)= 0.74312E+00
  rms(prec ) = 0.79950E+00
  weight for this iteration     100.00

 eigenvalues of (default mixing * dielectric matrix)
  average eigenvalue GAMMA=   1.7291
  1.3272  2.1310

 Free energy of the ion-electron system (eV)
  ---------------------------------------------------
  alpha Z        PSCENC =       133.71049959
  Ewald energy   TEWEN  =     -2580.70849286
  -Hartree energ DENC   =     -1306.29361769
  -exchange      EXHF   =         0.00000000
  -V(xc)+E(xc)   XCENC  =       237.88148951
  PAW double counting   =     11394.80368663   -11360.30662764
  entropy T*S    EENTRO =         0.00000000
  eigenvalues    EBANDS =      -341.43532342
  atomic energy  EATOM  =      3701.61238226
  Solvation  Ediel_sol  =         0.00000000
  ---------------------------------------------------
  free energy    TOTEN  =      -120.73600362 eV

  energy without entropy =     -120.73600362  energy(sigma->0) =     -120.73600362


--------------------------------------------------------------------------------------------------------




--------------------------------------- Iteration      1(   8)  ---------------------------------------


    POTLOK:  cpu time    0.0566: real time    0.1659
    SETDIJ:  cpu time    0.2614: real time    0.7988
    EDDIAG:  cpu time    3.6105: real time   10.8745
  RMM-DIIS:  cpu time    8.4478: real time   25.4268
    ORTHCH:  cpu time    0.1460: real time    0.4498
 BZINTS: Fermi energy:  3.911070; 80.000000 electrons
         Band energy:-345.217145;  BLOECHL correction:  0.000000
       DOS:  cpu time    0.0115: real time    0.0178
    CHARGE:  cpu time    0.3940: real time    1.1915
    MIXING:  cpu time    0.0033: real time    0.0142
    --------------------------------------------
      LOOP:  cpu time   12.9311: real time   38.9392

 eigenvalue-minimisations  : 12556
 total energy-change (2. order) : 0.1166205E+00  (-0.8244723E-01)
 number of electron      79.9999997 magnetization      -0.0000000
 augmentation part       -0.1824554 magnetization       0.0000867

 Broyden mixing:
  rms(total) = 0.10475E+00    rms(broyden)= 0.10475E+00
  rms(prec ) = 0.14532E+00
  weight for this iteration     100.00

 eigenvalues of (default mixing * dielectric matrix)
  average eigenvalue GAMMA=   1.5811
  2.2797  1.2319  1.2319

 Free energy of the ion-electron system (eV)
  ---------------------------------------------------
  alpha Z        PSCENC =       133.71049959
  Ewald energy   TEWEN  =     -2580.70849286
  -Hartree energ DENC   =     -1301.80411725
  -exchange      EXHF   =         0.00000000
  -V(xc)+E(xc)   XCENC  =       237.70694466
  PAW double counting   =     14521.10543376   -14487.02488806
  entropy T*S    EENTRO =         0.00000000
  eigenvalues    EBANDS =      -345.21714518
  atomic energy  EATOM  =      3701.61238226
  Solvation  Ediel_sol  =         0.00000000
  ---------------------------------------------------
  free energy    TOTEN  =      -120.61938308 eV

  energy without entropy =     -120.61938308  energy(sigma->0) =     -120.61938308


--------------------------------------------------------------------------------------------------------




--------------------------------------- Iteration      1(   9)  ---------------------------------------


    POTLOK:  cpu time    0.0545: real time    0.1597
    SETDIJ:  cpu time    0.2566: real time    0.7833
    EDDIAG:  cpu time    4.7686: real time   14.3545
  RMM-DIIS:  cpu time    8.2303: real time   24.7771
    ORTHCH:  cpu time    0.3472: real time    1.0389
 BZINTS: Fermi energy:  4.041925; 80.000000 electrons
         Band energy:-338.906250;  BLOECHL correction:  0.000000
       DOS:  cpu time    0.0115: real time    0.0301
    CHARGE:  cpu time    0.3761: real time    1.1345
    MIXING:  cpu time    0.0021: real time    0.0067
    --------------------------------------------
      LOOP:  cpu time   14.0468: real time   42.2847

 eigenvalue-minimisations  : 12544
 total energy-change (2. order) : 0.2011014E-01  (-0.1493575E-01)
 number of electron      79.9999997 magnetization      -0.0000000
 augmentation part       -0.2212768 magnetization       0.0000581

 Broyden mixing:
  rms(total) = 0.57058E-01    rms(broyden)= 0.57053E-01
  rms(prec ) = 0.60872E-01
  weight for this iteration     100.00

 eigenvalues of (default mixing * dielectric matrix)
  average eigenvalue GAMMA=   1.5647
  1.1075  1.1075  2.0219  2.0219

 Free energy of the ion-electron system (eV)
  ---------------------------------------------------
  alpha Z        PSCENC =       133.71049959
  Ewald energy   TEWEN  =     -2580.70849286
  -Hartree energ DENC   =     -1308.54519441
  -exchange      EXHF   =         0.00000000
  -V(xc)+E(xc)   XCENC  =       238.22855985
  PAW double counting   =     14838.13384474   -14804.12462254
  entropy T*S    EENTRO =         0.00000000
  eigenvalues    EBANDS =      -338.90624958
  atomic energy  EATOM  =      3701.61238226
  Solvation  Ediel_sol  =         0.00000000
  ---------------------------------------------------
  free energy    TOTEN  =      -120.59927294 eV

  energy without entropy =     -120.59927294  energy(sigma->0) =     -120.59927294


--------------------------------------------------------------------------------------------------------




--------------------------------------- Iteration      1(  10)  ---------------------------------------


    POTLOK:  cpu time    0.0547: real time    0.1646
    SETDIJ:  cpu time    0.2585: real time    0.7899
    EDDIAG:  cpu time    4.7588: real time   14.3199
  RMM-DIIS:  cpu time    9.3112: real time   28.0510
    ORTHCH:  cpu time    0.1511: real time    0.4472
 BZINTS: Fermi energy:  4.023592; 80.000000 electrons
         Band energy:-339.282011;  BLOECHL correction:  0.000000
       DOS:  cpu time    0.0116: real time    0.0243
    CHARGE:  cpu time    0.4003: real time    1.2107
    MIXING:  cpu time    0.0040: real time    0.0159
    --------------------------------------------
      LOOP:  cpu time   14.9501: real time   45.0234

 eigenvalue-minimisations  : 13667
 total energy-change (2. order) :-0.2127064E-02  (-0.1030491E-02)
 number of electron      79.9999997 magnetization       0.0000000
 augmentation part       -0.2241328 magnetization       0.0000083

 Broyden mixing:
  rms(total) = 0.33885E-01    rms(broyden)= 0.33884E-01
  rms(prec ) = 0.36304E-01
  weight for this iteration     100.00

 eigenvalues of (default mixing * dielectric matrix)
  average eigenvalue GAMMA=   1.6314
  2.5495  2.5495  1.1727  1.1727  0.7125

 Free energy of the ion-electron system (eV)
  ---------------------------------------------------
  alpha Z        PSCENC =       133.71049959
  Ewald energy   TEWEN  =     -2580.70849286
  -Hartree energ DENC   =     -1308.16465213
  -exchange      EXHF   =         0.00000000
  -V(xc)+E(xc)   XCENC  =       238.20071973
  PAW double counting   =     14726.65409799   -14692.62394362
  entropy T*S    EENTRO =         0.00000000
  eigenvalues    EBANDS =      -339.28201097
  atomic energy  EATOM  =      3701.61238226
  Solvation  Ediel_sol  =         0.00000000
  ---------------------------------------------------
  free energy    TOTEN  =      -120.60140000 eV

  energy without entropy =     -120.60140000  energy(sigma->0) =     -120.60140000


--------------------------------------------------------------------------------------------------------




--------------------------------------- Iteration      1(  11)  ---------------------------------------


    POTLOK:  cpu time    0.0568: real time    0.1692
    SETDIJ:  cpu time    0.2580: real time    0.7878
    EDDIAG:  cpu time    3.3977: real time   10.2326
  RMM-DIIS:  cpu time    7.0708: real time   21.2769
    ORTHCH:  cpu time    0.1453: real time    0.4443
 BZINTS: Fermi energy:  4.007364; 80.000000 electrons
         Band energy:-339.617101;  BLOECHL correction:  0.000000
       DOS:  cpu time    0.0115: real time    0.0184
    CHARGE:  cpu time    0.7293: real time    2.2085
    MIXING:  cpu time    0.0292: real time    0.0949
    --------------------------------------------
      LOOP:  cpu time   11.6985: real time   35.2325

 eigenvalue-minimisations  : 12484
 total energy-change (2. order) :-0.7180269E-03  (-0.3843432E-03)
 number of electron      79.9999997 magnetization       0.0000000
 augmentation part       -0.2188386 magnetization      -0.0000012

 Broyden mixing:
  rms(total) = 0.12118E-01    rms(broyden)= 0.12118E-01
  rms(prec ) = 0.14596E-01
  weight for this iteration     100.00

 eigenvalues of (default mixing * dielectric matrix)
  average eigenvalue GAMMA=   1.5820
  2.9132  2.5382  1.1649  1.1649  1.0736  0.6374

 Free energy of the ion-electron system (eV)
  ---------------------------------------------------
  alpha Z        PSCENC =       133.71049959
  Ewald energy   TEWEN  =     -2580.70849286
  -Hartree energ DENC   =     -1307.81209069
  -exchange      EXHF   =         0.00000000
  -V(xc)+E(xc)   XCENC  =       238.17222551
  PAW double counting   =     14644.14144552   -14610.10098669
  entropy T*S    EENTRO =         0.00000000
  eigenvalues    EBANDS =      -339.61710068
  atomic energy  EATOM  =      3701.61238226
  Solvation  Ediel_sol  =         0.00000000
  ---------------------------------------------------
  free energy    TOTEN  =      -120.60211803 eV

  energy without entropy =     -120.60211803  energy(sigma->0) =     -120.60211803


--------------------------------------------------------------------------------------------------------




--------------------------------------- Iteration      1(  12)  ---------------------------------------


    POTLOK:  cpu time    0.0905: real time    0.2644
    SETDIJ:  cpu time    0.2777: real time    0.8486
    EDDIAG:  cpu time    5.9311: real time   17.8485
  RMM-DIIS:  cpu time    6.9669: real time   20.9665
    ORTHCH:  cpu time    0.6828: real time    2.0573
 BZINTS: Fermi energy:  3.988737; 80.000000 electrons
         Band energy:-339.190929;  BLOECHL correction:  0.000000
       DOS:  cpu time    0.0119: real time    0.0283
    CHARGE:  cpu time    0.7558: real time    2.2800
    MIXING:  cpu time    0.0260: real time    0.0836
    --------------------------------------------
      LOOP:  cpu time   14.7428: real time   44.3773

 eigenvalue-minimisations  : 12480
 total energy-change (2. order) : 0.1436794E-03  (-0.2801471E-04)
 number of electron      79.9999997 magnetization       0.0000000
 augmentation part       -0.2201059 magnetization       0.0000039

 Broyden mixing:
  rms(total) = 0.55880E-02    rms(broyden)= 0.55880E-02
  rms(prec ) = 0.67678E-02
  weight for this iteration     100.00

 eigenvalues of (default mixing * dielectric matrix)
  average eigenvalue GAMMA=   1.4763
  2.5634  2.5634  1.2952  1.1007  1.0912  1.0912  0.6288

 Free energy of the ion-electron system (eV)
  ---------------------------------------------------
  alpha Z        PSCENC =       133.71049959
  Ewald energy   TEWEN  =     -2580.70849286
  -Hartree energ DENC   =     -1308.26474480
  -exchange      EXHF   =         0.00000000
  -V(xc)+E(xc)   XCENC  =       238.20609120
  PAW double counting   =     14669.77028121   -14635.73706213
  entropy T*S    EENTRO =         0.00000000
  eigenvalues    EBANDS =      -339.19092883
  atomic energy  EATOM  =      3701.61238226
  Solvation  Ediel_sol  =         0.00000000
  ---------------------------------------------------
  free energy    TOTEN  =      -120.60197435 eV

  energy without entropy =     -120.60197435  energy(sigma->0) =     -120.60197435


--------------------------------------------------------------------------------------------------------




--------------------------------------- Iteration      1(  13)  ---------------------------------------


    POTLOK:  cpu time    0.0759: real time    0.2225
    SETDIJ:  cpu time    0.2618: real time    0.8000
    EDDIAG:  cpu time    4.8723: real time   14.6626
  RMM-DIIS:  cpu time    8.6528: real time   26.0639
    ORTHCH:  cpu time    0.1668: real time    0.4905
 BZINTS: Fermi energy:  3.987267; 80.000000 electrons
         Band energy:-338.945495;  BLOECHL correction:  0.000000
       DOS:  cpu time    0.0102: real time    0.0206
    CHARGE:  cpu time    0.3927: real time    1.1891
    MIXING:  cpu time    0.0041: real time    0.0200
    --------------------------------------------
      LOOP:  cpu time   14.4367: real time   43.4692

 eigenvalue-minimisations  : 12305
 total energy-change (2. order) : 0.2589855E-04  (-0.4235097E-04)
 number of electron      79.9999997 magnetization      -0.0000000
 augmentation part       -0.2220766 magnetization      -0.0000011

 Broyden mixing:
  rms(total) = 0.29494E-02    rms(broyden)= 0.29488E-02
  rms(prec ) = 0.35110E-02
  weight for this iteration     100.00

 eigenvalues of (default mixing * dielectric matrix)
  average eigenvalue GAMMA=   1.4950
  2.5673  2.5673  1.9488  1.2242  1.0573  1.0573  0.9101  0.6276

 Free energy of the ion-electron system (eV)
  ---------------------------------------------------
  alpha Z        PSCENC =       133.71049959
  Ewald energy   TEWEN  =     -2580.70849286
  -Hartree energ DENC   =     -1308.52376587
  -exchange      EXHF   =         0.00000000
  -V(xc)+E(xc)   XCENC  =       238.22478999
  PAW double counting   =     14691.65382605   -14657.62569264
  entropy T*S    EENTRO =         0.00000000
  eigenvalues    EBANDS =      -338.94549498
  atomic energy  EATOM  =      3701.61238226
  Solvation  Ediel_sol  =         0.00000000
  ---------------------------------------------------
  free energy    TOTEN  =      -120.60194845 eV

  energy without entropy =     -120.60194845  energy(sigma->0) =     -120.60194845


--------------------------------------------------------------------------------------------------------




--------------------------------------- Iteration      1(  14)  ---------------------------------------


    POTLOK:  cpu time    0.0602: real time    0.1752
    SETDIJ:  cpu time    0.2594: real time    0.7936
    EDDIAG:  cpu time    3.2792: real time    9.8812
  RMM-DIIS:  cpu time    5.5802: real time   16.7929
    ORTHCH:  cpu time    0.5532: real time    1.6749
 BZINTS: Fermi energy:  3.980174; 80.000000 electrons
         Band energy:-338.985762;  BLOECHL correction:  0.000000
       DOS:  cpu time    0.0102: real time    0.0114
    --------------------------------------------
      LOOP:  cpu time    9.7424: real time   29.3291

 eigenvalue-minimisations  :  9689
 total energy-change (2. order) :-0.7556791E-06  (-0.3672912E-05)
 number of electron      79.9999997 magnetization      -0.0000000
 augmentation part       -0.2220766 magnetization      -0.0000011

 Free energy of the ion-electron system (eV)
  ---------------------------------------------------
  alpha Z        PSCENC =       133.71049959
  Ewald energy   TEWEN  =     -2580.70849286
  -Hartree energ DENC   =     -1308.47903324
  -exchange      EXHF   =         0.00000000
  -V(xc)+E(xc)   XCENC  =       238.22010490
  PAW double counting   =     14684.37403061   -14650.34567889
  entropy T*S    EENTRO =         0.00000000
  eigenvalues    EBANDS =      -338.98576159
  atomic energy  EATOM  =      3701.61238226
  Solvation  Ediel_sol  =         0.00000000
  ---------------------------------------------------
  free energy    TOTEN  =      -120.60194921 eV

  energy without entropy =     -120.60194921  energy(sigma->0) =     -120.60194921


--------------------------------------------------------------------------------------------------------




 average (electrostatic) potential at core
  the test charge radii are     0.9587  0.7089
  (the norm of the test charge is              1.0000)
       1 -86.2604       2 -86.3936       3 -86.3936       4 -86.3936       5 -86.3936
       6 -86.2604       7 -64.8921       8 -63.5998       9 -64.8921      10 -64.8921
      11 -63.5998      12 -63.5998      13 -63.7474      14 -64.8921      15 -63.5998
      16 -63.7474
 
 
 
 E-fermi :   3.9802     XC(G=0):  -9.4918     alpha+bet :-10.9185


 spin component 1

 k-point     1 :       0.0000    0.0000    0.0000
  band No.  band energies     occupation 
      1     -16.4599      1.00000
      2     -15.7508      1.00000
      3     -14.6246      1.00000
      4     -12.5009      1.00000
      5     -12.3352      1.00000
      6     -12.1050      1.00000
      7     -12.0825      1.00000
      8     -11.9324      1.00000
      9     -11.8507      1.00000
     10     -11.3896      1.00000
     11      -8.7641      1.00000
     12      -8.5711      1.00000
     13      -8.5113      1.00000
     14      -5.7792      1.00000
     15      -5.6713      1.00000
     16      -4.9182      1.00000
     17      -4.3557      1.00000
     18      -3.7793      1.00000
     19      -3.2493      1.00000
     20      -3.2235      1.00000
     21      -2.3919      1.00000
     22      -2.3881      1.00000
     23      -2.3633      1.00000
     24      -1.8381      1.00000
     25       0.0613      1.00000
     26       0.5399      1.00000
     27       0.6363      1.00000
     28       0.6641      1.00000
     29       0.6809      1.00000
     30       1.2667      1.00000
     31       1.2952      1.00000
     32       1.4442      1.00000
     33       1.4906      1.00000
     34       2.0314      1.00000
     35       2.1790      1.00000
     36       2.6702      1.00000
     37       2.7879      1.00000
     38       3.1479      1.00000
     39       3.5827      1.00000
     40       3.9709      1.00000
     41       8.2655      0.00000
     42       8.4301      0.00000
     43       9.0781      0.00000
     44       9.2167      0.00000
     45       9.3203      0.00000
     46       9.4234      0.00000
     47       9.7909      0.00000
     48      10.2743      0.00000
     49      10.3837      0.00000
     50      10.4754      0.00000
     51      10.5444      0.00000
     52      11.5893      0.00000

 k-point     2 :       0.1429    0.0000    0.0000
  band No.  band energies     occupation 
      1     -16.4001      1.00000
      2     -15.7429      1.00000
      3     -14.5760      1.00000
      4     -12.9004      1.00000
      5     -12.5779      1.00000
      6     -12.1673      1.00000
      7     -12.0358      1.00000
      8     -11.8178      1.00000
      9     -11.5334      1.00000
     10     -11.3744      1.00000
     11      -9.2565      1.00000
     12      -8.3347      1.00000
     13      -7.8863      1.00000
     14      -6.0566      1.00000
     15      -5.4794      1.00000
     16      -4.9066      1.00000
     17      -4.3596      1.00000
     18      -3.9148      1.00000
     19      -3.2559      1.00000
     20      -3.0712      1.00000
     21      -2.5992      1.00000
     22      -2.3790      1.00000
     23      -2.2179      1.00000
     24      -1.8473      1.00000
     25      -0.0772      1.00000
     26       0.2770      1.00000
     27       0.5438      1.00000
     28       0.7577      1.00000
     29       0.9932      1.00000
     30       1.2095      1.00000
     31       1.3228      1.00000
     32       1.4461      1.00000
     33       1.5489      1.00000
     34       1.9780      1.00000
     35       2.2921      1.00000
     36       2.6035      1.00000
     37       2.7315      1.00000
     38       3.0824      1.00000
     39       3.5234      1.00000
     40       3.8423      1.00000
     41       8.3499      0.00000
     42       8.4587      0.00000
     43       8.7658      0.00000
     44       9.2587      0.00000
     45       9.4116      0.00000
     46       9.5969      0.00000
     47       9.8718      0.00000
     48       9.9437      0.00000
     49      10.2659      0.00000
     50      10.8212      0.00000
     51      11.1308      0.00000
     52      11.4331      0.00000

 k-point     3 :       0.2857    0.0000    0.0000
  band No.  band energies     occupation 
      1     -16.2358      1.00000
      2     -15.7418      1.00000
      3     -14.4694      1.00000
      4     -13.3822      1.00000
      5     -12.9486      1.00000
      6     -12.2931      1.00000
      7     -12.0170      1.00000
      8     -11.7150      1.00000
      9     -11.3583      1.00000
     10     -11.2820      1.00000
     11      -9.3693      1.00000
     12      -7.9357      1.00000
     13      -7.3045      1.00000
     14      -6.2467      1.00000
     15      -5.3181      1.00000
     16      -4.9812      1.00000
     17      -4.3662      1.00000
     18      -4.0911      1.00000
     19      -3.2527      1.00000
     20      -2.9252      1.00000
     21      -2.6443      1.00000
     22      -2.4239      1.00000
     23      -2.1234      1.00000
     24      -1.9255      1.00000
     25      -0.2059      1.00000
     26      -0.0425      1.00000
     27       0.3568      1.00000
     28       0.6958      1.00000
     29       1.0870      1.00000
     30       1.3139      1.00000
     31       1.3741      1.00000
     32       1.5482      1.00000
     33       1.7659      1.00000
     34       1.9639      1.00000
     35       2.3092      1.00000
     36       2.5098      1.00000
     37       2.5845      1.00000
     38       2.9554      1.00000
     39       3.3975      1.00000
     40       3.6777      1.00000
     41       8.0514      0.00000
     42       8.4431      0.00000
     43       8.8856      0.00000
     44       9.1687      0.00000
     45       9.5314      0.00000
     46       9.7111      0.00000
     47       9.9490      0.00000
     48      10.3566      0.00000
     49      10.6392      0.00000
     50      10.8339      0.00000
     51      11.1171      0.00000
     52      11.3017      0.00000

 k-point     4 :       0.4286    0.0000    0.0000
  band No.  band energies     occupation 
      1     -16.0250      1.00000
      2     -15.8056      1.00000
      3     -14.4069      1.00000
      4     -13.6100      1.00000
      5     -13.2113      1.00000
      6     -12.4284      1.00000
      7     -12.0127      1.00000
      8     -11.6090      1.00000
      9     -11.3758      1.00000
     10     -11.3084      1.00000
     11      -9.1244      1.00000
     12      -7.6039      1.00000
     13      -7.3765      1.00000
     14      -5.8440      1.00000
     15      -5.3410      1.00000
     16      -5.1501      1.00000
     17      -4.4106      1.00000
     18      -4.1585      1.00000
     19      -3.1336      1.00000
     20      -2.9427      1.00000
     21      -2.6062      1.00000
     22      -2.4309      1.00000
     23      -2.1024      1.00000
     24      -2.0552      1.00000
     25      -0.2660      1.00000
     26      -0.2015      1.00000
     27       0.0598      1.00000
     28       0.7298      1.00000
     29       1.0410      1.00000
     30       1.3557      1.00000
     31       1.5352      1.00000
     32       1.5992      1.00000
     33       1.9076      1.00000
     34       2.0089      1.00000
     35       2.1144      1.00000
     36       2.3857      1.00000
     37       2.5963      1.00000
     38       2.8858      1.00000
     39       3.2752      1.00000
     40       3.7000      1.00000
     41       7.6023      0.00000
     42       8.4324      0.00000
     43       9.1040      0.00000
     44       9.3580      0.00000
     45       9.6528      0.00000
     46       9.9644      0.00000
     47      10.3026      0.00000
     48      10.4927      0.00000
     49      10.7892      0.00000
     50      10.9409      0.00000
     51      11.0353      0.00000
     52      11.1625      0.00000

 k-point     5 :       0.1429    0.1429    0.0000
  band No.  band energies     occupation 
      1     -16.3441      1.00000
      2     -15.7616      1.00000
      3     -14.4667      1.00000
      4     -12.9895      1.00000
      5     -12.6373      1.00000
      6     -12.6144      1.00000
      7     -11.9229      1.00000
      8     -11.7012      1.00000
      9     -11.5912      1.00000
     10     -11.3924      1.00000
     11      -8.5455      1.00000
     12      -8.2816      1.00000
     13      -8.2402      1.00000
     14      -6.2994      1.00000
     15      -5.1337      1.00000
     16      -4.8821      1.00000
     17      -4.3139      1.00000
     18      -3.8557      1.00000
     19      -3.3421      1.00000
     20      -3.1738      1.00000
     21      -2.5416      1.00000
     22      -2.4042      1.00000
     23      -2.2730      1.00000
     24      -1.8720      1.00000
     25      -0.1557      1.00000
     26       0.2398      1.00000
     27       0.3339      1.00000
     28       0.7751      1.00000
     29       0.9738      1.00000
     30       1.2752      1.00000
     31       1.3324      1.00000
     32       1.5638      1.00000
     33       1.5893      1.00000
     34       2.0165      1.00000
     35       2.3274      1.00000
     36       2.5688      1.00000
     37       2.6833      1.00000
     38       3.0322      1.00000
     39       3.4142      1.00000
     40       3.7497      1.00000
     41       8.3941      0.00000
     42       8.6207      0.00000
     43       8.7365      0.00000
     44       8.7809      0.00000
     45       9.5803      0.00000
     46       9.6438      0.00000
     47       9.8795      0.00000
     48      10.1230      0.00000
     49      10.2771      0.00000
     50      10.6388      0.00000
     51      11.0038      0.00000
     52      11.4853      0.00000

 k-point     6 :       0.2857    0.1429    0.0000
  band No.  band energies     occupation 
      1     -16.1793      1.00000
      2     -15.7637      1.00000
      3     -14.3221      1.00000
      4     -13.4116      1.00000
      5     -13.0621      1.00000
      6     -12.6743      1.00000
      7     -11.8903      1.00000
      8     -11.6740      1.00000
      9     -11.4513      1.00000
     10     -11.3722      1.00000
     11      -8.5928      1.00000
     12      -7.9413      1.00000
     13      -7.6772      1.00000
     14      -6.4407      1.00000
     15      -4.9575      1.00000
     16      -4.8962      1.00000
     17      -4.2984      1.00000
     18      -3.9822      1.00000
     19      -3.4275      1.00000
     20      -3.1186      1.00000
     21      -2.6085      1.00000
     22      -2.3220      1.00000
     23      -2.2994      1.00000
     24      -1.9073      1.00000
     25      -0.2641      1.00000
     26       0.0938      1.00000
     27       0.1777      1.00000
     28       0.6237      1.00000
     29       0.9935      1.00000
     30       1.2031      1.00000
     31       1.3823      1.00000
     32       1.6937      1.00000
     33       1.8392      1.00000
     34       2.0220      1.00000
     35       2.3381      1.00000
     36       2.4720      1.00000
     37       2.6087      1.00000
     38       2.9080      1.00000
     39       3.2880      1.00000
     40       3.5721      1.00000
     41       8.1018      0.00000
     42       8.6389      0.00000
     43       8.7718      0.00000
     44       9.1558      0.00000
     45       9.3107      0.00000
     46       9.7367      0.00000
     47       9.9130      0.00000
     48      10.3254      0.00000
     49      10.5003      0.00000
     50      10.7412      0.00000
     51      11.4201      0.00000
     52      11.5569      0.00000

 k-point     7 :       0.4286    0.1429    0.0000
  band No.  band energies     occupation 
      1     -15.9606      1.00000
      2     -15.7996      1.00000
      3     -14.2962      1.00000
      4     -13.7278      1.00000
      5     -13.2981      1.00000
      6     -12.6439      1.00000
      7     -11.9019      1.00000
      8     -11.6305      1.00000
      9     -11.4523      1.00000
     10     -11.3711      1.00000
     11      -8.6171      1.00000
     12      -7.6166      1.00000
     13      -7.4466      1.00000
     14      -6.0013      1.00000
     15      -5.3204      1.00000
     16      -4.8994      1.00000
     17      -4.2573      1.00000
     18      -4.2137      1.00000
     19      -3.3159      1.00000
     20      -3.0307      1.00000
     21      -2.6778      1.00000
[...]
     23      -1.9928      1.00000
     24      -1.9928      1.00000
     25      -0.2739      1.00000
     26      -0.2739      1.00000
     27       0.5243      1.00000
     28       0.5243      1.00000
     29       0.9836      1.00000
     30       0.9836      1.00000
     31       1.6434      1.00000
     32       1.6434      1.00000
     33       2.0015      1.00000
     34       2.0015      1.00000
     35       2.1704      1.00000
     36       2.1704      1.00000
     37       2.8539      1.00000
     38       2.8539      1.00000
     39       3.1914      1.00000
     40       3.1914      1.00000
     41       8.2584      0.00000
     42       8.2584      0.00000
     43       8.9270      0.00000
     44       8.9270      0.00000
     45       9.5052      0.00000
     46       9.5052      0.00000
     47      10.6029      0.00000
     48      10.6030      0.00000
     49      11.0267      0.00000
     50      11.0270      0.00000
     51      11.3821      0.00000
     52      11.3877      0.00000

 k-point    59 :       0.4286    0.4286    0.5000
  band No.  band energies     occupation 
      1     -15.7605      1.00000
      2     -15.4685      1.00000
      3     -14.3982      1.00000
      4     -14.0044      1.00000
      5     -13.5081      1.00000
      6     -13.3310      1.00000
      7     -11.7559      1.00000
      8     -11.6484      1.00000
      9     -11.4726      1.00000
     10     -11.4619      1.00000
     11      -7.8404      1.00000
     12      -7.0822      1.00000
     13      -6.7580      1.00000
     14      -6.5422      1.00000
     15      -5.3654      1.00000
     16      -4.8028      1.00000
     17      -4.2777      1.00000
     18      -3.9545      1.00000
     19      -3.4237      1.00000
     20      -3.2796      1.00000
     21      -2.7988      1.00000
     22      -2.7405      1.00000
     23      -1.9702      1.00000
     24      -1.9322      1.00000
     25      -0.2783      1.00000
     26      -0.1333      1.00000
     27       0.1793      1.00000
     28       0.3105      1.00000
     29       0.9255      1.00000
     30       0.9831      1.00000
     31       1.3887      1.00000
     32       1.5607      1.00000
     33       1.5628      1.00000
     34       1.8562      1.00000
     35       2.1544      1.00000
     36       2.3938      1.00000
     37       2.7972      1.00000
     38       3.0074      1.00000
     39       3.1368      1.00000
     40       3.2967      1.00000
     41       8.1781      0.00000
     42       8.2579      0.00000
     43       8.5588      0.00000
     44       8.9710      0.00000
     45       9.5974      0.00000
     46       9.7417      0.00000
     47      10.4484      0.00000
     48      10.6167      0.00000
     49      11.0547      0.00000
     50      11.1638      0.00000
     51      11.6190      0.00000
     52      11.7521      0.00000

 k-point    60 :      -0.4286    0.4286    0.5000
  band No.  band energies     occupation 
      1     -15.6191      1.00000
      2     -15.6191      1.00000
      3     -14.2414      1.00000
      4     -14.2414      1.00000
      5     -13.3734      1.00000
      6     -13.3734      1.00000
      7     -11.7233      1.00000
      8     -11.7233      1.00000
      9     -11.4410      1.00000
     10     -11.4410      1.00000
     11      -7.6582      1.00000
     12      -7.6582      1.00000
     13      -6.3315      1.00000
     14      -6.3315      1.00000
     15      -5.3236      1.00000
     16      -5.3236      1.00000
     17      -3.9978      1.00000
     18      -3.9978      1.00000
     19      -3.3708      1.00000
     20      -3.3708      1.00000
     21      -2.7400      1.00000
     22      -2.7400      1.00000
     23      -1.9640      1.00000
     24      -1.9640      1.00000
     25      -0.2700      1.00000
     26      -0.2700      1.00000
     27       0.3445      1.00000
     28       0.3445      1.00000
     29       0.9116      1.00000
     30       0.9116      1.00000
     31       1.5022      1.00000
     32       1.5022      1.00000
     33       1.6873      1.00000
     34       1.6873      1.00000
     35       2.2443      1.00000
     36       2.2443      1.00000
     37       2.9546      1.00000
     38       2.9546      1.00000
     39       3.2033      1.00000
     40       3.2033      1.00000
     41       8.1262      0.00000
     42       8.1262      0.00000
     43       8.8455      0.00000
     44       8.8455      0.00000
     45       9.6704      0.00000
     46       9.6704      0.00000
     47      10.6196      0.00000
     48      10.6196      0.00000
     49      10.9185      0.00000
     50      10.9185      0.00000
     51      11.8990      0.00000
     52      11.9628      0.00000


--------------------------------------------------------------------------------------------------------


 soft charge-density along one line, spin component           1
         0         1         2         3         4         5         6         7         8         9
 total charge-density along one line
 
 soft charge-density along one line, spin component           2
         0         1         2         3         4         5         6         7         8         9
 total charge-density along one line
 
 pseudopotential strength for first ion, spin component:           1
 29.134  36.343  -0.000  -0.000   0.022  -0.000  -0.000   0.033
 36.343  45.339  -0.000  -0.000   0.027  -0.000  -0.000   0.042
 -0.000  -0.000   6.448  -0.000  -0.000   9.972  -0.000  -0.000
 -0.000  -0.000  -0.000   6.442  -0.000  -0.000   9.963  -0.000
  0.022   0.027  -0.000  -0.000   6.441  -0.000  -0.000   9.962
 -0.000  -0.000   9.972  -0.000  -0.000  15.440  -0.001  -0.000
 -0.000  -0.000  -0.000   9.963  -0.000  -0.001  15.426  -0.000
  0.033   0.042  -0.000  -0.000   9.962  -0.000  -0.000  15.425
 pseudopotential strength for first ion, spin component:           2
 29.134  36.343  -0.000  -0.000   0.022  -0.000  -0.000   0.033
 36.343  45.339  -0.000  -0.000   0.027  -0.000  -0.000   0.042
 -0.000  -0.000   6.448  -0.000  -0.000   9.972  -0.000  -0.000
 -0.000  -0.000  -0.000   6.442  -0.000  -0.000   9.963  -0.000
  0.022   0.027  -0.000  -0.000   6.441  -0.000  -0.000   9.962
 -0.000  -0.000   9.972  -0.000  -0.000  15.440  -0.001  -0.000
 -0.000  -0.000  -0.000   9.963  -0.000  -0.001  15.426  -0.000
  0.033   0.042  -0.000  -0.000   9.962  -0.000  -0.000  15.425
 total augmentation occupancy for first ion, spin component:           1
 18.734 -11.589   0.000   0.000  -0.273   0.000   0.000   0.181
-11.589   7.462   0.000   0.000   0.096   0.000   0.000  -0.095
  0.000   0.000   8.248   0.551   0.000  -3.358  -0.230   0.000
  0.000   0.000   0.551   6.261   0.000  -0.228  -2.424   0.000
 -0.273   0.096   0.000   0.000   5.921   0.000   0.000  -2.234
  0.000   0.000  -3.358  -0.228   0.000   1.403   0.102   0.000
  0.000   0.000  -0.230  -2.424   0.000   0.102   0.976   0.000
  0.181  -0.095   0.000   0.000  -2.234   0.000   0.000   0.882
 total augmentation occupancy for first ion, spin component:           2
  0.000  -0.000   0.000   0.000   0.000   0.000  -0.000  -0.000
 -0.000   0.000  -0.000  -0.000  -0.000  -0.000   0.000   0.000
  0.000  -0.000  -0.000  -0.000   0.000   0.000   0.000   0.000
  0.000  -0.000  -0.000  -0.000   0.000   0.000   0.000   0.000
  0.000  -0.000   0.000   0.000  -0.000   0.000  -0.000   0.000
  0.000  -0.000   0.000   0.000   0.000  -0.000  -0.000   0.000
 -0.000   0.000   0.000   0.000  -0.000  -0.000  -0.000   0.000
 -0.000   0.000   0.000   0.000   0.000   0.000   0.000  -0.000


------------------------ aborting loop because EDIFF is reached ----------------------------------------


 


 total charge     
 
# of ion       s       p       d       tot
------------------------------------------
    1        0.911   1.504   0.000   2.415
    2        0.912   1.481   0.000   2.392
    3        0.906   1.492   0.000   2.398
    4        0.912   1.481   0.000   2.392
    5        0.906   1.492   0.000   2.398
    6        0.911   1.504   0.000   2.415
    7        1.223   2.739   0.000   3.962
    8        1.239   2.743   0.000   3.982
    9        1.223   2.739   0.000   3.962
   10        1.229   2.722   0.000   3.951
   11        1.232   2.760   0.000   3.992
   12        1.239   2.743   0.000   3.982
   13        1.220   2.794   0.000   4.014
   14        1.229   2.722   0.000   3.951
   15        1.232   2.760   0.000   3.992
   16        1.207   2.795   0.000   4.002
--------------------------------------------------
tot         17.732  36.468   0.000  54.200
 


 magnetization (x)
 
# of ion       s       p       d       tot
------------------------------------------
    1       -0.000   0.000   0.000  -0.000
    2       -0.000  -0.000   0.000  -0.000
    3       -0.000  -0.000   0.000  -0.000
    4       -0.000  -0.000   0.000  -0.000
    5        0.000  -0.000   0.000  -0.000
    6       -0.000  -0.000   0.000  -0.000
    7       -0.000   0.000   0.000   0.000
    8       -0.000   0.000   0.000   0.000
    9       -0.000   0.000   0.000   0.000
   10       -0.000   0.000   0.000   0.000
   11       -0.000  -0.000   0.000  -0.000
   12       -0.000  -0.000   0.000  -0.000
   13        0.000  -0.000   0.000   0.000
   14       -0.000  -0.000   0.000  -0.000
   15       -0.000   0.000   0.000  -0.000
   16        0.000  -0.000   0.000  -0.000
--------------------------------------------------
tot         -0.000  -0.000   0.000  -0.000
 
    CHARGE:  cpu time    0.3973: real time    1.1952
    FORLOC:  cpu time    0.0041: real time    0.0131
    FORNL :  cpu time    2.7536: real time    8.2961
    STRESS:  cpu time    8.4423: real time   25.3936
    FORCOR:  cpu time    0.0574: real time    0.1711
    FORHAR:  cpu time    0.0090: real time    0.0277
    MIXING:  cpu time    0.0020: real time    0.0117
    OFIELD:  cpu time    0.0001: real time    0.0001

  FORCE on cell =-STRESS in cart. coord.  units (eV):
  Direction    XX          YY          ZZ          XY          YZ          ZX
  --------------------------------------------------------------------------------------
  Alpha Z   133.69220   133.69220   133.69220
  Ewald   -1158.32714  -504.63020  -917.59162    -0.00000   160.73443    -0.00000
  Hartree   282.64469   566.44497   459.50979     0.00000    34.67089    -0.00000
  E(xc)    -328.90242  -327.89485  -328.48885    -0.00000     0.13801    -0.00000
  Local    -404.76879 -1297.67960  -814.98644    -0.00000  -186.29194    -0.00000
  n-local   158.64666   172.06436   151.11622    -0.11438    12.28529    -0.34632
  augment   -42.77735   -43.96424   -42.57613    -0.00000    -0.70616    -0.00000
  Kinetic  1359.84999  1301.98449  1359.33182    -0.84686   -20.85366     0.22862
  Fock        0.00000     0.00000     0.00000     0.00000     0.00000     0.00000
  -------------------------------------------------------------------------------------
  Total       0.05783     0.01713     0.00699     0.00000    -0.02314     0.00000
  in kB       0.46109     0.13659     0.05572     0.00000    -0.18452     0.00000
  external pressure =        0.22 kB  Pullay stress =        0.00 kB


 VOLUME and BASIS-vectors are now :
 -----------------------------------------------------------------------------
  energy-cutoff  :      520.00
  volume of cell :      200.94
      direct lattice vectors                 reciprocal lattice vectors
     2.947860635  4.092787085  0.000102300     0.169614531  0.122167609 -0.058780873
    -2.947860635  4.092787085  0.000102300    -0.169614531  0.122167609 -0.058780873
     0.000000000  4.006811585  8.327582892     0.000000000 -0.000003002  0.120084308

  length of vectors
     5.043886245  5.043886245  9.241383874     0.217138677  0.217138677  0.120084308


 FORCES acting on ions
    electron-ion (+dipol)            ewald-force                    non-local-force                 convergence-correction
 -----------------------------------------------------------------------------------------------
   0.236E+02 -.368E-13 0.706E-12   -.294E+02 -.205E-11 -.261E-11   0.582E+01 -.167E-15 -.278E-16   0.843E-03 -.390E-12 -.246E-12
   -.177E+02 -.419E+02 -.409E+01   0.178E+02 0.469E+02 0.655E+01   -.121E+00 -.508E+01 -.245E+01   -.287E-02 -.112E-02 0.118E-02
   0.177E+02 -.419E+02 -.409E+01   -.178E+02 0.469E+02 0.655E+01   0.121E+00 -.508E+01 -.245E+01   0.287E-02 -.112E-02 0.118E-02
   0.177E+02 0.419E+02 0.409E+01   -.178E+02 -.469E+02 -.655E+01   0.121E+00 0.508E+01 0.245E+01   0.287E-02 0.112E-02 -.118E-02
   -.177E+02 0.419E+02 0.409E+01   0.178E+02 -.469E+02 -.655E+01   -.121E+00 0.508E+01 0.245E+01   -.287E-02 0.112E-02 -.118E-02
   -.236E+02 -.374E-12 0.242E-11   0.294E+02 -.206E-11 -.257E-11   -.582E+01 0.167E-15 0.278E-16   -.843E-03 0.400E-12 0.686E-13
   -.207E+02 0.240E+02 -.223E+02   0.219E+02 -.258E+02 0.233E+02   -.124E+01 0.179E+01 -.102E+01   -.331E-02 0.111E-02 -.299E-02
   0.111E+02 0.406E+02 -.508E+02   -.721E+01 -.543E+02 0.627E+02   -.390E+01 0.137E+02 -.119E+02   -.204E-02 -.545E-02 -.460E-02
   0.207E+02 -.240E+02 0.223E+02   -.219E+02 0.258E+02 -.233E+02   0.124E+01 -.179E+01 0.102E+01   0.331E-02 -.111E-02 0.299E-02
   -.207E+02 -.240E+02 0.223E+02   0.219E+02 0.258E+02 -.233E+02   -.124E+01 -.179E+01 0.102E+01   -.331E-02 -.111E-02 0.299E-02
   0.111E+02 -.406E+02 0.508E+02   -.721E+01 0.543E+02 -.627E+02   -.390E+01 -.137E+02 0.119E+02   -.204E-02 0.545E-02 0.460E-02
   -.111E+02 -.406E+02 0.508E+02   0.721E+01 0.543E+02 -.627E+02   0.390E+01 -.137E+02 0.119E+02   0.204E-02 0.545E-02 0.460E-02
   0.357E-13 0.497E-13 0.137E-12   -.110E-11 -.512E-12 0.154E-11   -.199E-22 0.000E+00 -.212E-21   0.147E-12 -.858E-13 0.127E-11
   0.207E+02 0.240E+02 -.223E+02   -.219E+02 -.258E+02 0.233E+02   0.124E+01 0.179E+01 -.102E+01   0.331E-02 0.111E-02 -.299E-02
   -.111E+02 0.406E+02 -.508E+02   0.721E+01 -.543E+02 0.627E+02   0.390E+01 0.137E+02 -.119E+02   0.204E-02 -.545E-02 -.460E-02
   0.714E-13 0.258E-13 0.378E-13   0.110E-11 -.476E-12 0.151E-11   -.331E-23 0.000E+00 0.212E-21   0.123E-12 0.207E-13 -.114E-11
 -----------------------------------------------------------------------------------------------
   0.107E-11 -.827E-12 0.419E-11   0.314E-13 -.356E-13 0.497E-13   0.888E-15 0.000E+00 0.212E-21   -.771E-12 0.270E-12 -.363E-12
 
 
 POSITION                                       TOTAL-FORCE (eV/Angst)
 -----------------------------------------------------------------------------------
     -0.10622      5.09449      2.08200         0.013619     -0.000000     -0.000000
      1.74682      5.22058      4.62409        -0.014855      0.006765      0.002012
     -1.74682      3.21718      0.46029         0.014855      0.006765      0.002012
     -1.74682      6.97180      3.70370         0.014855     -0.006765     -0.002012
      1.74682      8.97521      7.86749        -0.014855     -0.006765     -0.002012
      0.10622      7.09790      6.24579        -0.013619     -0.000000     -0.000000
     -0.85017      7.68231      4.99466        -0.012126      0.005325      0.005253
     -0.82187      3.78373      1.59649         0.005191     -0.007240     -0.022061
      0.85017      4.51007      3.33313         0.012126     -0.005325     -0.005253
     -0.85017      6.51348      7.49692        -0.012126     -0.005325     -0.005253
     -0.82187      6.40525      2.56751         0.005191      0.007240      0.022061
      0.82187      8.40866      6.73130        -0.005191      0.007240      0.022061
     -0.00000      2.00341      4.16379        -0.000000     -0.000000     -0.000000
      0.85017      5.67891      0.83087         0.012126      0.005325      0.005253
      0.82187      5.78714      5.76028        -0.005191     -0.007240     -0.022061
     -0.00000     -0.00000     -0.00000        -0.000000      0.000000     -0.000000
 -----------------------------------------------------------------------------------
    total drift:                                0.000000     -0.000000      0.000000


--------------------------------------------------------------------------------------------------------



  FREE ENERGIE OF THE ION-ELECTRON SYSTEM (eV)
  ---------------------------------------------------
  free  energy   TOTEN  =      -120.60202835 eV

  energy  without entropy=     -120.60202835  energy(sigma->0) =     -120.60202835
 
 d Force = 0.5197694E-03[ 0.180E-04, 0.102E-02]  d Energy = 0.5670752E-03-0.473E-04
 d Force = 0.6149297E-01[ 0.592E-01, 0.637E-01]  d Ewald  = 0.4507303E+00-0.389E+00


--------------------------------------------------------------------------------------------------------


    POTLOK:  cpu time    0.3175: real time    0.9597


--------------------------------------------------------------------------------------------------------




--------------------------------------------------------------------------------------------------------


  
 reached required accuracy - stopping structural energy minimisation
     LOOP+:  cpu time   83.5813: real time  251.6503
    4ORBIT:  cpu time    0.0000: real time    0.0000
 


 total charge     
 
# of ion       s       p       d       tot
------------------------------------------
    1        0.911   1.504   0.000   2.415
    2        0.912   1.481   0.000   2.392
    3        0.906   1.492   0.000   2.398
    4        0.912   1.481   0.000   2.392
    5        0.906   1.492   0.000   2.398
    6        0.911   1.504   0.000   2.415
    7        1.223   2.739   0.000   3.962
    8        1.239   2.743   0.000   3.982
    9        1.223   2.739   0.000   3.962
   10        1.229   2.722   0.000   3.951
   11        1.232   2.760   0.000   3.992
   12        1.239   2.743   0.000   3.982
   13        1.220   2.794   0.000   4.014
   14        1.229   2.722   0.000   3.951
   15        1.232   2.760   0.000   3.992
   16        1.207   2.795   0.000   4.002
--------------------------------------------------
tot         17.732  36.468   0.000  54.200
 


 magnetization (x)
 
# of ion       s       p       d       tot
------------------------------------------
    1       -0.000   0.000   0.000  -0.000
    2       -0.000  -0.000   0.000  -0.000
    3       -0.000  -0.000   0.000  -0.000
    4       -0.000  -0.000   0.000  -0.000
    5        0.000  -0.000   0.000  -0.000
    6       -0.000  -0.000   0.000  -0.000
    7       -0.000   0.000   0.000   0.000
    8       -0.000   0.000   0.000   0.000
    9       -0.000   0.000   0.000   0.000
   10       -0.000   0.000   0.000   0.000
   11       -0.000  -0.000   0.000  -0.000
   12       -0.000  -0.000   0.000  -0.000
   13        0.000  -0.000   0.000   0.000
   14       -0.000  -0.000   0.000  -0.000
   15       -0.000   0.000   0.000  -0.000
   16        0.000  -0.000   0.000  -0.000
--------------------------------------------------
tot         -0.000  -0.000   0.000  -0.000
 
 BZINTS: Fermi energy:  4.017650; 80.000000 electrons
         Band energy:-339.009321;  BLOECHL correction:  0.000000

 total amount of memory used by VASP MPI-rank0    63852. kBytes
=======================================================================

   base      :      30000. kBytes
   nonlr-proj:       2934. kBytes
   fftplans  :       2037. kBytes
   grid      :       5201. kBytes
   one-center:         18. kBytes
   wavefun   :      23662. kBytes
 
  
  
 General timing and accounting informations for this job:
 ========================================================
  
                  Total CPU time used (sec):      434.266
                            User time (sec):      399.218
                          System time (sec):       35.048
                         Elapsed time (sec):     1307.390
  
                   Maximum memory used (kb):      128016.
                   Average memory used (kb):           0.
  
                          Minor page faults:       110117
                          Major page faults:            0
                 Voluntary context switches:        64652
