unknown system                          
           1
     2.947666    4.092900    0.000000
    -2.947666    4.092900    0.000000
     0.000000    4.006714    8.326663
   P    N 
   6  10
Direct configuration=     1
   0.48197700  0.51802300  0.25000000
   0.66218900  0.06970000  0.55530200
   0.06970000  0.66218900  0.05530200
   0.33781100  0.93030000  0.44469800
   0.93030000  0.33781100  0.94469800
   0.51802300  0.48197700  0.75000000
   0.50075600  0.78912000  0.59974300
   0.22890800  0.50785500  0.19169400
   0.49924400  0.21088000  0.40025700
   0.21088000  0.49924400  0.90025700
   0.49214500  0.77109200  0.30830600
   0.77109200  0.49214500  0.80830600
   0.00000000  0.00000000  0.50000000
   0.78912000  0.50075600  0.09974300
   0.50785500  0.22890800  0.69169400
   0.00000000  0.00000000  0.00000000
unknown system                          
           1
     2.948384    4.092484    0.000377
    -2.948384    4.092484    0.000377
     0.000000    4.007074    8.330054
   P    N 
   6  10
Direct configuration=     2
   0.48200266  0.51799734  0.25000000
   0.66246692  0.06967090  0.55516348
   0.06967090  0.66246692  0.05516348
   0.33753308  0.93032910  0.44483652
   0.93032910  0.33753308  0.94483652
   0.51799734  0.48200266  0.75000000
   0.50069039  0.78919301  0.59979645
   0.22926783  0.50767812  0.19172206
   0.49930961  0.21080699  0.40020355
   0.21080699  0.49930961  0.90020355
   0.49232188  0.77073217  0.30827794
   0.77073217  0.49232188  0.80827794
  -0.00000000 -0.00000000  0.50000000
   0.78919301  0.50069039  0.09979645
   0.50767812  0.22926783  0.69172206
  -0.00000000 -0.00000000  0.00000000
unknown system                          
           1
     2.947861    4.092787    0.000102
    -2.947861    4.092787    0.000102
     0.000000    4.006812    8.327583
   P    N 
   6  10
Direct configuration=     3
   0.48198397  0.51801603  0.25000000
   0.66226442  0.06969208  0.55526439
   0.06969208  0.66226442  0.05526439
   0.33773558  0.93030792  0.44473561
   0.93030792  0.33773558  0.94473561
   0.51801603  0.48198397  0.75000000
   0.50073818  0.78913981  0.59975751
   0.22900564  0.50780696  0.19170163
   0.49926182  0.21086019  0.40024249
   0.21086019  0.49926182  0.90024249
   0.49219304  0.77099436  0.30829837
   0.77099436  0.49219304  0.80829837
  -0.00000000 -0.00000000  0.50000000
   0.78913981  0.50073818  0.09975751
   0.50780696  0.22900564  0.69170163
  -0.00000000 -0.00000000 -0.00000000
