 running on   24 total cores
 distrk:  each k-point on   24 cores,    1 groups
 distr:  one band on    6 cores,    4 groups
 using from now: INCAR     
 vasp.6.1.2 22Jul20 (build Mar 31 2021 18:09:49) complex                        
  
 POSCAR found type information on POSCAR LiP 
 POSCAR found :  2 types and       8 ions
 scaLAPACK will be used
 -----------------------------------------------------------------------------
|                                                                             |
|               ----> ADVICE to this user running VASP <----                  |
|                                                                             |
|     You have a (more or less) 'small supercell' and for smaller cells       |
|     it is recommended to use the reciprocal-space projection scheme!        |
|     The real-space optimization is not efficient for small cells and it     |
|     is also less accurate ...                                               |
|     Therefore, set LREAL=.FALSE. in the INCAR file.                         |
|                                                                             |
 -----------------------------------------------------------------------------

 LDA part: xc-table for Pade appr. of Perdew
 generate k-points for:    9    9    4
 POSCAR, INCAR and KPOINTS ok, starting setup
 FFT: planning ...
 WAVECAR not read
 entering main loop
       N       E                     dE             d eps       ncg     rms          rms(c)
DAV:   1     0.158276662314E+03    0.15828E+03   -0.11823E+04  9120   0.118E+03
DAV:   2     0.190885262829E+01   -0.15637E+03   -0.14751E+03  9960   0.299E+02
DAV:   3    -0.236388857904E+02   -0.25548E+02   -0.25311E+02 16448   0.700E+01
DAV:   4    -0.263546462110E+02   -0.27158E+01   -0.26962E+01 13504   0.309E+01
DAV:   5    -0.265564132407E+02   -0.20177E+00   -0.20175E+00 14512   0.663E+00    0.149E+01
RMM:   6    -0.270198135160E+02   -0.46340E+00   -0.16312E+00 11148   0.632E+00    0.755E+00
RMM:   7    -0.277242336282E+02   -0.70442E+00   -0.49867E-01 12643   0.427E+00    0.284E+00
RMM:   8    -0.277947882424E+02   -0.70555E-01   -0.38700E-01 14387   0.285E+00    0.118E+00
RMM:   9    -0.278035341713E+02   -0.87459E-02   -0.96346E-02 15193   0.169E+00    0.518E-01
RMM:  10    -0.278118619922E+02   -0.83278E-02   -0.43116E-02 15879   0.102E+00    0.267E-01
RMM:  11    -0.278140707985E+02   -0.22088E-02   -0.16057E-02 16236   0.592E-01    0.196E-01
RMM:  12    -0.278148611403E+02   -0.79034E-03   -0.61020E-03 15883   0.449E-01    0.512E-02
RMM:  13    -0.278154551948E+02   -0.59405E-03   -0.33957E-03 16294   0.276E-01    0.186E-02
RMM:  14    -0.278156732057E+02   -0.21801E-03   -0.17656E-03 15950   0.180E-01    0.222E-02
RMM:  15    -0.278157695235E+02   -0.96318E-04   -0.82862E-04 14308   0.121E-01    0.195E-02
RMM:  16    -0.278158199851E+02   -0.50462E-04   -0.44423E-04 14177   0.881E-02    0.269E-02
RMM:  17    -0.278158395935E+02   -0.19608E-04   -0.24987E-04 13807   0.732E-02    0.165E-02
RMM:  18    -0.278158565202E+02   -0.16927E-04   -0.15566E-04 13067   0.547E-02    0.148E-02
RMM:  19    -0.278158656754E+02   -0.91553E-05   -0.10058E-04 11886   0.451E-02    0.129E-02
RMM:  20    -0.278158711134E+02   -0.54380E-05   -0.56953E-05 10727   0.376E-02
   1 F= -.27815871E+02 E0= -.27815871E+02  d E =0.000000E+00  mag=    -0.0001
