    6    6    1    2
  0.1324437E+02  0.4883471E-09  0.4883471E-09  0.4883471E-09  0.5000000E-15
  1.000000000000000E-004
  CAR 
 unknown system                          
     32    296     22
 
  0.0000000E+00  0.0000000E+00  0.0000000E+00  0.1562500E-02
    1      -19.918208    -19.918180   1.000000   1.000000
    2      -17.745746    -17.745661   1.000000   1.000000
    3      -14.033882    -14.033718   1.000000   1.000000
    4      -12.582180    -12.581974   1.000000   1.000000
    5      -11.613935    -11.613945   1.000000   1.000000
    6       -6.842451     -6.842433   1.000000   1.000000
    7       -5.691325     -5.691269   1.000000   1.000000
    8       -5.649587     -5.649536   1.000000   1.000000
    9       -2.620915     -2.620992   1.000000   1.000000
   10       -1.933269     -1.933296   1.000000   1.000000
   11       -0.883622     -0.883629   1.000000   1.000000
   12       -0.820410     -0.820327   1.000000   1.000000
   13        0.239627      0.239619   1.000000   1.000000
   14        0.458803      0.458848   1.000000   1.000000
   15        1.138616      1.138668   1.000000   1.000000
   16        1.854296      1.854284   1.000000   1.000000
   17        7.077951      7.077781   0.000002   0.000005
   18        7.394939      7.394638   0.000000   0.000000
   19        8.673673      8.673470   0.000000   0.000000
   20       10.153757     10.153296   0.000000   0.000000
   21       10.331469     10.331288   0.000000   0.000000
   22       11.485819     11.485583   0.000000   0.000000
 
  0.1250000E+00 -0.4840573E-17 -0.3071813E-16  0.3125000E-02
    1      -19.894375    -19.894346   1.000000   1.000000
    2      -17.750201    -17.750116   1.000000   1.000000
    3      -14.108503    -14.108350   1.000000   1.000000
    4      -12.916585    -12.916419   1.000000   1.000000
    5      -11.143656    -11.143618   1.000000   1.000000
    6       -6.813135     -6.813114   1.000000   1.000000
    7       -5.730572     -5.730510   1.000000   1.000000
    8       -5.614957     -5.614901   1.000000   1.000000
    9       -2.594286     -2.594361   1.000000   1.000000
   10       -1.960138     -1.960165   1.000000   1.000000
   11       -1.035953     -1.035904   1.000000   1.000000
   12       -0.828955     -0.828951   1.000000   1.000000
   13        0.277975      0.277979   1.000000   1.000000
   14        0.393255      0.393285   1.000000   1.000000
   15        1.095181      1.095226   1.000000   1.000000
   16        1.847931      1.847926   1.000000   1.000000
   17        7.259421      7.259268  -0.000000  -0.000000
   18        7.516880      7.516613   0.000000   0.000000
   19        8.505609      8.505351   0.000000   0.000000
   20       10.255632     10.255402   0.000000   0.000000
   21       10.364594     10.364177   0.000000   0.000000
   22       11.357700     11.357487   0.000000   0.000000
 
  0.2500000E+00 -0.9681145E-17 -0.6143627E-16  0.3125000E-02
    1      -19.834605    -19.834575   1.000000   1.000000
    2      -17.761066    -17.760983   1.000000   1.000000
    3      -14.327645    -14.327518   1.000000   1.000000
    4      -13.279097    -13.278933   1.000000   1.000000
    5      -10.395234    -10.395175   1.000000   1.000000
    6       -6.739018     -6.738991   1.000000   1.000000
    7       -5.852646     -5.852560   1.000000   1.000000
    8       -5.510476     -5.510412   1.000000   1.000000
    9       -2.524236     -2.524306   1.000000   1.000000
   10       -2.081652     -2.081681   1.000000   1.000000
   11       -1.418390     -1.418377   1.000000   1.000000
   12       -0.752720     -0.752729   1.000000   1.000000
   13        0.248330      0.248354   1.000000   1.000000
   14        0.325906      0.325910   1.000000   1.000000
   15        1.020645      1.020675   1.000000   1.000000
   16        1.797912      1.797921   1.000000   1.000000
   17        7.595486      7.595241   0.000000   0.000000
   18        7.661647      7.661569   0.000000   0.000000
   19        8.648803      8.648476   0.000000   0.000000
   20       10.033564     10.033336   0.000000   0.000000
   21       10.582361     10.582018   0.000000   0.000000
   22       11.288652     11.288461   0.000000   0.000000
 
  0.3750000E+00 -0.3841248E-16 -0.9601922E-16  0.3125000E-02
    1      -19.771492    -19.771461   1.000000   1.000000
    2      -17.772713    -17.772630   1.000000   1.000000
    3      -14.576495    -14.576388   1.000000   1.000000
    4      -13.448031    -13.447860   1.000000   1.000000
    5       -9.775038     -9.774978   1.000000   1.000000
    6       -6.662072     -6.662038   1.000000   1.000000
    7       -5.984530     -5.984408   1.000000   1.000000
    8       -5.410931     -5.410860   1.000000   1.000000
    9       -2.460859     -2.460924   1.000000   1.000000
   10       -2.334989     -2.335046   1.000000   1.000000
   11       -1.648411     -1.648417   1.000000   1.000000
   12       -0.608483     -0.608495   1.000000   1.000000
   13        0.054996      0.055010   1.000000   1.000000
   14        0.264718      0.264712   1.000000   1.000000
   15        1.085727      1.085753   1.000000   1.000000
   16        1.662304      1.662323   1.000000   1.000000
   17        7.596637      7.596415   0.000000   0.000000
   18        8.017616      8.017536   0.000000   0.000000
   19        9.222066      9.221836   0.000000   0.000000
   20        9.785320      9.784976   0.000000   0.000000
   21       10.557419     10.557019   0.000000   0.000000
   22       11.487950     11.485229   0.000000   0.000000
 
  0.5000000E+00 -0.1936229E-16 -0.1228725E-15  0.3125000E-02
    1      -19.744219    -19.744187   1.000000   1.000000
    2      -17.777710    -17.777628   1.000000   1.000000
    3      -14.681401    -14.681300   1.000000   1.000000
    4      -13.493705    -13.493532   1.000000   1.000000
    5       -9.525822     -9.525765   1.000000   1.000000
    6       -6.630640     -6.630601   1.000000   1.000000
    7       -6.043397     -6.043255   1.000000   1.000000
    8       -5.371858     -5.371784   1.000000   1.000000
    9       -2.546877     -2.546954   1.000000   1.000000
   10       -2.365305     -2.365366   1.000000   1.000000
   11       -1.702344     -1.702351   1.000000   1.000000
   12       -0.470126     -0.470141   1.000000   1.000000
   13       -0.137740     -0.137731   1.000000   1.000000
   14        0.247573      0.247564   1.000000   1.000000
   15        1.184397      1.184421   1.000000   1.000000
   16        1.546346      1.546370   1.000000   1.000000
   17        7.656598      7.656359   0.000000   0.000000
   18        8.140245      8.140193   0.000000   0.000000
   19        9.281319      9.281138   0.000000   0.000000
   20       10.104404     10.104049   0.000000   0.000000
   21       10.407474     10.407164   0.000000   0.000000
   22       11.385955     11.383781   0.000000   0.000000
 
 -0.4840573E-17  0.1250000E+00  0.3173191E-16  0.3125000E-02
    1      -19.851463    -19.851433   1.000000   1.000000
    2      -17.846317    -17.846236   1.000000   1.000000
    3      -14.155849    -14.155694   1.000000   1.000000
    4      -12.595349    -12.595145   1.000000   1.000000
    5      -11.364960    -11.364958   1.000000   1.000000
    6       -6.872189     -6.872167   1.000000   1.000000
    7       -5.766393     -5.766345   1.000000   1.000000
    8       -5.514177     -5.514107   1.000000   1.000000
    9       -2.653394     -2.653471   1.000000   1.000000
   10       -1.940989     -1.941019   1.000000   1.000000
   11       -0.982985     -0.982980   1.000000   1.000000
   12       -0.838338     -0.838283   1.000000   1.000000
   13        0.271135      0.271141   1.000000   1.000000
   14        0.387326      0.387350   1.000000   1.000000
   15        1.043737      1.043780   1.000000   1.000000
   16        1.852062      1.852053   1.000000   1.000000
   17        7.330992      7.330852  -0.000000  -0.000001
   18        7.559587      7.559295   0.000000   0.000000
   19        8.743873      8.743676   0.000000   0.000000
   20        9.958246      9.957836   0.000000   0.000000
   21       10.376646     10.376397   0.000000   0.000000
   22       11.607911     11.607829   0.000000   0.000000
 
  0.1250000E+00  0.1250000E+00 -0.1980291E-16  0.3125000E-02
    1      -19.809784    -19.809754   1.000000   1.000000
    2      -17.857892    -17.857812   1.000000   1.000000
    3      -14.347249    -14.347111   1.000000   1.000000
    4      -12.845977    -12.845796   1.000000   1.000000
    5      -10.814025    -10.813986   1.000000   1.000000
    6       -6.845538     -6.845512   1.000000   1.000000
    7       -5.785915     -5.785856   1.000000   1.000000
    8       -5.494935     -5.494861   1.000000   1.000000
    9       -2.595331     -2.595405   1.000000   1.000000
   10       -2.029761     -2.029794   1.000000   1.000000
   11       -1.169350     -1.169321   1.000000   1.000000
   12       -0.854869     -0.854869   1.000000   1.000000
   13        0.206659      0.206676   1.000000   1.000000
   14        0.379759      0.379767   1.000000   1.000000
   15        0.947583      0.947619   1.000000   1.000000
   16        1.871608      1.871610   1.000000   1.000000
   17        7.559473      7.559344  -0.000000  -0.000001
   18        7.736238      7.735990   0.000000   0.000000
   19        8.707618      8.707367   0.000000   0.000000
   20       10.109447     10.109123   0.000000   0.000000
   21       10.350382     10.350058   0.000000   0.000000
   22       11.375891     11.375693   0.000000   0.000000
 
  0.2500000E+00  0.1250000E+00 -0.1582657E-16  0.3125000E-02
    1      -19.744367    -19.744335   1.000000   1.000000
    2      -17.875798    -17.875719   1.000000   1.000000
    3      -14.553037    -14.552918   1.000000   1.000000
    4      -13.166337    -13.166164   1.000000   1.000000
    5      -10.082065    -10.082008   1.000000   1.000000
    6       -6.842457     -6.842420   1.000000   1.000000
    7       -5.845325     -5.845239   1.000000   1.000000
    8       -5.408390     -5.408312   1.000000   1.000000
    9       -2.525093     -2.525161   1.000000   1.000000
   10       -2.214916     -2.214959   1.000000   1.000000
   11       -1.502752     -1.502753   1.000000   1.000000
   12       -0.760706     -0.760720   1.000000   1.000000
   13        0.158518      0.158532   1.000000   1.000000
   14        0.310378      0.310383   1.000000   1.000000
   15        0.888404      0.888428   1.000000   1.000000
   16        1.838695      1.838711   1.000000   1.000000
   17        7.699282      7.699104   0.000000   0.000000
   18        8.014342      8.014208   0.000000   0.000000
   19        8.935755      8.935477   0.000000   0.000000
   20       10.009190     10.008866   0.000000   0.000000
   21       10.444651     10.444397   0.000000   0.000000
   22       11.318194     11.311578   0.000000   0.000000
 
  0.3750000E+00  0.1250000E+00 -0.9511696E-16  0.6250000E-02
    1      -19.692924    -19.692891   1.000000   1.000000
    2      -17.889645    -17.889567   1.000000   1.000000
    3      -14.667395    -14.667287   1.000000   1.000000
    4      -13.391705    -13.391533   1.000000   1.000000
    5       -9.535000     -9.534942   1.000000   1.000000
    6       -6.890767     -6.890713   1.000000   1.000000
    7       -5.891256     -5.891147   1.000000   1.000000
    8       -5.318617     -5.318534   1.000000   1.000000
    9       -2.551693     -2.551764   1.000000   1.000000
   10       -2.365664     -2.365723   1.000000   1.000000
   11       -1.690243     -1.690259   1.000000   1.000000
   12       -0.575530     -0.575544   1.000000   1.000000
   13       -0.002030     -0.002016   1.000000   1.000000
   14        0.235971      0.235961   1.000000   1.000000
   15        1.010682      1.010704   1.000000   1.000000
   16        1.697434      1.697459   1.000000   1.000000
   17        7.756240      7.756022   0.000000   0.000000
   18        8.158219      8.158148   0.000000   0.000000
   19        9.181371      9.181149   0.000000   0.000000
   20       10.058806     10.058470   0.000000   0.000000
   21       10.506909     10.506737   0.000000   0.000000
   22       11.430254     11.427149   0.000000   0.000000
 
  0.5000000E+00  0.1250000E+00 -0.9114063E-16  0.6250000E-02
    1      -19.689272    -19.689239   1.000000   1.000000
    2      -17.889862    -17.889784   1.000000   1.000000
    3      -14.599923    -14.599818   1.000000   1.000000
    4      -13.528805    -13.528634   1.000000   1.000000
    5       -9.427921     -9.427862   1.000000   1.000000
    6       -6.921614     -6.921557   1.000000   1.000000
    7       -5.894348     -5.894236   1.000000   1.000000
    8       -5.287203     -5.287119   1.000000   1.000000
    9       -2.547193     -2.547264   1.000000   1.000000
   10       -2.411758     -2.411820   1.000000   1.000000
   11       -1.729540     -1.729556   1.000000   1.000000
   12       -0.525730     -0.525742   1.000000   1.000000
   13       -0.034510     -0.034500   1.000000   1.000000
   14        0.260123      0.260116   1.000000   1.000000
   15        1.197277      1.197298   1.000000   1.000000
   16        1.525292      1.525317   1.000000   1.000000
   17        7.624342      7.624126   0.000000   0.000000
   18        8.154155      8.154073   0.000000   0.000000
   19        9.207531      9.207317   0.000000   0.000000
   20       10.385030     10.384727   0.000000   0.000000
   21       10.465421     10.465224   0.000000   0.000000
   22       11.347775     11.346110   0.000000   0.000000
 
 -0.3750000E+00  0.1250000E+00  0.1980291E-16  0.3125000E-02
    1      -19.735835    -19.735803   1.000000   1.000000
    2      -17.876322    -17.876243   1.000000   1.000000
    3      -14.342829    -14.342714   1.000000   1.000000
    4      -13.577093    -13.576928   1.000000   1.000000
    5       -9.812373     -9.812310   1.000000   1.000000
    6       -6.896080     -6.896040   1.000000   1.000000
    7       -5.856754     -5.856658   1.000000   1.000000
    8       -5.332250     -5.332168   1.000000   1.000000
    9       -2.542178     -2.542246   1.000000   1.000000
   10       -2.248579     -2.248623   1.000000   1.000000
   11       -1.649837     -1.649846   1.000000   1.000000
   12       -0.696038     -0.696050   1.000000   1.000000
   13        0.158899      0.158905   1.000000   1.000000
   14        0.342865      0.342877   1.000000   1.000000
   15        1.179167      1.179197   1.000000   1.000000
   16        1.604200      1.604214   1.000000   1.000000
   17        7.430944      7.430743   0.000000   0.000000
   18        7.962733      7.962613   0.000000   0.000000
   19        9.167362      9.167091   0.000000   0.000000
   20        9.958253      9.957992   0.000000   0.000000
   21       10.723757     10.722286   0.000000   0.000000
   22       11.520824     11.498579   0.000000   0.000000
 
 -0.2500000E+00  0.1250000E+00  0.2918110E-16  0.3125000E-02
    1      -19.801650    -19.801619   1.000000   1.000000
    2      -17.858386    -17.858306   1.000000   1.000000
    3      -14.072026    -14.071879   1.000000   1.000000
    4      -13.418205    -13.418057   1.000000   1.000000
    5      -10.465697    -10.465638   1.000000   1.000000
    6       -6.883921     -6.883894   1.000000   1.000000
    7       -5.794080     -5.794009   1.000000   1.000000
    8       -5.424770     -5.424694   1.000000   1.000000
    9       -2.629698     -2.629773   1.000000   1.000000
   10       -1.981262     -1.981283   1.000000   1.000000
   11       -1.380567     -1.380550   1.000000   1.000000
   12       -0.837008     -0.837020   1.000000   1.000000
   13        0.258413      0.258423   1.000000   1.000000
   14        0.416287      0.416307   1.000000   1.000000
   15        1.131444      1.131484   1.000000   1.000000
   16        1.752864      1.752867   1.000000   1.000000
   17        7.473183      7.472993   0.000000   0.000000
   18        7.620984      7.620844   0.000000   0.000000
   19        8.674930      8.674598   0.000000   0.000000
   20       10.098765     10.098566   0.000000   0.000000
   21       10.646968     10.646589   0.000000   0.000000
   22       11.371207     11.369677   0.000000   0.000000
 
 -0.1250000E+00  0.1250000E+00 -0.2903110E-16  0.3125000E-02
    1      -19.848208    -19.848178   1.000000   1.000000
    2      -17.846529    -17.846449   1.000000   1.000000
    3      -14.041551    -14.041389   1.000000   1.000000
    4      -12.929906    -12.929744   1.000000   1.000000
    5      -11.126882    -11.126847   1.000000   1.000000
    6       -6.885861     -6.885840   1.000000   1.000000
    7       -5.762242     -5.762190   1.000000   1.000000
    8       -5.492914     -5.492844   1.000000   1.000000
    9       -2.668414     -2.668491   1.000000   1.000000
   10       -1.914994     -1.915019   1.000000   1.000000
   11       -1.009200     -1.009151   1.000000   1.000000
   12       -0.913589     -0.913592   1.000000   1.000000
   13        0.306449      0.306454   1.000000   1.000000
   14        0.403036      0.403067   1.000000   1.000000
   15        1.105499      1.105544   1.000000   1.000000
   16        1.822977      1.822969   1.000000   1.000000
   17        7.335814      7.335668   0.000000   0.000000
   18        7.556913      7.556663   0.000000   0.000000
   19        8.556725      8.556460   0.000000   0.000000
   20       10.134501     10.134186   0.000000   0.000000
   21       10.385608     10.385267   0.000000   0.000000
   22       11.550141     11.549692   0.000000   0.000000
 
 -0.9681145E-17  0.2500000E+00  0.6346382E-16  0.3125000E-02
    1      -19.657135    -19.657102   1.000000   1.000000
    2      -18.122359    -18.122288   1.000000   1.000000
    3      -14.381543    -14.381400   1.000000   1.000000
    4      -12.630350    -12.630150   1.000000   1.000000
    5      -10.799375    -10.799356   1.000000   1.000000
    6       -6.984463     -6.984429   1.000000   1.000000
    7       -5.756556     -5.756502   1.000000   1.000000
    8       -5.357097     -5.357009   1.000000   1.000000
    9       -2.727202     -2.727277   1.000000   1.000000
   10       -1.977931     -1.977962   1.000000   1.000000
   11       -1.153542     -1.153567   1.000000   1.000000
   12       -1.018962     -1.018931   1.000000   1.000000
   13        0.116343      0.116345   1.000000   1.000000
   14        0.487576      0.487592   1.000000   1.000000
   15        0.919045      0.919088   1.000000   1.000000
   16        1.832925      1.832919   1.000000   1.000000
   17        7.770871      7.770771   0.000000   0.000000
   18        7.968276      7.968011   0.000000   0.000000
   19        9.030016      9.029849   0.000000   0.000000
   20        9.889319      9.888934   0.000000   0.000000
   21       10.359093     10.358755   0.000000   0.000000
   22       11.526633     11.526045   0.000000   0.000000
 
  0.1250000E+00  0.2500000E+00 -0.4358215E-16  0.3125000E-02
    1      -19.603537    -19.603503   1.000000   1.000000
    2      -18.149198    -18.149128   1.000000   1.000000
    3      -14.542924    -14.542792   1.000000   1.000000
    4      -12.820666    -12.820479   1.000000   1.000000
    5      -10.292131    -10.292089   1.000000   1.000000
    6       -7.031133     -7.031091   1.000000   1.000000
    7       -5.746516     -5.746448   1.000000   1.000000
    8       -5.329782     -5.329693   1.000000   1.000000
    9       -2.670733     -2.670806   1.000000   1.000000
   10       -2.116141     -2.116180   1.000000   1.000000
   11       -1.321147     -1.321142   1.000000   1.000000
   12       -1.029043     -1.029075   1.000000   1.000000
   13        0.072618      0.072617   1.000000   1.000000
   14        0.485732      0.485748   1.000000   1.000000
   15        0.834290      0.834328   1.000000   1.000000
   16        1.868496      1.868505   1.000000   1.000000
   17        7.841145      7.841029   0.000000   0.000000
   18        8.142274      8.142043   0.000000   0.000000
   19        9.199570      9.199377   0.000000   0.000000
   20       10.010632     10.010394   0.000000   0.000000
   21       10.376907     10.376516   0.000000   0.000000
   22       11.238324     11.237736   0.000000   0.000000
 
  0.2500000E+00  0.2500000E+00 -0.3960581E-16  0.6250000E-02
    1      -19.540914    -19.540878   1.000000   1.000000
    2      -18.178501    -18.178433   1.000000   1.000000
    3      -14.639303    -14.639182   1.000000   1.000000
    4      -13.127699    -13.127524   1.000000   1.000000
    5       -9.627888     -9.627831   1.000000   1.000000
    6       -7.202906     -7.202852   1.000000   1.000000
    7       -5.719168     -5.719081   1.000000   1.000000
    8       -5.252424     -5.252333   1.000000   1.000000
    9       -2.678448     -2.678522   1.000000   1.000000
   10       -2.257398     -2.257444   1.000000   1.000000
   11       -1.592834     -1.592854   1.000000   1.000000
   12       -0.848145     -0.848176   1.000000   1.000000
   13        0.122605      0.122611   1.000000   1.000000
   14        0.316583      0.316586   1.000000   1.000000
   15        0.817119      0.817145   1.000000   1.000000
   16        1.860094      1.860120   1.000000   1.000000
   17        7.843934      7.843778   0.000000   0.000000
   18        8.367681      8.367531   0.000000   0.000000
   19        9.204157      9.203936   0.000000   0.000000
   20       10.120506     10.120292   0.000000   0.000000
   21       10.362773     10.362471   0.000000   0.000000
   22       11.466952     11.459254   0.000000   0.000000
 
  0.3750000E+00  0.2500000E+00 -0.9114063E-16  0.3125000E-02
    1      -19.507991    -19.507954   1.000000   1.000000
    2      -18.191649    -18.191581   1.000000   1.000000
    3      -14.606307    -14.606191   1.000000   1.000000
    4      -13.402820    -13.402651   1.000000   1.000000
    5       -9.143925     -9.143866   1.000000   1.000000
    6       -7.427560     -7.427495   1.000000   1.000000
    7       -5.678997     -5.678898   1.000000   1.000000
    8       -5.178038     -5.177944   1.000000   1.000000
    9       -2.695469     -2.695541   1.000000   1.000000
   10       -2.354379     -2.354426   1.000000   1.000000
   11       -1.763901     -1.763941   1.000000   1.000000
   12       -0.673893     -0.673914   1.000000   1.000000
   13        0.048655      0.048665   1.000000   1.000000
   14        0.291464      0.291459   1.000000   1.000000
   15        0.961208      0.961223   1.000000   1.000000
   16        1.726019      1.726054   1.000000   1.000000
   17        7.890797      7.890615   0.000000   0.000000
   18        8.257078      8.256978   0.000000   0.000000
   19        9.154051      9.153816   0.000000   0.000000
   20       10.126396     10.126192   0.000000   0.000000
   21       10.813828     10.813467   0.000000   0.000000
   22       11.599570     11.599975   0.000000   0.000000
 
  0.5000000E+00  0.2500000E+00 -0.3165314E-16  0.6250000E-02
    1      -19.527551    -19.527515   1.000000   1.000000
    2      -18.178470    -18.178402   1.000000   1.000000
    3      -14.402727    -14.402610   1.000000   1.000000
    4      -13.617562    -13.617396   1.000000   1.000000
    5       -9.174394     -9.174333   1.000000   1.000000
    6       -7.447951     -7.447893   1.000000   1.000000
    7       -5.643743     -5.643643   1.000000   1.000000
    8       -5.156827     -5.156730   1.000000   1.000000
    9       -2.581998     -2.582047   1.000000   1.000000
   10       -2.459674     -2.459740   1.000000   1.000000
   11       -1.785961     -1.786003   1.000000   1.000000
   12       -0.749052     -0.749071   1.000000   1.000000
   13        0.100811      0.100812   1.000000   1.000000
   14        0.395045      0.395057   1.000000   1.000000
   15        1.205893      1.205906   1.000000   1.000000
   16        1.538745      1.538781   1.000000   1.000000
   17        7.602019      7.601845   0.000000   0.000000
   18        8.267366      8.267243   0.000000   0.000000
   19        9.116032      9.115797   0.000000   0.000000
   20       10.451976     10.451788   0.000000   0.000000
   21       10.902474     10.901541   0.000000   0.000000
   22       11.477015     11.473210   0.000000   0.000000
 
 -0.3750000E+00  0.2500000E+00  0.3765703E-16  0.3125000E-02
    1      -19.585562    -19.585526   1.000000   1.000000
    2      -18.148827    -18.148757   1.000000   1.000000
    3      -14.081564    -14.081432   1.000000   1.000000
    4      -13.726768    -13.726611   1.000000   1.000000
    5       -9.662142     -9.662080   1.000000   1.000000
    6       -7.280844     -7.280802   1.000000   1.000000
    7       -5.633589     -5.633502   1.000000   1.000000
    8       -5.204886     -5.204787   1.000000   1.000000
    9       -2.697843     -2.697914   1.000000   1.000000
   10       -2.156755     -2.156781   1.000000   1.000000
   11       -1.696232     -1.696266   1.000000   1.000000
   12       -0.905283     -0.905303   1.000000   1.000000
   13        0.146397      0.146391   1.000000   1.000000
   14        0.523869      0.523894   1.000000   1.000000
   15        1.223110      1.223143   1.000000   1.000000
   16        1.613962      1.613981   1.000000   1.000000
   17        7.429661      7.429491   0.000000   0.000000
   18        8.053721      8.053573   0.000000   0.000000
   19        9.241545      9.241276   0.000000   0.000000
   20       10.222780     10.222433   0.000000   0.000000
   21       10.867793     10.868363   0.000000   0.000000
   22       11.511359     11.513366   0.000000   0.000000
 
 -0.2500000E+00  0.2500000E+00  0.3112641E-16  0.3125000E-02
    1      -19.644950    -19.644916   1.000000   1.000000
    2      -18.121939    -18.121868   1.000000   1.000000
    3      -14.059187    -14.059032   1.000000   1.000000
    4      -13.383463    -13.383315   1.000000   1.000000
    5      -10.270945    -10.270890   1.000000   1.000000
    6       -7.129745     -7.129713   1.000000   1.000000
    7       -5.662958     -5.662892   1.000000   1.000000
    8       -5.284796     -5.284700   1.000000   1.000000
    9       -2.780909     -2.780988   1.000000   1.000000
   10       -1.918036     -1.918051   1.000000   1.000000
   11       -1.427563     -1.427568   1.000000   1.000000
   12       -1.009147     -1.009166   1.000000   1.000000
   13        0.186808      0.186809   1.000000   1.000000
   14        0.519399      0.519421   1.000000   1.000000
   15        1.112668      1.112708   1.000000   1.000000
   16        1.764491      1.764498   1.000000   1.000000
   17        7.566203      7.566038   0.000000   0.000000
   18        7.813352      7.813207   0.000000   0.000000
   19        8.997180      8.996864   0.000000   0.000000
   20       10.174776     10.174576   0.000000   0.000000
   21       10.540142     10.539868   0.000000   0.000000
   22       11.574573     11.577386   0.000000   0.000000
 
 -0.1250000E+00  0.2500000E+00  0.4560970E-16  0.3125000E-02
    1      -19.673466    -19.673433   1.000000   1.000000
    2      -18.111718    -18.111647   1.000000   1.000000
    3      -14.208804    -14.208652   1.000000   1.000000
    4      -12.864176    -12.863998   1.000000   1.000000
    5      -10.758989    -10.758956   1.000000   1.000000
    6       -7.029127     -7.029097   1.000000   1.000000
    7       -5.723530     -5.723477   1.000000   1.000000
    8       -5.338138     -5.338048   1.000000   1.000000
    9       -2.780319     -2.780398   1.000000   1.000000
   10       -1.903151     -1.903176   1.000000   1.000000
   11       -1.178207     -1.178218   1.000000   1.000000
   12       -1.007636     -1.007617   1.000000   1.000000
   13        0.230398      0.230412   1.000000   1.000000
   14        0.446752      0.446763   1.000000   1.000000
   15        0.988768      0.988807   1.000000   1.000000
   16        1.817857      1.817854   1.000000   1.000000
   17        7.699919      7.699788   0.000000   0.000000
   18        7.827848      7.827648   0.000000   0.000000
   19        8.882131      8.881875   0.000000   0.000000
   20        9.947249      9.946910   0.000000   0.000000
   21       10.427501     10.427083   0.000000   0.000000
   22       11.676519     11.676694   0.000000   0.000000
 
 -0.7582824E-17  0.3750000E+00  0.6744016E-16  0.3125000E-02
    1      -19.355634    -19.355595   1.000000   1.000000
    2      -18.505706    -18.505646   1.000000   1.000000
    3      -14.550324    -14.550187   1.000000   1.000000
    4      -12.666481    -12.666284   1.000000   1.000000
    5      -10.229386    -10.229358   1.000000   1.000000
    6       -7.165743     -7.165689   1.000000   1.000000
    7       -5.638175     -5.638104   1.000000   1.000000
    8       -5.293314     -5.293223   1.000000   1.000000
    9       -2.818456     -2.818533   1.000000   1.000000
   10       -2.005397     -2.005419   1.000000   1.000000
   11       -1.356545     -1.356590   1.000000   1.000000
   12       -1.210837     -1.210860   1.000000   1.000000
   13       -0.029456     -0.029467   1.000000   1.000000
   14        0.631295      0.631318   1.000000   1.000000
   15        0.842323      0.842373   1.000000   1.000000
   16        1.808718      1.808719   1.000000   1.000000
   17        8.072274      8.072206   0.000000   0.000000
   18        8.454456      8.454202   0.000000   0.000000
   19        9.429368      9.429216   0.000000   0.000000
   20        9.835689      9.835476   0.000000   0.000000
   21       10.582506     10.581821   0.000000   0.000000
   22       11.136609     11.135889   0.000000   0.000000
 
  0.1250000E+00  0.3750000E+00 -0.1185024E-16  0.6250000E-02
    1      -19.298661    -19.298620   1.000000   1.000000
    2      -18.546889    -18.546831   1.000000   1.000000
    3      -14.617236    -14.617104   1.000000   1.000000
    4      -12.825204    -12.825018   1.000000   1.000000