       N       E                     dE             d eps       ncg     rms          rms(c)
DAV:   1     0.438087947577E+00    0.43809E+00   -0.69578E+02  2034   0.344E+02
DAV:   2    -0.153325198419E+01   -0.19713E+01   -0.19056E+01  2946   0.472E+01
DAV:   3    -0.160016768233E+01   -0.66916E-01   -0.66858E-01  2400   0.596E+00
DAV:   4    -0.160157336186E+01   -0.14057E-02   -0.14051E-02  2988   0.829E-01
DAV:   5    -0.160158199599E+01   -0.86341E-05   -0.86592E-05  2670   0.506E-02    0.545E+00
RMM:   6    -0.182799929817E+01   -0.22642E+00   -0.63011E-02  2365   0.238E+00    0.260E+00
RMM:   7    -0.190173120398E+01   -0.73732E-01   -0.20607E-02  2229   0.151E+00    0.166E-01
RMM:   8    -0.190319495599E+01   -0.14638E-02   -0.89244E-03  2512   0.853E-01    0.889E-02
RMM:   9    -0.190342130329E+01   -0.22635E-03   -0.23177E-03  2869   0.451E-01    0.327E-02
RMM:  10    -0.190378327731E+01   -0.36197E-03   -0.13578E-03  2695   0.350E-01    0.271E-02
RMM:  11    -0.190383255271E+01   -0.49275E-04   -0.28517E-04  2933   0.142E-01    0.215E-02
RMM:  12    -0.190385155747E+01   -0.19005E-04   -0.12775E-04  2779   0.102E-01    0.715E-03
RMM:  13    -0.190386104047E+01   -0.94830E-05   -0.34550E-05  2443   0.568E-02
   1 F= -.19038610E+01 E0= -.19038610E+01  d E =0.000000E+00  mag=    -0.0001
