       N       E                     dE             d eps       ncg     rms          rms(c)
DAV:   1     0.549299860322E+03    0.54930E+03   -0.43881E+04 41288   0.144E+03
DAV:   2    -0.721895660590E+02   -0.62149E+03   -0.60478E+03 51388   0.343E+02
DAV:   3    -0.107426598732E+03   -0.35237E+02   -0.35014E+02 49688   0.877E+01
DAV:   4    -0.107936251395E+03   -0.50965E+00   -0.50788E+00 50496   0.112E+01
DAV:   5    -0.107947226418E+03   -0.10975E-01   -0.10961E-01 49608   0.158E+00    0.489E+01
DAV:   6    -0.920335090598E+02    0.15914E+02   -0.54090E+01 45992   0.352E+01    0.259E+01
DAV:   7    -0.947720278693E+02   -0.27385E+01   -0.80529E+00 47916   0.119E+01    0.724E+00
DAV:   8    -0.950009840218E+02   -0.22896E+00   -0.77613E-01 49256   0.425E+00    0.329E+00
DAV:   9    -0.949995000043E+02    0.14840E-02   -0.46841E-02 48864   0.145E+00    0.166E+00
DAV:  10    -0.949992656249E+02    0.23438E-03   -0.20359E-02 55380   0.938E-01    0.480E-01
DAV:  11    -0.950008531678E+02   -0.15875E-02   -0.41696E-03 47928   0.364E-01    0.252E-01
DAV:  12    -0.950011007624E+02   -0.24759E-03   -0.10870E-03 50020   0.187E-01    0.111E-01
DAV:  13    -0.950011666858E+02   -0.65923E-04   -0.94628E-05 48964   0.612E-02    0.495E-02
DAV:  14    -0.950011935520E+02   -0.26866E-04   -0.45525E-05 46576   0.376E-02    0.170E-02
DAV:  15    -0.950012004212E+02   -0.68692E-05   -0.61675E-06 28924   0.157E-02
   1 F= -.95001200E+02 E0= -.95001200E+02  d E =0.000000E+00  mag=    -0.0008
