 running on    8 total cores
 distrk:  each k-point on    8 cores,    1 groups
 distr:  one band on    1 cores,    8 groups
 using from now: INCAR     
 vasp.6.1.2 22Jul20 (build Mar 20 2021 11:25:07) complex                        
  
 POSCAR found type information on POSCAR LiP O 
 POSCAR found :  3 types and      16 ions
 scaLAPACK will be used
 -----------------------------------------------------------------------------
|                                                                             |
|           W    W    AA    RRRRR   N    N  II  N    N   GGGG   !!!           |
|           W    W   A  A   R    R  NN   N  II  NN   N  G    G  !!!           |
|           W    W  A    A  R    R  N N  N  II  N N  N  G       !!!           |
|           W WW W  AAAAAA  RRRRR   N  N N  II  N  N N  G  GGG   !            |
|           WW  WW  A    A  R   R   N   NN  II  N   NN  G    G                |
|           W    W  A    A  R    R  N    N  II  N    N   GGGG   !!!           |
|                                                                             |
|     The value NCORE = 6 specified in the INCAR file was overwritten,        |
|     because it was not compatible with the 8 processes available:           |
|     NCORE = 1                                                               |
|     was used instead, please check that this makes sense for your           |
|     machine.                                                                |
|                                                                             |
 -----------------------------------------------------------------------------

 -----------------------------------------------------------------------------
|                                                                             |
|           W    W    AA    RRRRR   N    N  II  N    N   GGGG   !!!           |
|           W    W   A  A   R    R  NN   N  II  NN   N  G    G  !!!           |
|           W    W  A    A  R    R  N N  N  II  N N  N  G       !!!           |
|           W WW W  AAAAAA  RRRRR   N  N N  II  N  N N  G  GGG   !            |
|           WW  WW  A    A  R   R   N   NN  II  N   NN  G    G                |
|           W    W  A    A  R    R  N    N  II  N    N   GGGG   !!!           |
|                                                                             |
|     For optimal performance we recommend to set                             |
|       NCORE = 4 - approx SQRT(number of cores).                             |
|     NCORE specifies how many cores store one orbital (NPAR=cpu/NCORE).      |
|     This setting can greatly improve the performance of VASP for DFT.       |
|     The default, NCORE=1 might be grossly inefficient on modern             |
|     multi-core architectures or massively parallel machines. Do your        |
|     own testing!!!!                                                         |
|     Unfortunately you need to use the default for GW and RPA                |
|     calculations (for HF NCORE is supported but not extensively tested      |
|     yet).                                                                   |
|                                                                             |
 -----------------------------------------------------------------------------

 LDA part: xc-table for Pade appr. of Perdew
 generate k-points for:    7    6    5
 POSCAR, INCAR and KPOINTS ok, starting setup
 FFT: planning ...
 WAVECAR not read
 entering main loop
       N       E                     dE             d eps       ncg     rms          rms(c)
DAV:   1     0.602740340636E+03    0.60274E+03   -0.36420E+04 14784   0.142E+03
DAV:   2    -0.452221259137E+02   -0.64796E+03   -0.61179E+03 16920   0.373E+02
DAV:   3    -0.103285654435E+03   -0.58064E+02   -0.57727E+02 20512   0.105E+02
DAV:   4    -0.108631868147E+03   -0.53462E+01   -0.53136E+01 25152   0.263E+01
DAV:   5    -0.109105403853E+03   -0.47354E+00   -0.47337E+00 20712   0.544E+00    0.372E+01
RMM:   6    -0.992766478477E+02    0.98288E+01   -0.38151E+01 16155   0.218E+01    0.148E+01
RMM:   7    -0.100329137218E+03   -0.10525E+01   -0.38429E+00 21242   0.751E+00    0.792E+00
RMM:   8    -0.100531559866E+03   -0.20242E+00   -0.86829E-01 23595   0.390E+00    0.398E+00
RMM:   9    -0.100604793653E+03   -0.73234E-01   -0.31546E-01 23868   0.280E+00    0.777E-01
RMM:  10    -0.100632927043E+03   -0.28133E-01   -0.22187E-01 27431   0.160E+00    0.351E-01
RMM:  11    -0.100646876690E+03   -0.13950E-01   -0.97218E-02 28152   0.985E-01    0.278E-01
RMM:  12    -0.100652869894E+03   -0.59932E-02   -0.38694E-02 28637   0.608E-01    0.167E-01
RMM:  13    -0.100654953255E+03   -0.20834E-02   -0.14665E-02 27832   0.407E-01    0.794E-02
RMM:  14    -0.100655884008E+03   -0.93075E-03   -0.75095E-03 28423   0.282E-01    0.301E-02
RMM:  15    -0.100656243213E+03   -0.35920E-03   -0.32280E-03 27853   0.175E-01    0.271E-02
RMM:  16    -0.100656392023E+03   -0.14881E-03   -0.14137E-03 27491   0.115E-01    0.168E-02
RMM:  17    -0.100656460877E+03   -0.68854E-04   -0.58510E-04 26799   0.793E-02    0.125E-02
RMM:  18    -0.100656490049E+03   -0.29173E-04   -0.28126E-04 26046   0.521E-02    0.126E-02
RMM:  19    -0.100656505302E+03   -0.15253E-04   -0.11096E-04 23610   0.368E-02    0.232E-02
RMM:  20    -0.100656504455E+03    0.84739E-06   -0.49254E-05 22646   0.294E-02
   1 F= -.10065650E+03 E0= -.10065650E+03  d E =0.000000E+00  mag=    -0.0001
