    6    6    1    2
  0.1167553E+02  0.4397854E-09  0.4832806E-09  0.4832806E-09  0.5000000E-15
  1.000000000000000E-004
  CAR 
 unknown system                          
     32    362     22
 
  0.0000000E+00  0.0000000E+00  0.0000000E+00  0.1388889E-02
    1      -19.582519    -19.582489   1.000000   1.000000
    2      -17.038672    -17.038623   1.000000   1.000000
    3      -13.675142    -13.675034   1.000000   1.000000
    4      -11.810836    -11.810746   1.000000   1.000000
    5      -10.731032    -10.730968   1.000000   1.000000
    6       -6.319752     -6.319713   1.000000   1.000000
    7       -5.073039     -5.073046   1.000000   1.000000
    8       -4.912152     -4.912167   1.000000   1.000000
    9       -1.913786     -1.913935   1.000000   1.000000
   10       -1.051470     -1.051589   1.000000   1.000000
   11       -0.157672     -0.157771   1.000000   1.000000
   12        0.203220      0.203181   1.000000   1.000000
   13        1.214485      1.214409   1.000000   1.000000
   14        1.334818      1.334877   1.000000   1.000000
   15        2.201245      2.201167   1.000000   1.000000
   16        2.749947      2.749909   1.000000   1.000000
   17        8.710689      8.710527   0.000000   0.000000
   18        9.037076      9.037012   0.000000   0.000000
   19       11.017181     11.017202   0.000000   0.000000
   20       11.687715     11.687596   0.000000   0.000000
   21       12.966307     12.966241   0.000000   0.000000
   22       13.537225     13.536978   0.000000   0.000000
 
  0.1111111E+00  0.9933620E-17 -0.3150964E-16  0.2777778E-02
    1      -19.544913    -19.544883   1.000000   1.000000
    2      -17.043788    -17.043739   1.000000   1.000000
    3      -13.853335    -13.853231   1.000000   1.000000
    4      -11.983294    -11.983209   1.000000   1.000000
    5      -10.362273    -10.362203   1.000000   1.000000
    6       -6.281382     -6.281342   1.000000   1.000000
    7       -5.094017     -5.094012   1.000000   1.000000
    8       -4.853109     -4.853127   1.000000   1.000000
    9       -1.895038     -1.895187   1.000000   1.000000
   10       -1.077436     -1.077551   1.000000   1.000000
   11       -0.147634     -0.147733   1.000000   1.000000
   12        0.103529      0.103478   1.000000   1.000000
   13        1.164924      1.164959   1.000000   1.000000
   14        1.281835      1.281781   1.000000   1.000000
   15        2.165623      2.165542   1.000000   1.000000
   16        2.768925      2.768889   1.000000   1.000000
   17        8.822930      8.822778   0.000000   0.000000
   18        9.226896      9.226837   0.000000   0.000000
   19       10.733919     10.733934   0.000000   0.000000
   20       11.717228     11.717103   0.000000   0.000000
   21       12.975660     12.975588   0.000000   0.000000
   22       13.444472     13.444537   0.000000   0.000000
 
  0.2222222E+00 -0.4597676E-16  0.2824727E-17  0.2777778E-02
    1      -19.444413    -19.444382   1.000000   1.000000
    2      -17.056518    -17.056471   1.000000   1.000000
    3      -14.272549    -14.272453   1.000000   1.000000
    4      -12.191208    -12.191126   1.000000   1.000000
    5       -9.682583     -9.682510   1.000000   1.000000
    6       -6.184070     -6.184025   1.000000   1.000000
    7       -5.156296     -5.156268   1.000000   1.000000
    8       -4.685629     -4.685644   1.000000   1.000000
    9       -1.829043     -1.829189   1.000000   1.000000
   10       -1.166129     -1.166233   1.000000   1.000000
   11       -0.215235     -0.215323   1.000000   1.000000
   12       -0.089177     -0.089268   1.000000   1.000000
   13        0.908807      0.908835   1.000000   1.000000
   14        1.301353      1.301294   1.000000   1.000000
   15        2.104739      2.104646   1.000000   1.000000
   16        2.792176      2.792151   1.000000   1.000000
   17        9.076163      9.076041   0.000000   0.000000
   18        9.694842      9.694828   0.000000   0.000000
   19       10.274883     10.274842   0.000000   0.000000
   20       11.719956     11.719826   0.000000   0.000000
   21       12.904943     12.904783   0.000000   0.000000
   22       13.331379     13.331263   0.000000   0.000000
 
  0.3333333E+00 -0.1046035E-17 -0.7755980E-16  0.2777778E-02
    1      -19.319229    -19.319197   1.000000   1.000000
    2      -17.070415    -17.070368   1.000000   1.000000
    3      -14.706220    -14.706130   1.000000   1.000000
    4      -12.317659    -12.317579   1.000000   1.000000
    5       -9.048604     -9.048538   1.000000   1.000000
    6       -6.082470     -6.082420   1.000000   1.000000
    7       -5.194528     -5.194466   1.000000   1.000000
    8       -4.503355     -4.503365   1.000000   1.000000
    9       -1.715040     -1.715178   1.000000   1.000000
   10       -1.355664     -1.355762   1.000000   1.000000
   11       -0.563888     -0.563996   1.000000   1.000000
   12        0.014485      0.014391   1.000000   1.000000
   13        0.734444      0.734439   1.000000   1.000000
   14        1.103878      1.103814   1.000000   1.000000
   15        2.156390      2.156290   1.000000   1.000000
   16        2.759391      2.759381   1.000000   1.000000
   17        9.312117      9.312036   0.000000   0.000000
   18        9.754854      9.754883   0.000000   0.000000
   19       10.582576     10.582488   0.000000   0.000000
   20       11.601931     11.601777   0.000000   0.000000
   21       12.771750     12.771566   0.000000   0.000000
   22       13.418262     13.418103   0.000000   0.000000
 
  0.4444444E+00 -0.9195352E-16  0.5649453E-17  0.2777778E-02
    1      -19.229776    -19.229743   1.000000   1.000000
    2      -17.078868    -17.078823   1.000000   1.000000
    3      -14.973754    -14.973667   1.000000   1.000000
    4      -12.378159    -12.378081   1.000000   1.000000
    5       -8.662166     -8.662109   1.000000   1.000000
    6       -6.028811     -6.028754   1.000000   1.000000
    7       -5.187640     -5.187547   1.000000   1.000000
    8       -4.392973     -4.392982   1.000000   1.000000
    9       -1.692507     -1.692625   1.000000   1.000000
   10       -1.485572     -1.485694   1.000000   1.000000
   11       -0.750965     -0.751078   1.000000   1.000000
   12        0.229872      0.229795   1.000000   1.000000
   13        0.579239      0.579179   1.000000   1.000000
   14        0.830721      0.830658   1.000000   1.000000
   15        2.268251      2.268142   1.000000   1.000000
   16        2.677006      2.677019   1.000000   1.000000
   17        9.423438      9.423405   0.000000   0.000000
   18        9.712429      9.712410   0.000000   0.000000
   19       10.984641     10.984620   0.000000   0.000000
   20       11.729117     11.728905   0.000000   0.000000
   21       12.475057     12.474928   0.000000   0.000000
   22       13.665409     13.668450   0.000000   0.000000
 
  0.1263633E-16  0.1250000E+00 -0.5110134E-16  0.2777778E-02
    1      -19.517884    -19.517854   1.000000   1.000000
    2      -17.133782    -17.133735   1.000000   1.000000
    3      -13.796312    -13.796207   1.000000   1.000000
    4      -11.841877    -11.841787   1.000000   1.000000
    5      -10.482796    -10.482729   1.000000   1.000000
    6       -6.304245     -6.304203   1.000000   1.000000
    7       -5.092201     -5.092212   1.000000   1.000000
    8       -4.829102     -4.829103   1.000000   1.000000
    9       -1.945147     -1.945295   1.000000   1.000000
   10       -1.060613     -1.060729   1.000000   1.000000
   11       -0.243050     -0.243151   1.000000   1.000000
   12        0.163764      0.163718   1.000000   1.000000
   13        1.178739      1.178756   1.000000   1.000000
   14        1.312721      1.312676   1.000000   1.000000
   15        2.114779      2.114699   1.000000   1.000000
   16        2.744527      2.744489   1.000000   1.000000
   17        8.870037      8.869886   0.000000   0.000000
   18        9.334860      9.334801   0.000000   0.000000
   19       10.992798     10.992793   0.000000   0.000000
   20       11.548378     11.548265   0.000000   0.000000
   21       12.871271     12.871150   0.000000   0.000000
   22       13.781277     13.780161   0.000000   0.000000
 
  0.1111111E+00  0.1250000E+00 -0.9814783E-16  0.2777778E-02
    1      -19.455279    -19.455248   1.000000   1.000000
    2      -17.141117    -17.141071   1.000000   1.000000
    3      -14.116163    -14.116064   1.000000   1.000000
    4      -11.932764    -11.932678   1.000000   1.000000
    5      -10.027502    -10.027431   1.000000   1.000000
    6       -6.228834     -6.228790   1.000000   1.000000
    7       -5.107725     -5.107712   1.000000   1.000000
    8       -4.772824     -4.772831   1.000000   1.000000
    9       -1.908306     -1.908451   1.000000   1.000000
   10       -1.147682     -1.147792   1.000000   1.000000
   11       -0.262848     -0.262950   1.000000   1.000000
   12        0.075183      0.075114   1.000000   1.000000
   13        0.923847      0.923869   1.000000   1.000000
   14        1.345162      1.345104   1.000000   1.000000
   15        2.049359      2.049274   1.000000   1.000000
   16        2.799338      2.799307   1.000000   1.000000
   17        9.089356      9.089219   0.000000   0.000000
   18        9.566746      9.566694   0.000000   0.000000
   19       10.706909     10.706903   0.000000   0.000000
   20       11.618505     11.618381   0.000000   0.000000
   21       13.027359     13.027214   0.000000   0.000000
   22       13.489706     13.489588   0.000000   0.000000
 
  0.2222222E+00  0.1250000E+00 -0.8825091E-16  0.2777778E-02
    1      -19.341459    -19.341426   1.000000   1.000000
    2      -17.162929    -17.162884   1.000000   1.000000
    3      -14.512154    -14.512061   1.000000   1.000000
    4      -12.128638    -12.128556   1.000000   1.000000
    5       -9.353562     -9.353491   1.000000   1.000000
    6       -6.155112     -6.155065   1.000000   1.000000
    7       -5.147389     -5.147344   1.000000   1.000000
    8       -4.601767     -4.601773   1.000000   1.000000
    9       -1.842079     -1.842218   1.000000   1.000000
   10       -1.294863     -1.294966   1.000000   1.000000
   11       -0.433949     -0.434054   1.000000   1.000000
   12       -0.008033     -0.008127   1.000000   1.000000
   13        0.750857      0.750855   1.000000   1.000000
   14        1.274755      1.274708   1.000000   1.000000
   15        2.002011      2.001914   1.000000   1.000000
   16        2.838927      2.838904   1.000000   1.000000
   17        9.378449      9.378347   0.000000   0.000000
   18        9.913341      9.913330   0.000000   0.000000
   19       10.402277     10.402223   0.000000   0.000000
   20       11.686398     11.686267   0.000000   0.000000
   21       12.955334     12.955105   0.000000   0.000000
   22       13.236347     13.236237   0.000000   0.000000
 
  0.3333333E+00  0.1250000E+00 -0.1025646E-15  0.2777778E-02
    1      -19.223070    -19.223036   1.000000   1.000000
    2      -17.193137    -17.193093   1.000000   1.000000
    3      -14.819713    -14.819625   1.000000   1.000000
    4      -12.294770    -12.294692   1.000000   1.000000
    5       -8.777251     -8.777187   1.000000   1.000000
    6       -6.151833     -6.151776   1.000000   1.000000
    7       -5.141971     -5.141897   1.000000   1.000000
    8       -4.422803     -4.422806   1.000000   1.000000
    9       -1.802883     -1.803007   1.000000   1.000000
   10       -1.446816     -1.446928   1.000000   1.000000
   11       -0.701922     -0.702035   1.000000   1.000000
   12        0.154865      0.154770   1.000000   1.000000
   13        0.705009      0.704976   1.000000   1.000000
   14        0.958453      0.958399   1.000000   1.000000
   15        2.084871      2.084777   1.000000   1.000000
   16        2.798064      2.798051   1.000000   1.000000
   17        9.560399      9.560340   0.000000   0.000000
   18        9.846276      9.846270   0.000000   0.000000
   19       10.707203     10.707148   0.000000   0.000000
   20       11.625967     11.625804   0.000000   0.000000
   21       12.875067     12.874885   0.000000   0.000000
   22       13.318316     13.318371   0.000000   0.000000
 
  0.4444444E+00  0.1250000E+00 -0.1237414E-15  0.2777778E-02
    1      -19.162486    -19.162451   1.000000   1.000000
    2      -17.218733    -17.218688   1.000000   1.000000
    3      -14.917102    -14.917017   1.000000   1.000000
    4      -12.409170    -12.409093   1.000000   1.000000
    5       -8.499979     -8.499922   1.000000   1.000000
    6       -6.222320     -6.222254   1.000000   1.000000
    7       -5.096778     -5.096694   1.000000   1.000000
    8       -4.318989     -4.318990   1.000000   1.000000
    9       -1.800519     -1.800637   1.000000   1.000000
   10       -1.502087     -1.502205   1.000000   1.000000
   11       -0.827565     -0.827679   1.000000   1.000000
   12        0.460665      0.460590   1.000000   1.000000
   13        0.544469      0.544385   1.000000   1.000000
   14        0.762434      0.762390   1.000000   1.000000
   15        2.215128      2.215029   1.000000   1.000000
   16        2.681946      2.681948   1.000000   1.000000
   17        9.507696      9.507664   0.000000   0.000000
   18        9.744789      9.744759   0.000000   0.000000
   19       10.856244     10.856192   0.000000   0.000000
   20       11.981254     11.981077   0.000000   0.000000
   21       12.615860     12.615699   0.000000   0.000000
   22       13.575548     13.575204   0.000000   0.000000
 
 -0.4444444E+00  0.1250000E+00  0.7041363E-16  0.2777778E-02
    1      -19.198450    -19.198416   1.000000   1.000000
    2      -17.221874    -17.221828   1.000000   1.000000
    3      -14.758991    -14.758904   1.000000   1.000000
    4      -12.465474    -12.465398   1.000000   1.000000
    5       -8.640645     -8.640584   1.000000   1.000000
    6       -6.285798     -6.285740   1.000000   1.000000
    7       -5.071799     -5.071727   1.000000   1.000000
    8       -4.328443     -4.328443   1.000000   1.000000
    9       -1.700602     -1.700735   1.000000   1.000000
   10       -1.522994     -1.523094   1.000000   1.000000
   11       -0.778008     -0.778117   1.000000   1.000000
   12        0.183932      0.183840   1.000000   1.000000
   13        0.721586      0.721550   1.000000   1.000000
   14        0.992949      0.992887   1.000000   1.000000
   15        2.266566      2.266456   1.000000   1.000000
   16        2.623787      2.623795   1.000000   1.000000
   17        9.302485      9.302433   0.000000   0.000000
   18        9.684065      9.684054   0.000000   0.000000
   19       10.838133     10.838052   0.000000   0.000000
   20       12.082493     12.082321   0.000000   0.000000
   21       12.580474     12.580275   0.000000   0.000000
   22       13.584350     13.582062   0.000000   0.000000
 
 -0.3333333E+00  0.1250000E+00  0.2479940E-16  0.2777778E-02
    1      -19.307700    -19.307667   1.000000   1.000000
    2      -17.200277    -17.200230   1.000000   1.000000
    3      -14.395146    -14.395054   1.000000   1.000000
    4      -12.456684    -12.456606   1.000000   1.000000
    5       -9.124284     -9.124214   1.000000   1.000000
    6       -6.316444     -6.316398   1.000000   1.000000
    7       -5.073055     -5.073010   1.000000   1.000000
    8       -4.451847     -4.451849   1.000000   1.000000
    9       -1.833409     -1.833553   1.000000   1.000000
   10       -1.207866     -1.207958   1.000000   1.000000
   11       -0.592666     -0.592760   1.000000   1.000000
   12       -0.036691     -0.036793   1.000000   1.000000
   13        0.845202      0.845199   1.000000   1.000000
   14        1.310719      1.310665   1.000000   1.000000
   15        2.188695      2.188600   1.000000   1.000000
   16        2.690549      2.690530   1.000000   1.000000
   17        9.167177      9.167077   0.000000   0.000000
   18        9.643620      9.643656   0.000000   0.000000
   19       10.567312     10.567205   0.000000   0.000000
   20       11.806760     11.806605   0.000000   0.000000
   21       12.879049     12.879027   0.000000   0.000000
   22       13.376089     13.375434   0.000000   0.000000
 
 -0.2222222E+00  0.1250000E+00 -0.2586786E-16  0.2777778E-02
    1      -19.428671    -19.428640   1.000000   1.000000
    2      -17.168920    -17.168873   1.000000   1.000000
    3      -13.969939    -13.969839   1.000000   1.000000
    4      -12.351029    -12.350950   1.000000   1.000000
    5       -9.753580     -9.753508   1.000000   1.000000
    6       -6.338824     -6.338784   1.000000   1.000000
    7       -5.071937     -5.071920   1.000000   1.000000
    8       -4.635382     -4.635386   1.000000   1.000000
    9       -1.926171     -1.926320   1.000000   1.000000
   10       -1.041785     -1.041891   1.000000   1.000000
   11       -0.285904     -0.285975   1.000000   1.000000
   12       -0.109251     -0.109348   1.000000   1.000000
   13        1.036152      1.036177   1.000000   1.000000
   14        1.397670      1.397613   1.000000   1.000000
   15        2.155144      2.155062   1.000000   1.000000
   16        2.730589      2.730552   1.000000   1.000000
   17        8.997156      8.997019   0.000000   0.000000
   18        9.614436      9.614440   0.000000   0.000000
   19       10.417987     10.417937   0.000000   0.000000
   20       11.746323     11.746169   0.000000   0.000000
   21       12.704270     12.704210   0.000000   0.000000
   22       13.551006     13.550836   0.000000   0.000000
 
 -0.1111111E+00  0.1250000E+00 -0.5868851E-16  0.2777778E-02
    1      -19.507997    -19.507966   1.000000   1.000000
    2      -17.143689    -17.143641   1.000000   1.000000
    3      -13.720155    -13.720048   1.000000   1.000000
    4      -12.086951    -12.086868   1.000000   1.000000
    5      -10.315693    -10.315624   1.000000   1.000000
    6       -6.341995     -6.341955   1.000000   1.000000
    7       -5.079175     -5.079182   1.000000   1.000000
    8       -4.778511     -4.778513   1.000000   1.000000
    9       -1.953772     -1.953921   1.000000   1.000000
   10       -1.022152     -1.022267   1.000000   1.000000
   11       -0.231661     -0.231758   1.000000   1.000000
   12        0.072116      0.072066   1.000000   1.000000
   13        1.232021      1.232044   1.000000   1.000000
   14        1.330490      1.330444   1.000000   1.000000
   15        2.145930      2.145851   1.000000   1.000000
   16        2.728496      2.728455   1.000000   1.000000
   17        8.853114      8.852963   0.000000   0.000000
   18        9.368784      9.368734   0.000000   0.000000
   19       10.808204     10.808205   0.000000   0.000000
   20       11.647631     11.647514   0.000000   0.000000
   21       12.648069     12.648017   0.000000   0.000000
   22       13.798146     13.834384   0.000000   0.000000
 
  0.2527265E-16  0.2500000E+00 -0.1022027E-15  0.2777778E-02
    1      -19.336359    -19.336325   1.000000   1.000000
    2      -17.391961    -17.391919   1.000000   1.000000
    3      -14.030406    -14.030306   1.000000   1.000000
    4      -11.899091    -11.899004   1.000000   1.000000
    5       -9.940564     -9.940496   1.000000   1.000000
    6       -6.267227     -6.267176   1.000000   1.000000
    7       -5.067842     -5.067844   1.000000   1.000000
    8       -4.698250     -4.698233   1.000000   1.000000
    9       -2.029150     -2.029292   1.000000   1.000000
   10       -1.108864     -1.108967   1.000000   1.000000
   11       -0.406879     -0.407000   1.000000   1.000000
   12       -0.018181     -0.018246   1.000000   1.000000
   13        0.911070      0.911077   1.000000   1.000000
   14        1.466075      1.466014   1.000000   1.000000
   15        2.005425      2.005347   1.000000   1.000000
   16        2.725011      2.724976   1.000000   1.000000
   17        9.248473      9.248341   0.000000   0.000000
   18        9.932977      9.932937   0.000000   0.000000
   19       10.988613     10.988553   0.000000   0.000000
   20       11.533932     11.533812   0.000000   0.000000
   21       12.761061     12.760852   0.000000   0.000000
   22       13.733088     13.731060   0.000000   0.000000
 
  0.1111111E+00  0.2500000E+00 -0.1720275E-15  0.2777778E-02
    1      -19.258395    -19.258360   1.000000   1.000000
    2      -17.419675    -17.419634   1.000000   1.000000
    3      -14.307372    -14.307276   1.000000   1.000000
    4      -11.968625    -11.968541   1.000000   1.000000
    5       -9.515865     -9.515795   1.000000   1.000000
    6       -6.223469     -6.223418   1.000000   1.000000
    7       -5.062843     -5.062812   1.000000   1.000000
    8       -4.635203     -4.635194   1.000000   1.000000
    9       -2.012753     -2.012891   1.000000   1.000000
   10       -1.222356     -1.222454   1.000000   1.000000
   11       -0.432599     -0.432715   1.000000   1.000000
   12       -0.118910     -0.119008   1.000000   1.000000
   13        0.727939      0.727934   1.000000   1.000000
   14        1.461834      1.461785   1.000000   1.000000
   15        1.955013      1.954929   1.000000   1.000000
   16        2.796131      2.796102   1.000000   1.000000
   17        9.481703      9.481585   0.000000   0.000000
   18        9.996089      9.996052   0.000000   0.000000
   19       10.841762     10.841716   0.000000   0.000000
   20       11.752548     11.752409   0.000000   0.000000
   21       12.850586     12.850373   0.000000   0.000000
   22       13.437756     13.436522   0.000000   0.000000
 
  0.2222222E+00  0.2500000E+00 -0.1720850E-15  0.2777778E-02
    1      -19.142383    -19.142347   1.000000   1.000000
    2      -17.471290    -17.471249   1.000000   1.000000
    3      -14.564715    -14.564624   1.000000   1.000000
    4      -12.169618    -12.169538   1.000000   1.000000
    5       -8.915729     -8.915660   1.000000   1.000000
    6       -6.302925     -6.302868   1.000000   1.000000
    7       -5.036737     -5.036679   1.000000   1.000000
    8       -4.468571     -4.468565   1.000000   1.000000
    9       -2.033426     -2.033559   1.000000   1.000000
   10       -1.353202     -1.353304   1.000000   1.000000
   11       -0.635529     -0.635640   1.000000   1.000000
   12       -0.002164     -0.002280   1.000000   1.000000
   13        0.724702      0.724676   1.000000   1.000000
   14        1.256736      1.256701   1.000000   1.000000
   15        1.929700      1.929608   1.000000   1.000000
   16        2.849044      2.849018   1.000000   1.000000
   17        9.671779      9.671697   0.000000   0.000000
   18       10.090118     10.090096   0.000000   0.000000
   19       10.658318     10.658244   0.000000   0.000000
   20       11.924548     11.924410   0.000000   0.000000
   21       12.667478     12.667341   0.000000   0.000000
   22       13.435598     13.433990   0.000000   0.000000
 
  0.3333333E+00  0.2500000E+00 -0.2108362E-15  0.2777778E-02
    1      -19.038510    -19.038473   1.000000   1.000000
    2      -17.529317    -17.529276   1.000000   1.000000
    3      -14.700648    -14.700561   1.000000   1.000000
    4      -12.373735    -12.373659   1.000000   1.000000
    5       -8.395894     -8.395832   1.000000   1.000000
    6       -6.521928     -6.521859   1.000000   1.000000
    7       -4.964194     -4.964125   1.000000   1.000000
    8       -4.298397     -4.298389   1.000000   1.000000
    9       -2.038603     -2.038726   1.000000   1.000000
   10       -1.440400     -1.440507   1.000000   1.000000
   11       -0.861683     -0.861800   1.000000   1.000000
   12        0.323943      0.323829   1.000000   1.000000
   13        0.797485      0.797431   1.000000   1.000000
   14        0.879771      0.879743   1.000000   1.000000
   15        1.997393      1.997309   1.000000   1.000000
   16        2.812909      2.812885   1.000000   1.000000
   17        9.682626      9.682587   0.000000   0.000000
   18       10.020496     10.020454   0.000000   0.000000
   19       10.667589     10.667523   0.000000   0.000000
   20       11.892372     11.892215   0.000000   0.000000
   21       12.832990     12.833096   0.000000   0.000000
   22       13.645903     13.646212   0.000000   0.000000
 
  0.4444444E+00  0.2500000E+00 -0.1765018E-15  0.2777778E-02
    1      -19.006282    -19.006246   1.000000   1.000000
    2      -17.560046    -17.560004   1.000000   1.000000
    3      -14.649533    -14.649447   1.000000   1.000000
    4      -12.536141    -12.536067   1.000000   1.000000
    5       -8.198795     -8.198735   1.000000   1.000000
    6       -6.728857     -6.728787   1.000000   1.000000
    7       -4.876325     -4.876256   1.000000   1.000000
    8       -4.201625     -4.201614   1.000000   1.000000
    9       -1.894590     -1.894700   1.000000   1.000000
   10       -1.549322     -1.549432   1.000000   1.000000
   11       -0.954585     -0.954708   1.000000   1.000000
   12        0.267422      0.267325   1.000000   1.000000
   13        0.793610      0.793557   1.000000   1.000000
   14        1.015690      1.015638   1.000000   1.000000
   15        2.132941      2.132857   1.000000   1.000000
   16        2.685690      2.685671   1.000000   1.000000
   17        9.527365      9.527338   0.000000   0.000000
   18        9.813611      9.813563   0.000000   0.000000
   19       10.726948     10.726864   0.000000   0.000000
   20       12.209110     12.208967   0.000000   0.000000
   21       13.023654     13.021234   0.000000   0.000000
   22       13.506935     13.502447   0.000000   0.000000
 
 -0.4444444E+00  0.2500000E+00  0.3484914E-16  0.2777778E-02
    1      -19.068761    -19.068726   1.000000   1.000000
    2      -17.539404    -17.539360   1.000000   1.000000
    3      -14.413632    -14.413543   1.000000   1.000000
    4      -12.636415    -12.636341   1.000000   1.000000
    5       -8.470775     -8.470710   1.000000   1.000000
    6       -6.731552     -6.731499   1.000000   1.000000
    7       -4.826749     -4.826689   1.000000   1.000000
    8       -4.220575     -4.220559   1.000000   1.000000
    9       -1.843313     -1.843438   1.000000   1.000000
   10       -1.432258     -1.432353   1.000000   1.000000
   11       -0.911339     -0.911453   1.000000   1.000000
   12       -0.031946     -0.032043   1.000000   1.000000
   13        0.824723      0.824672   1.000000   1.000000
   14        1.380832      1.380790   1.000000   1.000000
   15        2.225581      2.225493   1.000000   1.000000
   16        2.610258      2.610237   1.000000   1.000000
   17        9.359278      9.359253   0.000000   0.000000
   18        9.619748      9.619699   0.000000   0.000000
   19       10.830539     10.830436   0.000000   0.000000
   20       12.414358     12.413720   0.000000   0.000000
   21       12.853376     12.853074   0.000000   0.000000
   22       13.514072     13.549141   0.000000   0.000000
 
 -0.3333333E+00  0.2500000E+00 -0.1046246E-16  0.2777778E-02
    1      -19.185021    -19.184986   1.000000   1.000000
    2      -17.484504    -17.484460   1.000000   1.000000
    3      -14.081216    -14.081121   1.000000   1.000000
    4      -12.640935    -12.640861   1.000000   1.000000
    5       -8.994063     -8.993994   1.000000   1.000000
    6       -6.626803     -6.626761   1.000000   1.000000
    7       -4.842295     -4.842255   1.000000   1.000000
    8       -4.355259     -4.355242   1.000000   1.000000
    9       -1.996371     -1.996513   1.000000   1.000000
   10       -1.038229     -1.038324   1.000000   1.000000
   11       -0.778444     -0.778531   1.000000   1.000000
   12       -0.203989     -0.204094   1.000000   1.000000
   13        0.886276      0.886252   1.000000   1.000000
   14        1.569465      1.569422   1.000000   1.000000
   15        2.170676      2.170598   1.000000   1.000000
   16        2.676178      2.676139   1.000000   1.000000
   17        9.256952      9.256875   0.000000   0.000000
   18        9.641607      9.641617   0.000000   0.000000
   19       10.794783     10.794668   0.000000   0.000000
   20       12.043338     12.042800   0.000000   0.000000
   21       12.677535     12.677910   0.000000   0.000000
   22       13.699047     13.629755   0.000000   0.000000
 
 -0.2222222E+00  0.2500000E+00 -0.8434177E-16  0.2777778E-02
    1      -19.292968    -19.292934   1.000000   1.000000
    2      -17.428810    -17.428765   1.000000   1.000000
    3      -13.839586    -13.839485   1.000000   1.000000
    4      -12.467499    -12.467422   1.000000   1.000000
    5       -9.534971     -9.534900   1.000000   1.000000
    6       -6.505558     -6.505516   1.000000   1.000000
    7       -4.915109     -4.915096   1.000000   1.000000
    8       -4.534390     -4.534372   1.000000   1.000000
    9       -2.059911     -2.060057   1.000000   1.000000
   10       -0.993297     -0.993401   1.000000   1.000000
   11       -0.452763     -0.452846   1.000000   1.000000
   12       -0.218176     -0.218267   1.000000   1.000000
   13        1.040496      1.040504   1.000000   1.000000
   14        1.525513      1.525459   1.000000   1.000000
   15        2.095609      2.095532   1.000000   1.000000
   16        2.709971      2.709927   1.000000   1.000000
   17        9.142244      9.142132   0.000000   0.000000
   18        9.881677      9.881702   0.000000   0.000000
   19       10.718958     10.718857   0.000000   0.000000
   20       11.763821     11.763581   0.000000   0.000000
   21       12.347884     12.347819   0.000000   0.000000
   22       13.759108     13.763341   0.000000   0.000000
 
 -0.1111111E+00  0.2500000E+00 -0.8954802E-16  0.2777778E-02
    1      -19.349437    -19.349404   1.000000   1.000000
    2      -17.394942    -17.394899   1.000000   1.000000
    3      -13.839535    -13.839433   1.000000   1.000000
    4      -12.124452    -12.124369   1.000000   1.000000