 running on   12 total cores
 distrk:  each k-point on   12 cores,    1 groups
 distr:  one band on    6 cores,    2 groups
 using from now: INCAR     
 vasp.6.1.2 22Jul20 (build Mar 20 2021 11:25:07) complex                        
  
 POSCAR found type information on POSCAR P N O 
 POSCAR found :  3 types and       6 ions
 scaLAPACK will be used
 -----------------------------------------------------------------------------
|                                                                             |
|               ----> ADVICE to this user running VASP <----                  |
|                                                                             |
|     You have a (more or less) 'small supercell' and for smaller cells       |
|     it is recommended to use the reciprocal-space projection scheme!        |
|     The real-space optimization is not efficient for small cells and it     |
|     is also less accurate ...                                               |
|     Therefore, set LREAL=.FALSE. in the INCAR file.                         |
|                                                                             |
 -----------------------------------------------------------------------------

 LDA part: xc-table for Pade appr. of Perdew
 generate k-points for:    9    8   10
 POSCAR, INCAR and KPOINTS ok, starting setup
 FFT: planning ...
 WAVECAR not read
 entering main loop
       N       E                     dE             d eps       ncg     rms          rms(c)
DAV:   1     0.189241926513E+03    0.18924E+03   -0.17109E+04 31856   0.133E+03
DAV:   2    -0.387083945877E+02   -0.22795E+03   -0.22034E+03 43654   0.312E+02
DAV:   3    -0.494935576408E+02   -0.10785E+02   -0.10737E+02 40526   0.738E+01
DAV:   4    -0.496185645232E+02   -0.12501E+00   -0.12487E+00 39644   0.877E+00
DAV:   5    -0.496209803927E+02   -0.24159E-02   -0.24153E-02 40124   0.117E+00    0.321E+01
RMM:   6    -0.427037577086E+02    0.69172E+01   -0.20352E+01 32294   0.270E+01    0.148E+01
RMM:   7    -0.428492907836E+02   -0.14553E+00   -0.60879E+00 36534   0.149E+01    0.576E+00
RMM:   8    -0.428151912786E+02    0.34100E-01   -0.46321E-01 37240   0.505E+00    0.342E+00
RMM:   9    -0.428169147364E+02   -0.17235E-02   -0.15375E-01 38261   0.278E+00    0.981E-01
RMM:  10    -0.428162732172E+02    0.64152E-03   -0.23271E-02 39655   0.117E+00    0.294E-01
RMM:  11    -0.428164450994E+02   -0.17188E-03   -0.15077E-02 39037   0.733E-01    0.246E-01
RMM:  12    -0.428164960226E+02   -0.50923E-04   -0.16708E-03 38842   0.309E-01    0.121E-01
RMM:  13    -0.428165017695E+02   -0.57469E-05   -0.49313E-04 38944   0.159E-01    0.351E-02
RMM:  14    -0.428165124281E+02   -0.10659E-04   -0.10890E-04 39647   0.666E-02    0.171E-02
RMM:  15    -0.428165133319E+02   -0.90385E-06   -0.19992E-05 28522   0.313E-02
   1 F= -.42816513E+02 E0= -.42816513E+02  d E =0.000000E+00  mag=    -0.0001
