   12   12    1    2
  0.8818262E+01  0.5123018E-09  0.5123018E-09  0.4579506E-09  0.5000000E-15
  1.000000000000000E-004
  CAR 
 unknown system                          
     56     64     40
 
  0.0000000E+00  0.0000000E+00  0.0000000E+00  0.2915452E-02
    1      -39.145786    -39.145550   1.000000   1.000000
    2      -39.111562    -39.111325   1.000000   1.000000
    3      -39.110054    -39.109817   1.000000   1.000000
    4      -39.108850    -39.108613   1.000000   1.000000
    5      -16.934322    -16.934352   1.000000   1.000000
    6      -16.128486    -16.128529   1.000000   1.000000
    7      -14.549638    -14.549688   1.000000   1.000000
    8      -14.514107    -14.514157   1.000000   1.000000
    9      -12.394595    -12.394624   1.000000   1.000000
   10      -10.769336    -10.769358   1.000000   1.000000
   11       -6.243642     -6.243668   1.000000   1.000000
   12       -3.300614     -3.300633   1.000000   1.000000
   13       -2.889392     -2.889413   1.000000   1.000000
   14       -2.522056     -2.522080   1.000000   1.000000
   15       -2.343443     -2.343465   1.000000   1.000000
   16       -1.101959     -1.101999   1.000000   1.000000
   17       -0.381177     -0.381198   1.000000   1.000000
   18       -0.303934     -0.303952   1.000000   1.000000
   19        0.526099      0.526074   1.000000   1.000000
   20        0.693823      0.693802   1.000000   1.000000
   21        0.959612      0.959583   1.000000   1.000000
   22        1.845712      1.845672   1.000000   1.000000
   23        1.850775      1.850736   1.000000   1.000000
   24        1.928641      1.928606   1.000000   1.000000
   25        2.149738      2.149700   1.000000   1.000000
   26        2.870293      2.870275   1.000000   1.000000
   27        2.926924      2.926902   1.000000   1.000000
   28        3.558808      3.558798   1.000000   1.000000
   29       10.205246     10.205283   0.000003   0.000002
   30       10.785279     10.785302   0.000000   0.000000
   31       11.304516     11.304522   0.000000   0.000000
   32       13.281310     13.281338   0.000000   0.000000
   33       13.378800     13.380780   0.000000   0.000000
   34       13.703669     13.704036   0.000000   0.000000
   35       14.205932     14.205811   0.000000   0.000000
   36       14.983779     14.981657   0.000000   0.000000
   37       15.151779     15.124060   0.000000   0.000000
   38       15.413582     15.408591   0.000000   0.000000
   39       15.969041     15.973655   0.000000   0.000000
   40       16.679375     16.076870   0.000000   0.000000
 
  0.1428571E+00 -0.1361503E-16  0.0000000E+00  0.1166181E-01
    1      -39.144514    -39.144278   1.000000   1.000000
    2      -39.115189    -39.114953   1.000000   1.000000
    3      -39.109969    -39.109733   1.000000   1.000000
    4      -39.106576    -39.106339   1.000000   1.000000
    5      -16.911343    -16.911375   1.000000   1.000000
    6      -16.152323    -16.152365   1.000000   1.000000
    7      -14.554022    -14.554071   1.000000   1.000000
    8      -14.520520    -14.520570   1.000000   1.000000
    9      -12.397462    -12.397492   1.000000   1.000000
   10      -10.766513    -10.766535   1.000000   1.000000
   11       -6.245580     -6.245606   1.000000   1.000000
   12       -3.312907     -3.312926   1.000000   1.000000
   13       -2.862941     -2.862963   1.000000   1.000000
   14       -2.427918     -2.427942   1.000000   1.000000
   15       -2.349322     -2.349346   1.000000   1.000000
   16       -1.127102     -1.127141   1.000000   1.000000
   17       -0.497314     -0.497332   1.000000   1.000000
   18       -0.055806     -0.055827   1.000000   1.000000
   19        0.569819      0.569793   1.000000   1.000000
   20        0.749438      0.749415   1.000000   1.000000
   21        0.949888      0.949859   1.000000   1.000000
   22        1.631575      1.631540   1.000000   1.000000
   23        1.766697      1.766665   1.000000   1.000000
   24        1.931620      1.931579   1.000000   1.000000
   25        2.103187      2.103149   1.000000   1.000000
   26        2.871246      2.871225   1.000000   1.000000
   27        2.919721      2.919699   1.000000   1.000000
   28        3.551298      3.551288   1.000000   1.000000
   29       10.423667     10.423700  -0.000000  -0.000000
   30       10.836080     10.836094   0.000000   0.000000
   31       11.428379     11.428388   0.000000   0.000000
   32       13.045089     13.045157   0.000000   0.000000
   33       13.255002     13.257163   0.000000   0.000000
   34       13.596806     13.596995   0.000000   0.000000
   35       14.194999     14.194771   0.000000   0.000000
   36       14.732888     14.732661   0.000000   0.000000
   37       15.014290     15.013185   0.000000   0.000000
   38       15.254212     15.254824   0.000000   0.000000
   39       15.377024     15.379701   0.000000   0.000000
   40       16.538120     16.171797   0.000000   0.000000
 
  0.2857143E+00 -0.9761784E-17  0.0000000E+00  0.1166181E-01
    1      -39.140849    -39.140613   1.000000   1.000000
    2      -39.121104    -39.120868   1.000000   1.000000
    3      -39.109379    -39.109142   1.000000   1.000000
    4      -39.104789    -39.104552   1.000000   1.000000
    5      -16.852950    -16.852983   1.000000   1.000000
    6      -16.212707    -16.212748   1.000000   1.000000
    7      -14.563889    -14.563937   1.000000   1.000000
    8      -14.534742    -14.534791   1.000000   1.000000
    9      -12.402897    -12.402927   1.000000   1.000000
   10      -10.760928    -10.760950   1.000000   1.000000
   11       -6.248103     -6.248128   1.000000   1.000000
   12       -3.350502     -3.350519   1.000000   1.000000
   13       -2.795580     -2.795602   1.000000   1.000000
   14       -2.401324     -2.401353   1.000000   1.000000
   15       -2.147073     -2.147100   1.000000   1.000000
   16       -1.201070     -1.201106   1.000000   1.000000
   17       -0.414245     -0.414267   1.000000   1.000000
   18        0.214577      0.214553   1.000000   1.000000
   19        0.568166      0.568141   1.000000   1.000000
   20        0.853275      0.853247   1.000000   1.000000
   21        0.996331      0.996305   1.000000   1.000000
   22        1.251301      1.251274   1.000000   1.000000
   23        1.567365      1.567337   1.000000   1.000000
   24        1.860384      1.860350   1.000000   1.000000
   25        1.999365      1.999324   1.000000   1.000000
   26        2.738579      2.738562   1.000000   1.000000
   27        3.041846      3.041818   1.000000   1.000000
   28        3.528242      3.528231   1.000000   1.000000
   29       10.795941     10.795948   0.000000   0.000000
   30       11.056764     11.056784   0.000000   0.000000
   31       11.767756     11.767743   0.000000   0.000000
   32       12.731840     12.731886   0.000000   0.000000
   33       12.788097     12.788317   0.000000   0.000000
   34       13.288482     13.288421   0.000000   0.000000
   35       14.024204     14.024701   0.000000   0.000000
   36       14.379192     14.378911   0.000000   0.000000
   37       14.493839     14.493725   0.000000   0.000000
   38       15.318173     15.319388   0.000000   0.000000
   39       15.341353     15.341353   0.000000   0.000000
   40       16.185515     16.119591   0.000000   0.000000
 
  0.4285714E+00 -0.5113239E-16  0.0000000E+00  0.1166181E-01
    1      -39.135788    -39.135552   1.000000   1.000000
    2      -39.127281    -39.127045   1.000000   1.000000
    3      -39.108876    -39.108639   1.000000   1.000000
    4      -39.104121    -39.103884   1.000000   1.000000
    5      -16.795903    -16.795937   1.000000   1.000000
    6      -16.271685    -16.271724   1.000000   1.000000
    7      -14.572120    -14.572168   1.000000   1.000000
    8      -14.545783    -14.545833   1.000000   1.000000
    9      -12.406308    -12.406338   1.000000   1.000000
   10      -10.757374    -10.757396   1.000000   1.000000
   11       -6.248153     -6.248178   1.000000   1.000000
   12       -3.391296     -3.391312   1.000000   1.000000
   13       -2.742568     -2.742588   1.000000   1.000000
   14       -2.414819     -2.414853   1.000000   1.000000
   15       -1.871076     -1.871107   1.000000   1.000000
   16       -1.289900     -1.289934   1.000000   1.000000
   17       -0.209476     -0.209502   1.000000   1.000000
   18        0.303218      0.303185   1.000000   1.000000
   19        0.565552      0.565537   1.000000   1.000000
   20        0.772826      0.772810   1.000000   1.000000
   21        0.837071      0.837046   1.000000   1.000000
   22        1.241521      1.241489   1.000000   1.000000
   23        1.556245      1.556217   1.000000   1.000000
   24        1.717734      1.717704   1.000000   1.000000
   25        1.910324      1.910280   1.000000   1.000000
   26        2.614673      2.614660   1.000000   1.000000
   27        3.151054      3.151019   1.000000   1.000000
   28        3.500344      3.500332   1.000000   1.000000
   29       10.766192     10.766161   0.000000   0.000000
   30       11.643707     11.643716   0.000000   0.000000
   31       12.050359     12.050398   0.000000   0.000000
   32       12.511434     12.511461   0.000000   0.000000
   33       12.707037     12.707077   0.000000   0.000000
   34       12.839805     12.839528   0.000000   0.000000
   35       13.715389     13.715302   0.000000   0.000000
   36       13.818834     13.818469   0.000000   0.000000
   37       14.276976     14.277917   0.000000   0.000000
   38       15.478617     15.479068   0.000000   0.000000
   39       15.820998     15.826928   0.000000   0.000000
   40       16.358751     16.426446   0.000000   0.000000
 
  0.1428571E+00  0.1428571E+00  0.0000000E+00  0.5830904E-02
    1      -39.141885    -39.141649   1.000000   1.000000
    2      -39.119846    -39.119609   1.000000   1.000000
    3      -39.109825    -39.109588   1.000000   1.000000
    4      -39.104676    -39.104439   1.000000   1.000000
    5      -16.866532    -16.866564   1.000000   1.000000
    6      -16.203833    -16.203874   1.000000   1.000000
    7      -14.561486    -14.561535   1.000000   1.000000
    8      -14.526146    -14.526197   1.000000   1.000000
    9      -12.396238    -12.396268   1.000000   1.000000
   10      -10.762887    -10.762909   1.000000   1.000000
   11       -6.240858     -6.240883   1.000000   1.000000
   12       -3.352994     -3.353012   1.000000   1.000000
   13       -2.825644     -2.825666   1.000000   1.000000
   14       -2.347359     -2.347387   1.000000   1.000000
   15       -2.308925     -2.308949   1.000000   1.000000
   16       -1.186214     -1.186251   1.000000   1.000000
   17       -0.467578     -0.467599   1.000000   1.000000
   18        0.274087      0.274061   1.000000   1.000000
   19        0.675170      0.675146   1.000000   1.000000
   20        0.741473      0.741444   1.000000   1.000000
   21        0.958737      0.958711   1.000000   1.000000
   22        1.415553      1.415521   1.000000   1.000000
   23        1.469528      1.469506   1.000000   1.000000
   24        1.968942      1.968909   1.000000   1.000000
   25        1.981941      1.981898   1.000000   1.000000
   26        2.762119      2.762102   1.000000   1.000000
   27        3.035503      3.035475   1.000000   1.000000
   28        3.552097      3.552085   1.000000   1.000000
   29       10.763810     10.763836   0.000000   0.000000
   30       10.877753     10.877748   0.000000   0.000000
   31       11.600505     11.600519   0.000000   0.000000
   32       12.787122     12.787163   0.000000   0.000000
   33       13.034007     13.034016   0.000000   0.000000
   34       13.483635     13.483654   0.000000   0.000000
   35       13.868681     13.868153   0.000000   0.000000
   36       14.533349     14.533843   0.000000   0.000000
   37       14.742363     14.742135   0.000000   0.000000
   38       14.828576     14.828482   0.000000   0.000000
   39       15.245925     15.246746   0.000000   0.000000
   40       16.895043     16.666516   0.000000   0.000000
 
  0.2857143E+00  0.1428571E+00  0.0000000E+00  0.1166181E-01
    1      -39.137269    -39.137032   1.000000   1.000000
    2      -39.125559    -39.125323   1.000000   1.000000
    3      -39.109587    -39.109350   1.000000   1.000000
    4      -39.103749    -39.103512   1.000000   1.000000
    5      -16.807209    -16.807242   1.000000   1.000000
    6      -16.262390    -16.262429   1.000000   1.000000
    7      -14.598758    -14.598806   1.000000   1.000000
    8      -14.512979    -14.513029   1.000000   1.000000
    9      -12.402390    -12.402420   1.000000   1.000000
   10      -10.758412    -10.758434   1.000000   1.000000
   11       -6.243712     -6.243736   1.000000   1.000000
   12       -3.390419     -3.390436   1.000000   1.000000
   13       -2.772104     -2.772126   1.000000   1.000000
   14       -2.340396     -2.340430   1.000000   1.000000
   15       -2.052713     -2.052740   1.000000   1.000000
   16       -1.251655     -1.251690   1.000000   1.000000
   17       -0.267692     -0.267718   1.000000   1.000000
   18        0.406035      0.406001   1.000000   1.000000
   19        0.530364      0.530341   1.000000   1.000000
   20        0.729527      0.729514   1.000000   1.000000
   21        1.087289      1.087264   1.000000   1.000000
   22        1.132688      1.132657   1.000000   1.000000
   23        1.398371      1.398346   1.000000   1.000000
   24        1.801375      1.801344   1.000000   1.000000
   25        1.970202      1.970160   1.000000   1.000000
   26        2.628663      2.628650   1.000000   1.000000
   27        3.144768      3.144734   1.000000   1.000000
   28        3.529885      3.529872   1.000000   1.000000
   29       10.871123     10.871111   0.000000   0.000000
   30       11.209403     11.209416   0.000000   0.000000
   31       11.857917     11.857929   0.000000   0.000000
   32       12.425703     12.425690   0.000000   0.000000
   33       13.043675     13.043714   0.000000   0.000000
   34       13.216181     13.216277   0.000000   0.000000
   35       13.656006     13.656103   0.000000   0.000000
   36       13.843983     13.844368   0.000000   0.000000
   37       14.418376     14.417941   0.000000   0.000000
   38       15.033877     15.034083   0.000000   0.000000
   39       15.452717     15.453203   0.000000   0.000000
   40       16.817997     16.783540   0.000000   0.000000
 
  0.4285714E+00  0.1428571E+00  0.0000000E+00  0.1166181E-01
    1      -39.133585    -39.133348   1.000000   1.000000
    2      -39.129307    -39.129070   1.000000   1.000000
    3      -39.109453    -39.109216   1.000000   1.000000
    4      -39.103717    -39.103479   1.000000   1.000000
    5      -16.783939    -16.783974   1.000000   1.000000
    6      -16.278085    -16.278124   1.000000   1.000000
    7      -14.624469    -14.624516   1.000000   1.000000
    8      -14.503975    -14.504025   1.000000   1.000000
    9      -12.411562    -12.411592   1.000000   1.000000
   10      -10.755933    -10.755955   1.000000   1.000000
   11       -6.253700     -6.253725   1.000000   1.000000
   12       -3.395405     -3.395420   1.000000   1.000000
   13       -2.706654     -2.706676   1.000000   1.000000
   14       -2.368458     -2.368494   1.000000   1.000000
   15       -1.821946     -1.821976   1.000000   1.000000
   16       -1.300358     -1.300391   1.000000   1.000000
   17       -0.135031     -0.135059   1.000000   1.000000
   18        0.210352      0.210327   1.000000   1.000000
   19        0.427041      0.427022   1.000000   1.000000
   20        0.696590      0.696575   1.000000   1.000000
   21        1.014845      1.014816   1.000000   1.000000
   22        1.203716      1.203688   1.000000   1.000000
   23        1.566475      1.566447   1.000000   1.000000
   24        1.658963      1.658931   1.000000   1.000000
   25        1.953055      1.953012   1.000000   1.000000
   26        2.592118      2.592106   1.000000   1.000000
   27        3.152318      3.152284   1.000000   1.000000
   28        3.510571      3.510557   1.000000   1.000000
   29       10.834355     10.834331   0.000000   0.000000
   30       11.412059     11.412075   0.000000   0.000000
   31       12.144893     12.144951   0.000000   0.000000
   32       12.263508     12.263628   0.000000   0.000000
   33       12.825081     12.825104   0.000000   0.000000
   34       13.187277     13.187362   0.000000   0.000000
   35       13.603357     13.603359   0.000000   0.000000
   36       13.790866     13.790895   0.000000   0.000000
   37       14.263982     14.263541   0.000000   0.000000
   38       15.255263     15.254511   0.000000   0.000000
   39       15.742185     15.741308   0.000000   0.000000
   40       16.525645     16.353992   0.000000   0.000000
 
 -0.4285714E+00  0.1428571E+00  0.0000000E+00  0.1166181E-01
    1      -39.138182    -39.137946   1.000000   1.000000
    2      -39.123735    -39.123498   1.000000   1.000000
    3      -39.109809    -39.109572   1.000000   1.000000
    4      -39.104304    -39.104067   1.000000   1.000000
    5      -16.822192    -16.822226   1.000000   1.000000
    6      -16.230623    -16.230663   1.000000   1.000000
    7      -14.628630    -14.628677   1.000000   1.000000
    8      -14.496980    -14.497030   1.000000   1.000000
    9      -12.417780    -12.417810   1.000000   1.000000
   10      -10.756775    -10.756797   1.000000   1.000000
   11       -6.263663     -6.263688   1.000000   1.000000
   12       -3.358088     -3.358105   1.000000   1.000000
   13       -2.682135     -2.682158   1.000000   1.000000
   14       -2.415776     -2.415809   1.000000   1.000000
   15       -1.875842     -1.875872   1.000000   1.000000
   16       -1.268452     -1.268485   1.000000   1.000000
   17       -0.273413     -0.273437   1.000000   1.000000
   18        0.105214      0.105195   1.000000   1.000000
   19        0.429387      0.429365   1.000000   1.000000
   20        0.771084      0.771063   1.000000   1.000000
   21        1.025613      1.025582   1.000000   1.000000
   22        1.206513      1.206485   1.000000   1.000000
   23        1.595297      1.595268   1.000000   1.000000
   24        1.771222      1.771191   1.000000   1.000000
   25        1.995367      1.995324   1.000000   1.000000
   26        2.680569      2.680552   1.000000   1.000000
   27        3.050626      3.050595   1.000000   1.000000
   28        3.507867      3.507855   1.000000   1.000000
   29       10.895359     10.895361   0.000000   0.000000
   30       11.324714     11.324722   0.000000   0.000000
   31       12.058249     12.058287   0.000000   0.000000
   32       12.167036     12.167100   0.000000   0.000000
   33       12.832623     12.832795   0.000000   0.000000
   34       13.162981     13.162954   0.000000   0.000000
   35       14.074542     14.074391   0.000000   0.000000
   36       14.172230     14.172180   0.000000   0.000000
   37       14.330695     14.330986   0.000000   0.000000
   38       15.418799     15.418425   0.000000   0.000000
   39       15.799855     15.803067   0.000000   0.000000
   40       16.090425     16.076331   0.000000   0.000000
 
 -0.2857143E+00  0.1428571E+00  0.0000000E+00  0.1166181E-01
    1      -39.142436    -39.142200   1.000000   1.000000
    2      -39.117483    -39.117246   1.000000   1.000000
    3      -39.110766    -39.110529   1.000000   1.000000
    4      -39.105461    -39.105224   1.000000   1.000000
    5      -16.880790    -16.880822   1.000000   1.000000
    6      -16.168530    -16.168572   1.000000   1.000000
    7      -14.611739    -14.611787   1.000000   1.000000
    8      -14.493412    -14.493462   1.000000   1.000000
    9      -12.415639    -12.415668   1.000000   1.000000
   10      -10.761056    -10.761078   1.000000   1.000000
   11       -6.264070     -6.264095   1.000000   1.000000
   12       -3.313688     -3.313705   1.000000   1.000000
   13       -2.764273     -2.764299   1.000000   1.000000
   14       -2.398453     -2.398478   1.000000   1.000000
   15       -2.130905     -2.130932   1.000000   1.000000
   16       -1.164829     -1.164865   1.000000   1.000000
   17       -0.411117     -0.411137   1.000000   1.000000
   18       -0.094794     -0.094811   1.000000   1.000000
   19        0.450890      0.450866   1.000000   1.000000
   20        0.854177      0.854151   1.000000   1.000000
   21        1.037180      1.037149   1.000000   1.000000
   22        1.297031      1.297003   1.000000   1.000000
   23        1.733538      1.733506   1.000000   1.000000
   24        1.909278      1.909239   1.000000   1.000000
   25        2.072284      2.072244   1.000000   1.000000
   26        2.802131      2.802111   1.000000   1.000000
   27        2.928312      2.928288   1.000000   1.000000
   28        3.514695      3.514687   1.000000   1.000000
   29       10.785421     10.785448   0.000000   0.000000
   30       11.006983     11.007006   0.000000   0.000000
   31       11.690302     11.690296   0.000000   0.000000
   32       12.451138     12.451126   0.000000   0.000000
   33       13.171722     13.171715   0.000000   0.000000
   34       13.550596     13.550536   0.000000   0.000000
   35       14.004370     14.003821   0.000000   0.000000
   36       14.561435     14.560806   0.000000   0.000000
   37       14.776671     14.776478   0.000000   0.000000
   38       15.409850     15.409934   0.000000   0.000000
   39       15.670569     15.671040   0.000000   0.000000
   40       16.248938     16.272003   0.000000   0.000000
 
 -0.1428571E+00  0.1428571E+00  0.0000000E+00  0.5830904E-02
    1      -39.144652    -39.144416   1.000000   1.000000
    2      -39.112643    -39.112406   1.000000   1.000000
    3      -39.111981    -39.111744   1.000000   1.000000
    4      -39.106890    -39.106653   1.000000   1.000000
    5      -16.916700    -16.916731   1.000000   1.000000
    6      -16.137493    -16.137534   1.000000   1.000000
    7      -14.582686    -14.582735   1.000000   1.000000
    8      -14.499661    -14.499711   1.000000   1.000000
    9      -12.406064    -12.406094   1.000000   1.000000
   10      -10.765762    -10.765784   1.000000   1.000000
   11       -6.255300     -6.255325   1.000000   1.000000
   12       -3.294946     -3.294964   1.000000   1.000000
   13       -2.852347     -2.852371   1.000000   1.000000
   14       -2.364115     -2.364138   1.000000   1.000000
   15       -2.350567     -2.350592   1.000000   1.000000
   16       -1.106747     -1.106786   1.000000   1.000000
   17       -0.378547     -0.378567   1.000000   1.000000
   18       -0.288863     -0.288879   1.000000   1.000000
   19        0.462306      0.462282   1.000000   1.000000
   20        0.749510      0.749486   1.000000   1.000000
   21        1.037792      1.037761   1.000000   1.000000
   22        1.590426      1.590392   1.000000   1.000000
   23        1.844055      1.844018   1.000000   1.000000
   24        1.938761      1.938721   1.000000   1.000000
   25        2.122452      2.122414   1.000000   1.000000
   26        2.874000      2.873980   1.000000   1.000000
   27        2.884111      2.884088   1.000000   1.000000
   28        3.532416      3.532408   1.000000   1.000000
   29       10.439625     10.439660  -0.000000  -0.000000
   30       10.882275     10.882317   0.000000   0.000000
   31       11.452487     11.452505   0.000000   0.000000
   32       12.881027     12.881035   0.000000   0.000000
   33       13.472491     13.472187   0.000000   0.000000
   34       13.600137     13.600039   0.000000   0.000000
   35       14.083799     14.083646   0.000000   0.000000
   36       14.638099     14.639006   0.000000   0.000000
   37       15.127486     15.127122   0.000000   0.000000
   38       15.593673     15.596717   0.000000   0.000000
   39       15.715865     15.763610   0.000000   0.000000
   40       16.255846     16.383733   0.000000   0.000000
 
  0.2857143E+00  0.2857143E+00  0.0000000E+00  0.5830904E-02
    1      -39.132185    -39.131949   1.000000   1.000000
    2      -39.130442    -39.130206   1.000000   1.000000
    3      -39.110092    -39.109855   1.000000   1.000000
    4      -39.103292    -39.103055   1.000000   1.000000
    5      -16.779479    -16.779513   1.000000   1.000000
    6      -16.278830    -16.278869   1.000000   1.000000
    7      -14.651673    -14.651719   1.000000   1.000000
    8      -14.482395    -14.482446   1.000000   1.000000
    9      -12.413996    -12.414026   1.000000   1.000000
   10      -10.755220    -10.755242   1.000000   1.000000
   11       -6.256167     -6.256192   1.000000   1.000000
   12       -3.397972     -3.397987   1.000000   1.000000
   13       -2.696574     -2.696596   1.000000   1.000000
   14       -2.283444     -2.283484   1.000000   1.000000
   15       -1.887932     -1.887959   1.000000   1.000000
   16       -1.273982     -1.274015   1.000000   1.000000
   17       -0.105128     -0.105155   1.000000   1.000000
   18        0.179331      0.179309   1.000000   1.000000
   19        0.295076      0.295060   1.000000   1.000000
   20        0.868008      0.867976   1.000000   1.000000
   21        0.887873      0.887855   1.000000   1.000000
   22        1.338887      1.338859   1.000000   1.000000
   23        1.404340      1.404313   1.000000   1.000000
   24        1.681179      1.681147   1.000000   1.000000
   25        2.005876      2.005833   1.000000   1.000000
   26        2.579967      2.579956   1.000000   1.000000
   27        3.150956      3.150922   1.000000   1.000000
   28        3.531757      3.531741   1.000000   1.000000
   29       11.040975     11.040980   0.000000   0.000000
   30       11.044685     11.044662   0.000000   0.000000
   31       12.023699     12.023727   0.000000   0.000000
   32       12.115118     12.115272   0.000000   0.000000
   33       13.306922     13.306732   0.000000   0.000000
   34       13.334040     13.334005   0.000000   0.000000
   35       13.588131     13.588147   0.000000   0.000000
   36       13.650273     13.650302   0.000000   0.000000
   37       14.426269     14.426332   0.000000   0.000000
   38       14.820359     14.820008   0.000000   0.000000
   39       15.552158     15.552536   0.000000   0.000000
   40       16.820446     16.604503   0.000000   0.000000
 
  0.4285714E+00  0.2857143E+00  0.0000000E+00  0.1166181E-01
    1      -39.135303    -39.135067   1.000000   1.000000
    2      -39.126192    -39.125956   1.000000   1.000000
    3      -39.110965    -39.110728   1.000000   1.000000
    4      -39.103522    -39.103285   1.000000   1.000000
    5      -16.797320    -16.797354   1.000000   1.000000
    6      -16.242909    -16.242949   1.000000   1.000000
    7      -14.684469    -14.684515   1.000000   1.000000
    8      -14.464728    -14.464779   1.000000   1.000000
    9      -12.429749    -12.429778   1.000000   1.000000
   10      -10.753502    -10.753524   1.000000   1.000000
   11       -6.275383     -6.275408   1.000000   1.000000
   12       -3.372801     -3.372817   1.000000   1.000000
   13       -2.596703     -2.596727   1.000000   1.000000
   14       -2.320098     -2.320138   1.000000   1.000000
   15       -1.749474     -1.749504   1.000000   1.000000
   16       -1.273175     -1.273207   1.000000   1.000000
   17       -0.167921     -0.167944   1.000000   1.000000
   18        0.035929      0.035912   1.000000   1.000000
   19        0.200120      0.200106   1.000000   1.000000
   20        0.647019      0.646989   1.000000   1.000000
   21        0.999538      0.999510   1.000000   1.000000
   22        1.387985      1.387958   1.000000   1.000000
   23        1.563791      1.563762   1.000000   1.000000
   24        1.661334      1.661303   1.000000   1.000000
   25        2.043190      2.043147   1.000000   1.000000
   26        2.628113      2.628098   1.000000   1.000000
   27        3.051538      3.051507   1.000000   1.000000
   28        3.527065      3.527051   1.000000   1.000000
   29       11.009543     11.009569   0.000000   0.000000
   30       11.235514     11.235488   0.000000   0.000000
   31       11.911598     11.911624   0.000000   0.000000
   32       12.184669     12.184748   0.000000   0.000000
   33       13.022072     13.022069   0.000000   0.000000
   34       13.185787     13.185766   0.000000   0.000000
   35       13.810355     13.810333   0.000000   0.000000
   36       14.210684     14.210791   0.000000   0.000000
   37       14.412212     14.411847   0.000000   0.000000
   38       15.117226     15.115612   0.000000   0.000000
   39       15.629970     15.628758   0.000000   0.000000
   40       16.362283     16.277770   0.000000   0.000000
 
 -0.4285714E+00  0.2857143E+00  0.0000000E+00  0.1166181E-01
    1      -39.139332    -39.139096   1.000000   1.000000
    2      -39.120174    -39.119938   1.000000   1.000000
    3      -39.112401    -39.112164   1.000000   1.000000
    4      -39.104134    -39.103897   1.000000   1.000000
    5      -16.840783    -16.840816   1.000000   1.000000
    6      -16.187866    -16.187907   1.000000   1.000000
    7      -14.686404    -14.686450   1.000000   1.000000
    8      -14.459241    -14.459291   1.000000   1.000000
    9      -12.437921    -12.437950   1.000000   1.000000
   10      -10.754698    -10.754720   1.000000   1.000000
   11       -6.285257     -6.285282   1.000000   1.000000
   12       -3.341070     -3.341085   1.000000   1.000000
   13       -2.550720     -2.550749   1.000000   1.000000
   14       -2.397815     -2.397846   1.000000   1.000000
   15       -1.794865     -1.794896   1.000000   1.000000
   16       -1.248875     -1.248907   1.000000   1.000000
   17       -0.299664     -0.299683   1.000000   1.000000
   18       -0.086406     -0.086420   1.000000   1.000000
   19        0.345354      0.345332   1.000000   1.000000