   16   16    1    2
  0.1318679E+02  0.5126588E-09  0.5126588E-09  0.9392909E-09  0.5000000E-15
  1.000000000000000E-004
  CAR 
 unknown system                          
     80     60     56
 
  0.0000000E+00  0.0000000E+00  0.0000000E+00  0.5102041E-02
    1      -16.517898    -16.517894   1.000000   1.000000
    2      -15.829148    -15.829147   1.000000   1.000000
    3      -14.770521    -14.770514   1.000000   1.000000
    4      -12.722165    -12.722159   1.000000   1.000000
    5      -12.574576    -12.574578   1.000000   1.000000
    6      -12.340936    -12.340948   1.000000   1.000000
    7      -12.308662    -12.308675   1.000000   1.000000
    8      -12.176870    -12.176875   1.000000   1.000000
    9      -12.101009    -12.101024   1.000000   1.000000
   10      -11.648411    -11.648424   1.000000   1.000000
   11       -9.043904     -9.043886   1.000000   1.000000
   12       -8.900741     -8.900711   1.000000   1.000000
   13       -8.782878     -8.782854   1.000000   1.000000
   14       -6.019738     -6.019726   1.000000   1.000000
   15       -5.971009     -5.970993   1.000000   1.000000
   16       -5.153665     -5.153652   1.000000   1.000000
   17       -4.607953     -4.607939   1.000000   1.000000
   18       -4.053784     -4.053775   1.000000   1.000000
   19       -3.547500     -3.547491   1.000000   1.000000
   20       -3.443914     -3.443905   1.000000   1.000000
   21       -2.706752     -2.706735   1.000000   1.000000
   22       -2.690143     -2.690133   1.000000   1.000000
   23       -2.683085     -2.683086   1.000000   1.000000
   24       -2.165670     -2.165669   1.000000   1.000000
   25       -0.211265     -0.211269   1.000000   1.000000
   26        0.243858      0.243839   1.000000   1.000000
   27        0.324430      0.324405   1.000000   1.000000
   28        0.351277      0.351259   1.000000   1.000000
   29        0.372747      0.372721   1.000000   1.000000
   30        0.961046      0.961017   1.000000   1.000000
   31        0.972013      0.972000   1.000000   1.000000
   32        1.093300      1.093279   1.000000   1.000000
   33        1.190856      1.190843   1.000000   1.000000
   34        1.667761      1.667744   1.000000   1.000000
   35        1.831395      1.831372   1.000000   1.000000
   36        2.293868      2.293840   1.000000   1.000000
   37        2.373980      2.373951   1.000000   1.000000
   38        2.757983      2.757956   1.000000   1.000000
   39        3.136983      3.136942   1.000000   1.000000
   40        3.529666      3.529632   1.000000   1.000000
   41        7.350972      7.351004   0.000000   0.000000
   42        7.619346      7.619398   0.000000   0.000000
   43        8.321002      8.321034   0.000000   0.000000
   44        8.490925      8.490950   0.000000   0.000000
   45        8.600317      8.600337   0.000000   0.000000
   46        8.738147      8.738221   0.000000   0.000000
   47        8.920971      8.920955   0.000000   0.000000
   48        9.467059      9.467101   0.000000   0.000000
   49        9.640987      9.641028   0.000000   0.000000
   50        9.677218      9.677229   0.000000   0.000000
   51        9.704820      9.704832   0.000000   0.000000
   52       10.720221     10.720268   0.000000   0.000000
   53       11.118189     11.118163   0.000000   0.000000
   54       11.148153     11.148171   0.000000   0.000000
   55       11.461098     11.461121   0.000000   0.000000
   56       11.474297     11.474355   0.000000   0.000000
 
  0.1428571E+00  0.1180608E-16 -0.1789706E-16  0.2040816E-01
    1      -16.460192    -16.460189   1.000000   1.000000
    2      -15.821605    -15.821603   1.000000   1.000000
    3      -14.724140    -14.724132   1.000000   1.000000
    4      -13.106360    -13.106355   1.000000   1.000000
    5      -12.801277    -12.801278   1.000000   1.000000
    6      -12.401301    -12.401310   1.000000   1.000000
    7      -12.265164    -12.265176   1.000000   1.000000
    8      -12.066728    -12.066743   1.000000   1.000000
    9      -11.798125    -11.798136   1.000000   1.000000
   10      -11.635177    -11.635190   1.000000   1.000000
   11       -9.540590     -9.540563   1.000000   1.000000
   12       -8.615119     -8.615096   1.000000   1.000000
   13       -8.206587     -8.206565   1.000000   1.000000
   14       -6.333375     -6.333360   1.000000   1.000000
   15       -5.751706     -5.751693   1.000000   1.000000
   16       -5.147714     -5.147701   1.000000   1.000000
   17       -4.611442     -4.611428   1.000000   1.000000
   18       -4.183273     -4.183263   1.000000   1.000000
   19       -3.478654     -3.478645   1.000000   1.000000
   20       -3.381164     -3.381155   1.000000   1.000000
   21       -2.905216     -2.905206   1.000000   1.000000
   22       -2.676380     -2.676378   1.000000   1.000000
   23       -2.546545     -2.546531   1.000000   1.000000
   24       -2.180583     -2.180582   1.000000   1.000000
   25       -0.347955     -0.347962   1.000000   1.000000
   26       -0.020261     -0.020283   1.000000   1.000000
   27        0.251289      0.251265   1.000000   1.000000
   28        0.437079      0.437060   1.000000   1.000000
   29        0.668322      0.668299   1.000000   1.000000
   30        0.903283      0.903256   1.000000   1.000000
   31        1.001801      1.001787   1.000000   1.000000
   32        1.115392      1.115372   1.000000   1.000000
   33        1.223396      1.223382   1.000000   1.000000
   34        1.626142      1.626123   1.000000   1.000000
   35        1.930549      1.930526   1.000000   1.000000
   36        2.229386      2.229360   1.000000   1.000000
   37        2.329572      2.329543   1.000000   1.000000
   38        2.696320      2.696294   1.000000   1.000000
   39        3.081643      3.081603   1.000000   1.000000
   40        3.408487      3.408454   1.000000   1.000000
   41        7.523816      7.523860   0.000000   0.000000
   42        7.570083      7.570118   0.000000   0.000000
   43        8.115641      8.115685   0.000000   0.000000
   44        8.392239      8.392275   0.000000   0.000000
   45        8.699436      8.699483   0.000000   0.000000
   46        8.792516      8.792546   0.000000   0.000000
   47        9.047141      9.047159   0.000000   0.000000
   48        9.310018      9.310005   0.000000   0.000000
   49        9.424421      9.424457   0.000000   0.000000
   50       10.015210     10.015236   0.000000   0.000000
   51       10.214413     10.214435   0.000000   0.000000
   52       10.423963     10.423987   0.000000   0.000000
   53       10.787628     10.787628   0.000000   0.000000
   54       11.331740     11.331762   0.000000   0.000000
   55       11.628624     11.628444   0.000000   0.000000
   56       11.835100     11.835380   0.000000   0.000000
 
  0.2857143E+00  0.5288884E-17 -0.1070699E-16  0.2040816E-01
    1      -16.301486    -16.301483   1.000000   1.000000
    2      -15.821075    -15.821074   1.000000   1.000000
    3      -14.622930    -14.622923   1.000000   1.000000
    4      -13.567122    -13.567117   1.000000   1.000000
    5      -13.156501    -13.156499   1.000000   1.000000
    6      -12.517646    -12.517653   1.000000   1.000000
    7      -12.249842    -12.249854   1.000000   1.000000
    8      -11.964872    -11.964888   1.000000   1.000000
    9      -11.621455    -11.621469   1.000000   1.000000
   10      -11.558539    -11.558554   1.000000   1.000000
   11       -9.650535     -9.650505   1.000000   1.000000
   12       -8.231220     -8.231198   1.000000   1.000000
   13       -7.615615     -7.615595   1.000000   1.000000
   14       -6.538932     -6.538918   1.000000   1.000000
   15       -5.599435     -5.599422   1.000000   1.000000
   16       -5.240439     -5.240426   1.000000   1.000000
   17       -4.615077     -4.615063   1.000000   1.000000
   18       -4.361980     -4.361968   1.000000   1.000000
   19       -3.486117     -3.486108   1.000000   1.000000
   20       -3.222472     -3.222465   1.000000   1.000000
   21       -2.966309     -2.966297   1.000000   1.000000
   22       -2.724413     -2.724410   1.000000   1.000000
   23       -2.456491     -2.456477   1.000000   1.000000
   24       -2.264557     -2.264556   1.000000   1.000000
   25       -0.476108     -0.476114   1.000000   1.000000
   26       -0.333455     -0.333477   1.000000   1.000000
   27        0.055928      0.055902   1.000000   1.000000
   28        0.396633      0.396616   1.000000   1.000000
   29        0.762922      0.762899   1.000000   1.000000
   30        0.990494      0.990471   1.000000   1.000000
   31        1.060287      1.060269   1.000000   1.000000
   32        1.222463      1.222439   1.000000   1.000000
   33        1.420722      1.420707   1.000000   1.000000
   34        1.622423      1.622404   1.000000   1.000000
   35        1.945794      1.945772   1.000000   1.000000
   36        2.142144      2.142119   1.000000   1.000000
   37        2.199865      2.199837   1.000000   1.000000
   38        2.575601      2.575578   1.000000   1.000000
   39        2.971989      2.971955   1.000000   1.000000
   40        3.247525      3.247492   1.000000   1.000000
   41        7.342896      7.342946   0.000000   0.000000
   42        7.556635      7.556679   0.000000   0.000000
   43        8.130178      8.130216   0.000000   0.000000
   44        8.363820      8.363861   0.000000   0.000000
   45        8.777648      8.777675   0.000000   0.000000
   46        8.826534      8.826573   0.000000   0.000000
   47        9.233531      9.233564   0.000000   0.000000
   48        9.647589      9.647574   0.000000   0.000000
   49        9.824337      9.824350   0.000000   0.000000
   50       10.015855     10.015891   0.000000   0.000000
   51       10.264095     10.264133   0.000000   0.000000
   52       10.593962     10.593937   0.000000   0.000000
   53       10.730176     10.730203   0.000000   0.000000
   54       11.119653     11.119677   0.000000   0.000000
   55       11.559972     11.560155   0.000000   0.000000
   56       11.788266     11.789518   0.000000   0.000000
 
  0.4285714E+00 -0.7230327E-17  0.1566907E-17  0.2040816E-01
    1      -16.097314    -16.097312   1.000000   1.000000
    2      -15.883651    -15.883651   1.000000   1.000000
    3      -14.564954    -14.564946   1.000000   1.000000
    4      -13.778807    -13.778803   1.000000   1.000000
    5      -13.415146    -13.415140   1.000000   1.000000
    6      -12.642621    -12.642626   1.000000   1.000000
    7      -12.247024    -12.247036   1.000000   1.000000
    8      -11.862434    -11.862450   1.000000   1.000000
    9      -11.637992    -11.638007   1.000000   1.000000
   10      -11.581619    -11.581633   1.000000   1.000000
   11       -9.420383     -9.420354   1.000000   1.000000
   12       -7.896152     -7.896132   1.000000   1.000000
   13       -7.680865     -7.680845   1.000000   1.000000
   14       -6.129067     -6.129054   1.000000   1.000000
   15       -5.588395     -5.588383   1.000000   1.000000
   16       -5.488156     -5.488140   1.000000   1.000000
   17       -4.665368     -4.665354   1.000000   1.000000
   18       -4.426500     -4.426487   1.000000   1.000000
   19       -3.395599     -3.395590   1.000000   1.000000
   20       -3.218882     -3.218874   1.000000   1.000000
   21       -2.915074     -2.915071   1.000000   1.000000
   22       -2.779814     -2.779801   1.000000   1.000000
   23       -2.436385     -2.436374   1.000000   1.000000
   24       -2.375800     -2.375797   1.000000   1.000000
   25       -0.548729     -0.548746   1.000000   1.000000
   26       -0.470974     -0.470982   1.000000   1.000000
   27       -0.241551     -0.241575   1.000000   1.000000
   28        0.453784      0.453759   1.000000   1.000000
   29        0.701251      0.701232   1.000000   1.000000
   30        1.035974      1.035959   1.000000   1.000000
   31        1.213934      1.213912   1.000000   1.000000
   32        1.271942      1.271911   1.000000   1.000000
   33        1.573282      1.573258   1.000000   1.000000
   34        1.656677      1.656658   1.000000   1.000000
   35        1.766648      1.766629   1.000000   1.000000
   36        2.031205      2.031184   1.000000   1.000000
   37        2.214476      2.214450   1.000000   1.000000
   38        2.503594      2.503574   1.000000   1.000000
   39        2.870558      2.870531   1.000000   1.000000
   40        3.261245      3.261208   1.000000   1.000000
   41        6.941460      6.941523   0.000000   0.000000
   42        7.475996      7.476034   0.000000   0.000000
   43        8.395193      8.395236   0.000000   0.000000
   44        8.507945      8.507975   0.000000   0.000000
   45        8.962187      8.962216   0.000000   0.000000
   46        9.135742      9.135767   0.000000   0.000000
   47        9.477375      9.477408   0.000000   0.000000
   48        9.694681      9.694728   0.000000   0.000000
   49        9.953671      9.953705   0.000000   0.000000
   50       10.038688     10.038691   0.000000   0.000000
   51       10.231882     10.231916   0.000000   0.000000
   52       10.408496     10.408519   0.000000   0.000000
   53       10.913873     10.913881   0.000000   0.000000
   54       10.997017     10.996956   0.000000   0.000000
   55       11.379644     11.379695   0.000000   0.000000
   56       11.802059     11.798819   0.000000   0.000000
 
  0.1428571E+00  0.1428571E+00 -0.6428295E-17  0.1020408E-01
    1      -16.406152    -16.406148   1.000000   1.000000
    2      -15.839920    -15.839919   1.000000   1.000000
    3      -14.618960    -14.618952   1.000000   1.000000
    4      -13.185221    -13.185220   1.000000   1.000000
    5      -12.850820    -12.850822   1.000000   1.000000
    6      -12.840674    -12.840671   1.000000   1.000000
    7      -12.162250    -12.162262   1.000000   1.000000
    8      -11.958055    -11.958068   1.000000   1.000000
    9      -11.853337    -11.853352   1.000000   1.000000
   10      -11.650056    -11.650069   1.000000   1.000000
   11       -8.827545     -8.827526   1.000000   1.000000
   12       -8.606389     -8.606361   1.000000   1.000000
   13       -8.520498     -8.520476   1.000000   1.000000
   14       -6.581728     -6.581713   1.000000   1.000000
   15       -5.401569     -5.401556   1.000000   1.000000
   16       -5.132952     -5.132939   1.000000   1.000000
   17       -4.573504     -4.573490   1.000000   1.000000
   18       -4.127939     -4.127928   1.000000   1.000000
   19       -3.568197     -3.568187   1.000000   1.000000
   20       -3.480193     -3.480187   1.000000   1.000000
   21       -2.851289     -2.851279   1.000000   1.000000
   22       -2.725459     -2.725444   1.000000   1.000000
   23       -2.579846     -2.579843   1.000000   1.000000
   24       -2.209886     -2.209884   1.000000   1.000000
   25       -0.421461     -0.421464   1.000000   1.000000
   26       -0.036945     -0.036972   1.000000   1.000000
   27        0.047539      0.047512   1.000000   1.000000
   28        0.445598      0.445583   1.000000   1.000000
   29        0.645991      0.645971   1.000000   1.000000
   30        0.956063      0.956041   1.000000   1.000000
   31        1.010811      1.010794   1.000000   1.000000
   32        1.221338      1.221318   1.000000   1.000000
   33        1.273693      1.273675   1.000000   1.000000
   34        1.662558      1.662538   1.000000   1.000000
   35        1.964040      1.964015   1.000000   1.000000
   36        2.201662      2.201637   1.000000   1.000000
   37        2.280189      2.280162   1.000000   1.000000
   38        2.649115      2.649088   1.000000   1.000000
   39        2.977057      2.977020   1.000000   1.000000
   40        3.323350      3.323320   1.000000   1.000000
   41        7.637625      7.637659   0.000000   0.000000
   42        7.827877      7.827927   0.000000   0.000000
   43        7.889648      7.889690   0.000000   0.000000
   44        8.069261      8.069310   0.000000   0.000000
   45        8.684031      8.684052   0.000000   0.000000
   46        8.934184      8.934230   0.000000   0.000000
   47        9.052274      9.052292   0.000000   0.000000
   48        9.379727      9.379761   0.000000   0.000000
   49        9.525761      9.525726   0.000000   0.000000
   50        9.973787      9.973783   0.000000   0.000000
   51       10.157662     10.157703   0.000000   0.000000
   52       10.684300     10.684308   0.000000   0.000000
   53       10.984106     10.984150   0.000000   0.000000
   54       11.101686     11.101713   0.000000   0.000000
   55       11.580284     11.584183   0.000000   0.000000
   56       11.984990     12.033900   0.000000   0.000000
 
  0.2857143E+00  0.1428571E+00  0.5868832E-16  0.2040816E-01
    1      -16.246960    -16.246957   1.000000   1.000000
    2      -15.841984    -15.841983   1.000000   1.000000
    3      -14.481016    -14.481009   1.000000   1.000000
    4      -13.590225    -13.590223   1.000000   1.000000
    5      -13.266776    -13.266772   1.000000   1.000000
    6      -12.888722    -12.888721   1.000000   1.000000
    7      -12.129687    -12.129700   1.000000   1.000000
    8      -11.931243    -11.931258   1.000000   1.000000
    9      -11.717246    -11.717261   1.000000   1.000000
   10      -11.632620    -11.632634   1.000000   1.000000
   11       -8.888810     -8.888786   1.000000   1.000000
   12       -8.237539     -8.237517   1.000000   1.000000
   13       -7.973111     -7.973091   1.000000   1.000000
   14       -6.740718     -6.740703   1.000000   1.000000
   15       -5.226427     -5.226412   1.000000   1.000000
   16       -5.172547     -5.172536   1.000000   1.000000
   17       -4.559228     -4.559214   1.000000   1.000000
   18       -4.256737     -4.256725   1.000000   1.000000
   19       -3.668580     -3.668571   1.000000   1.000000
   20       -3.420043     -3.420037   1.000000   1.000000
   21       -2.922406     -2.922393   1.000000   1.000000
   22       -2.645750     -2.645738   1.000000   1.000000
   23       -2.610197     -2.610192   1.000000   1.000000
   24       -2.248947     -2.248943   1.000000   1.000000
   25       -0.530700     -0.530706   1.000000   1.000000
   26       -0.187243     -0.187267   1.000000   1.000000
   27       -0.101988     -0.102016   1.000000   1.000000
   28        0.320169      0.320154   1.000000   1.000000
   29        0.662183      0.662164   1.000000   1.000000
   30        0.878947      0.878928   1.000000   1.000000
   31        1.060648      1.060627   1.000000   1.000000
   32        1.354755      1.354734   1.000000   1.000000
   33        1.506795      1.506775   1.000000   1.000000
   34        1.682637      1.682616   1.000000   1.000000
   35        1.960274      1.960250   1.000000   1.000000
   36        2.097465      2.097443   1.000000   1.000000
   37        2.231316      2.231289   1.000000   1.000000
   38        2.530973      2.530948   1.000000   1.000000
   39        2.865041      2.865007   1.000000   1.000000
   40        3.152959      3.152931   1.000000   1.000000
   41        7.425746      7.425801   0.000000   0.000000
   42        7.898500      7.898538   0.000000   0.000000
   43        7.971200      7.971241   0.000000   0.000000
   44        8.253652      8.253690   0.000000   0.000000
   45        8.496262      8.496298   0.000000   0.000000
   46        9.000905      9.000940   0.000000   0.000000
   47        9.115994      9.116024   0.000000   0.000000
   48        9.465839      9.465859   0.000000   0.000000
   49        9.815895      9.815876   0.000000   0.000000
   50       10.086813     10.086799   0.000000   0.000000
   51       10.503365     10.503373   0.000000   0.000000
   52       10.605192     10.605222   0.000000   0.000000
   53       10.903882     10.903908   0.000000   0.000000
   54       11.173760     11.173788   0.000000   0.000000
   55       11.572844     11.572990   0.000000   0.000000
   56       11.741733     11.741748   0.000000   0.000000
 
  0.4285714E+00  0.1428571E+00  0.1384080E-16  0.2040816E-01
    1      -16.035142    -16.035140   1.000000   1.000000
    2      -15.877255    -15.877254   1.000000   1.000000
    3      -14.458271    -14.458263   1.000000   1.000000
    4      -13.893734    -13.893731   1.000000   1.000000
    5      -13.495834    -13.495827   1.000000   1.000000
    6      -12.854647    -12.854647   1.000000   1.000000
    7      -12.139478    -12.139491   1.000000   1.000000
    8      -11.889227    -11.889242   1.000000   1.000000
    9      -11.714910    -11.714924   1.000000   1.000000
   10      -11.631307    -11.631321   1.000000   1.000000
   11       -8.924243     -8.924219   1.000000   1.000000
   12       -7.893818     -7.893800   1.000000   1.000000
   13       -7.755740     -7.755720   1.000000   1.000000
   14       -6.306598     -6.306583   1.000000   1.000000
   15       -5.599437     -5.599423   1.000000   1.000000
   16       -5.200636     -5.200623   1.000000   1.000000
   17       -4.516363     -4.516350   1.000000   1.000000
   18       -4.488000     -4.487987   1.000000   1.000000
   19       -3.573051     -3.573043   1.000000   1.000000
   20       -3.332528     -3.332519   1.000000   1.000000
   21       -2.975793     -2.975786   1.000000   1.000000
   22       -2.751244     -2.751236   1.000000   1.000000
   23       -2.462501     -2.462491   1.000000   1.000000
   24       -2.294010     -2.294005   1.000000   1.000000
   25       -0.585899     -0.585914   1.000000   1.000000
   26       -0.329257     -0.329270   1.000000   1.000000
   27       -0.240962     -0.240988   1.000000   1.000000
   28        0.236852      0.236831   1.000000   1.000000
   29        0.755929      0.755908   1.000000   1.000000
   30        0.970043      0.970020   1.000000   1.000000
   31        1.080818      1.080802   1.000000   1.000000
   32        1.292835      1.292810   1.000000   1.000000
   33        1.567100      1.567078   1.000000   1.000000
   34        1.679502      1.679481   1.000000   1.000000
   35        1.759575      1.759554   1.000000   1.000000
   36        2.054700      2.054679   1.000000   1.000000
   37        2.255455      2.255428   1.000000   1.000000
   38        2.520055      2.520033   1.000000   1.000000
   39        2.791191      2.791163   1.000000   1.000000
   40        3.157390      3.157357   1.000000   1.000000
   41        7.010853      7.010915   0.000000   0.000000
   42        7.849404      7.849442   0.000000   0.000000
   43        8.239043      8.239075   0.000000   0.000000
   44        8.432018      8.432056   0.000000   0.000000
   45        8.770893      8.770927   0.000000   0.000000
   46        9.044256      9.044288   0.000000   0.000000
   47        9.128798      9.128833   0.000000   0.000000
   48        9.708761      9.708785   0.000000   0.000000
   49        9.809484      9.809517   0.000000   0.000000
   50       10.196705     10.196705   0.000000   0.000000
   51       10.550818     10.550844   0.000000   0.000000
   52       10.739627     10.739612   0.000000   0.000000
   53       10.915916     10.915890   0.000000   0.000000
   54       11.154660     11.154698   0.000000   0.000000
   55       11.508709     11.508735   0.000000   0.000000
   56       11.701072     11.696932   0.000000   0.000000
 
 -0.4285714E+00  0.1428571E+00  0.9096733E-17  0.2040816E-01
    1      -16.054572    -16.054570   1.000000   1.000000
    2      -15.807395    -15.807394   1.000000   1.000000
    3      -14.548556    -14.548548   1.000000   1.000000
    4      -14.009701    -14.009696   1.000000   1.000000
    5      -13.473583    -13.473578   1.000000   1.000000
    6      -12.604128    -12.604132   1.000000   1.000000
    7      -12.159641    -12.159654   1.000000   1.000000
    8      -11.852943    -11.852959   1.000000   1.000000
    9      -11.786448    -11.786461   1.000000   1.000000
   10      -11.623464    -11.623478   1.000000   1.000000
   11       -9.326399     -9.326373   1.000000   1.000000
   12       -7.661205     -7.661185   1.000000   1.000000
   13       -7.474428     -7.474408   1.000000   1.000000
   14       -6.098243     -6.098231   1.000000   1.000000
   15       -5.753643     -5.753630   1.000000   1.000000
   16       -5.477961     -5.477945   1.000000   1.000000
   17       -4.696963     -4.696951   1.000000   1.000000
   18       -4.522233     -4.522219   1.000000   1.000000
   19       -3.402166     -3.402156   1.000000   1.000000
   20       -3.301011     -3.301003   1.000000   1.000000
   21       -2.982114     -2.982111   1.000000   1.000000
   22       -2.703798     -2.703787   1.000000   1.000000
   23       -2.466252     -2.466243   1.000000   1.000000
   24       -2.237924     -2.237915   1.000000   1.000000
   25       -0.591458     -0.591483   1.000000   1.000000
   26       -0.326987     -0.326990   1.000000   1.000000
   27       -0.234538     -0.234563   1.000000   1.000000
   28        0.400494      0.400469   1.000000   1.000000
   29        0.701146      0.701128   1.000000   1.000000
   30        0.995814      0.995796   1.000000   1.000000
   31        1.075662      1.075635   1.000000   1.000000
   32        1.191318      1.191301   1.000000   1.000000
   33        1.446619      1.446600   1.000000   1.000000
   34        1.688996      1.688976   1.000000   1.000000
   35        1.786654      1.786635   1.000000   1.000000
   36        2.093738      2.093712   1.000000   1.000000
   37        2.174424      2.174397   1.000000   1.000000
   38        2.514217      2.514198   1.000000   1.000000
   39        2.829301      2.829274   1.000000   1.000000
   40        3.206085      3.206048   1.000000   1.000000
   41        7.018660      7.018721   0.000000   0.000000
   42        7.549065      7.549101   0.000000   0.000000
   43        8.422696      8.422742   0.000000   0.000000
   44        8.673211      8.673240   0.000000   0.000000
   45        8.845362      8.845391   0.000000   0.000000
   46        8.942756      8.942791   0.000000   0.000000
   47        9.162733      9.162767   0.000000   0.000000
   48        9.772695      9.772720   0.000000   0.000000
   49        9.997204      9.997241   0.000000   0.000000
   50       10.028520     10.028556   0.000000   0.000000
   51       10.508884     10.508899   0.000000   0.000000
   52       10.689317     10.689333   0.000000   0.000000
   53       11.088180     11.088146   0.000000   0.000000
   54       11.201649     11.201645   0.000000   0.000000
   55       11.318305     11.318300   0.000000   0.000000
   56       11.424337     11.424399   0.000000   0.000000
 
 -0.2857143E+00  0.1428571E+00  0.3685868E-16  0.2040816E-01
    1      -16.244500    -16.244497   1.000000   1.000000
    2      -15.744121    -15.744121   1.000000   1.000000
    3      -14.658716    -14.658709   1.000000   1.000000
    4      -13.838463    -13.838457   1.000000   1.000000
    5      -13.269190    -13.269186   1.000000   1.000000
    6      -12.302688    -12.302699   1.000000   1.000000
    7      -12.184119    -12.184132   1.000000   1.000000
    8      -12.008578    -12.008593   1.000000   1.000000
    9      -11.622988    -11.623002   1.000000   1.000000
   10      -11.583576    -11.583588   1.000000   1.000000
   11       -9.911000     -9.910967   1.000000   1.000000
   12       -7.886355     -7.886333   1.000000   1.000000
   13       -7.048849     -7.048830   1.000000   1.000000
   14       -6.498269     -6.498256   1.000000   1.000000
   15       -6.071555     -6.071540   1.000000   1.000000
   16       -5.159128     -5.159116   1.000000   1.000000
   17       -4.716170     -4.716157   1.000000   1.000000
   18       -4.582340     -4.582327   1.000000   1.000000
   19       -3.425432     -3.425422   1.000000   1.000000
   20       -3.221121     -3.221113   1.000000   1.000000
   21       -2.853965     -2.853965   1.000000   1.000000
   22       -2.792260     -2.792246   1.000000   1.000000
   23       -2.411706     -2.411696   1.000000   1.000000
   24       -2.181208     -2.181200   1.000000   1.000000
   25       -0.577882     -0.577903   1.000000   1.000000
   26       -0.133182     -0.133195   1.000000   1.000000
   27        0.049477      0.049455   1.000000   1.000000
   28        0.495403      0.495387   1.000000   1.000000
   29        0.573527      0.573502   1.000000   1.000000
   30        0.858212      0.858184   1.000000   1.000000
   31        1.017946      1.017936   1.000000   1.000000
   32        1.250742      1.250724   1.000000   1.000000
   33        1.384483      1.384462   1.000000   1.000000
   34        1.679498      1.679477   1.000000   1.000000
   35        1.868155      1.868134   1.000000   1.000000
   36        2.090889      2.090865   1.000000   1.000000
   37        2.184273      2.184245   1.000000   1.000000
   38        2.564962      2.564941   1.000000   1.000000
   39        2.941388      2.941355   1.000000   1.000000
   40        3.213054      3.213019   1.000000   1.000000
   41        7.310298      7.310334   0.000000   0.000000
   42        7.512385      7.512439   0.000000   0.000000
   43        8.168966      8.169018   0.000000   0.000000
   44        8.536648      8.536680   0.000000   0.000000
   45        8.616004      8.616037   0.000000   0.000000
   46        9.150582      9.150618   0.000000   0.000000
   47        9.215407      9.215444   0.000000   0.000000
   48        9.453557      9.453593   0.000000   0.000000
   49        9.866304      9.866338   0.000000   0.000000
   50       10.054761     10.054729   0.000000   0.000000
   51       10.475294     10.475320   0.000000   0.000000
   52       10.804365     10.804361   0.000000   0.000000
   53       10.829854     10.829883   0.000000   0.000000
   54       11.203717     11.203748   0.000000   0.000000
   55       11.295532     11.295511   0.000000   0.000000
   56       11.633891     11.633170   0.000000   0.000000
 