       N       E                     dE             d eps       ncg     rms          rms(c)
DAV:   1     0.453450365632E+03    0.45345E+03   -0.39204E+04 13440   0.130E+03
DAV:   2    -0.973825400473E+02   -0.55083E+03   -0.52532E+03 17112   0.291E+02
DAV:   3    -0.135597781977E+03   -0.38215E+02   -0.37851E+02 16848   0.809E+01
DAV:   4    -0.136361749966E+03   -0.76397E+00   -0.76040E+00 17560   0.120E+01
DAV:   5    -0.136382293690E+03   -0.20544E-01   -0.20522E-01 16504   0.186E+00    0.422E+01
DAV:   6    -0.117179164901E+03    0.19203E+02   -0.64313E+01 15952   0.305E+01    0.207E+01
DAV:   7    -0.119845971961E+03   -0.26668E+01   -0.93817E+00 16240   0.112E+01    0.696E+00
DAV:   8    -0.120286130955E+03   -0.44016E+00   -0.96341E-01 16464   0.403E+00    0.414E+00
DAV:   9    -0.120295489246E+03   -0.93583E-02   -0.83980E-02 16176   0.146E+00    0.204E+00
DAV:  10    -0.120294140065E+03    0.13492E-02   -0.23345E-02 17912   0.793E-01    0.432E-01
DAV:  11    -0.120296452187E+03   -0.23121E-02   -0.52904E-03 16072   0.372E-01    0.252E-01
DAV:  12    -0.120296901091E+03   -0.44890E-03   -0.60148E-04 17608   0.127E-01    0.153E-01
DAV:  13    -0.120297140928E+03   -0.23984E-03   -0.22081E-04 15960   0.710E-02    0.588E-02
DAV:  14    -0.120297190235E+03   -0.49307E-04   -0.30279E-05 13968   0.269E-02    0.184E-02
DAV:  15    -0.120297200733E+03   -0.10499E-04   -0.10072E-05 10752   0.154E-02    0.996E-03
DAV:  16    -0.120297204059E+03   -0.33251E-05   -0.40677E-06  9840   0.839E-03
   1 F= -.12029720E+03 E0= -.12029720E+03  d E =0.000000E+00  mag=    -0.0005
