 running on    8 total cores
 distrk:  each k-point on    8 cores,    1 groups
 distr:  one band on    1 cores,    8 groups
 using from now: INCAR     
 vasp.6.1.2 22Jul20 (build Mar 20 2021 11:25:07) complex                        
  
 POSCAR found type information on POSCAR LiP O 
 POSCAR found :  3 types and      16 ions
 scaLAPACK will be used
 -----------------------------------------------------------------------------
|                                                                             |
|           W    W    AA    RRRRR   N    N  II  N    N   GGGG   !!!           |
|           W    W   A  A   R    R  NN   N  II  NN   N  G    G  !!!           |
|           W    W  A    A  R    R  N N  N  II  N N  N  G       !!!           |
|           W WW W  AAAAAA  RRRRR   N  N N  II  N  N N  G  GGG   !            |
|           WW  WW  A    A  R   R   N   NN  II  N   NN  G    G                |
|           W    W  A    A  R    R  N    N  II  N    N   GGGG   !!!           |
|                                                                             |
|     The value NCORE = 6 specified in the INCAR file was overwritten,        |
|     because it was not compatible with the 8 processes available:           |
|     NCORE = 1                                                               |
|     was used instead, please check that this makes sense for your           |
|     machine.                                                                |
|                                                                             |
 -----------------------------------------------------------------------------

 -----------------------------------------------------------------------------
|                                                                             |
|           W    W    AA    RRRRR   N    N  II  N    N   GGGG   !!!           |
|           W    W   A  A   R    R  NN   N  II  NN   N  G    G  !!!           |
|           W    W  A    A  R    R  N N  N  II  N N  N  G       !!!           |
|           W WW W  AAAAAA  RRRRR   N  N N  II  N  N N  G  GGG   !            |
|           WW  WW  A    A  R   R   N   NN  II  N   NN  G    G                |
|           W    W  A    A  R    R  N    N  II  N    N   GGGG   !!!           |
|                                                                             |
|     For optimal performance we recommend to set                             |
|       NCORE = 4 - approx SQRT(number of cores).                             |
|     NCORE specifies how many cores store one orbital (NPAR=cpu/NCORE).      |
|     This setting can greatly improve the performance of VASP for DFT.       |
|     The default, NCORE=1 might be grossly inefficient on modern             |
|     multi-core architectures or massively parallel machines. Do your        |
|     own testing!!!!                                                         |
|     Unfortunately you need to use the default for GW and RPA                |
|     calculations (for HF NCORE is supported but not extensively tested      |
|     yet).                                                                   |
|                                                                             |
 -----------------------------------------------------------------------------

 LDA part: xc-table for Pade appr. of Perdew
 generate k-points for:    7    6    5
 POSCAR, INCAR and KPOINTS ok, starting setup
 FFT: planning ...
 WAVECAR not read
 entering main loop
       N       E                     dE             d eps       ncg     rms          rms(c)
DAV:   1     0.601009157589E+03    0.60101E+03   -0.36437E+04 14784   0.142E+03
DAV:   2    -0.452581452734E+02   -0.64627E+03   -0.61016E+03 16992   0.373E+02
DAV:   3    -0.103195946386E+03   -0.57938E+02   -0.57603E+02 20416   0.104E+02
DAV:   4    -0.108573333667E+03   -0.53774E+01   -0.53444E+01 25256   0.264E+01
DAV:   5    -0.109052080369E+03   -0.47875E+00   -0.47859E+00 20792   0.544E+00    0.372E+01
RMM:   6    -0.992162138259E+02    0.98359E+01   -0.38154E+01 16122   0.218E+01    0.148E+01
RMM:   7    -0.100267217046E+03   -0.10510E+01   -0.38340E+00 21255   0.751E+00    0.792E+00
RMM:   8    -0.100469084798E+03   -0.20187E+00   -0.86775E-01 23664   0.390E+00    0.397E+00
RMM:   9    -0.100542295470E+03   -0.73211E-01   -0.31625E-01 23970   0.280E+00    0.776E-01
RMM:  10    -0.100570496926E+03   -0.28201E-01   -0.22124E-01 27512   0.161E+00    0.356E-01
RMM:  11    -0.100584391254E+03   -0.13894E-01   -0.96840E-02 28218   0.987E-01    0.279E-01
RMM:  12    -0.100590398169E+03   -0.60069E-02   -0.38711E-02 28657   0.609E-01    0.166E-01
RMM:  13    -0.100592508536E+03   -0.21104E-02   -0.14766E-02 27855   0.409E-01    0.756E-02
RMM:  14    -0.100593435113E+03   -0.92658E-03   -0.75331E-03 28429   0.284E-01    0.304E-02
RMM:  15    -0.100593795504E+03   -0.36039E-03   -0.32539E-03 27868   0.176E-01    0.267E-02
RMM:  16    -0.100593947458E+03   -0.15195E-03   -0.14400E-03 27480   0.116E-01    0.166E-02
RMM:  17    -0.100594017922E+03   -0.70464E-04   -0.59673E-04 26856   0.804E-02    0.126E-02
RMM:  18    -0.100594047534E+03   -0.29611E-04   -0.28623E-04 26132   0.529E-02    0.123E-02
RMM:  19    -0.100594061793E+03   -0.14260E-04   -0.10684E-04 23041   0.370E-02    0.210E-02
RMM:  20    -0.100594062511E+03   -0.71796E-06   -0.52717E-05 22730   0.296E-02
   1 F= -.10059406E+03 E0= -.10059406E+03  d E =0.000000E+00  mag=    -0.0001
