    6    6    1    2
  0.1411328E+02  0.5316087E-09  0.4832806E-09  0.4832806E-09  0.5000000E-15
  1.000000000000000E-004
  CAR 
 unknown system                          
     32    282     22
 
  0.0000000E+00  0.0000000E+00  0.0000000E+00  0.1785714E-02
    1      -20.157638    -20.157572   1.000000   1.000000
    2      -18.014184    -18.014060   1.000000   1.000000
    3      -14.398899    -14.398790   1.000000   1.000000
    4      -12.464147    -12.464211   1.000000   1.000000
    5      -11.752788    -11.752776   1.000000   1.000000
    6       -6.978839     -6.978772   1.000000   1.000000
    7       -6.015744     -6.015656   1.000000   1.000000
    8       -5.736181     -5.736166   1.000000   1.000000
    9       -3.079825     -3.079862   1.000000   1.000000
   10       -2.347196     -2.347192   1.000000   1.000000
   11       -1.332823     -1.332783   1.000000   1.000000
   12       -1.214463     -1.214414   1.000000   1.000000
   13       -0.309357     -0.309459   1.000000   1.000000
   14        0.206744      0.206687   1.000000   1.000000
   15        0.840939      0.840773   1.000000   1.000000
   16        1.570049      1.569856   1.000000   1.000000
   17        5.197919      5.197859   0.000003   0.000004
   18        6.569711      6.569603   0.000000   0.000000
   19        7.371447      7.371414   0.000000   0.000000
   20        9.058953      9.058302   0.000000   0.000000
   21        9.743474      9.743159   0.000000   0.000000
   22       10.620678     10.617034   0.000000   0.000000
 
  0.1428571E+00 -0.1369075E-16  0.4394476E-16  0.3571429E-02
    1      -20.142384    -20.142317   1.000000   1.000000
    2      -18.018765    -18.018641   1.000000   1.000000
    3      -14.391118    -14.391013   1.000000   1.000000
    4      -12.947995    -12.948033   1.000000   1.000000
    5      -11.191090    -11.191107   1.000000   1.000000
    6       -6.957454     -6.957385   1.000000   1.000000
    7       -5.987068     -5.986979   1.000000   1.000000
    8       -5.782425     -5.782401   1.000000   1.000000
    9       -3.055113     -3.055146   1.000000   1.000000
   10       -2.381151     -2.381155   1.000000   1.000000
   11       -1.645478     -1.645451   1.000000   1.000000
   12       -1.127859     -1.127819   1.000000   1.000000
   13       -0.235148     -0.235241   1.000000   1.000000
   14        0.142811      0.142752   1.000000   1.000000
   15        0.824426      0.824250   1.000000   1.000000
   16        1.543186      1.543010   1.000000   1.000000
   17        5.427555      5.427530  -0.000001  -0.000001
   18        6.615592      6.615503   0.000000   0.000000
   19        7.441339      7.441195   0.000000   0.000000
   20        9.101059      9.100685   0.000000   0.000000
   21        9.704092      9.703561   0.000000   0.000000
   22       10.349391     10.345118   0.000000   0.000000
 
  0.2857143E+00 -0.5721901E-17  0.1071879E-16  0.3571429E-02
    1      -20.107263    -20.107194   1.000000   1.000000
    2      -18.029479    -18.029357   1.000000   1.000000
    3      -14.358968    -14.358867   1.000000   1.000000
    4      -13.515915    -13.515944   1.000000   1.000000
    5      -10.439818    -10.439852   1.000000   1.000000
    6       -6.906523     -6.906448   1.000000   1.000000
    7       -5.942922     -5.942844   1.000000   1.000000
    8       -5.875288     -5.875222   1.000000   1.000000
    9       -3.010014     -3.010041   1.000000   1.000000
   10       -2.585646     -2.585700   1.000000   1.000000
   11       -2.027551     -2.027525   1.000000   1.000000
   12       -1.033034     -1.033000   1.000000   1.000000
   13       -0.125374     -0.125464   1.000000   1.000000
   14        0.039648      0.039587   1.000000   1.000000
   15        0.766506      0.766328   1.000000   1.000000
   16        1.434010      1.433860   1.000000   1.000000
   17        5.828589      5.828578   0.000000   0.000000
   18        6.866288      6.866191   0.000000   0.000000
   19        7.872871      7.872647   0.000000   0.000000
   20        8.773575      8.773546   0.000000   0.000000
   21        9.486576      9.486405   0.000000   0.000000
   22       10.301745     10.294800   0.000000   0.000000
 
  0.4285714E+00 -0.5534859E-17  0.8241913E-16  0.3571429E-02
    1      -20.078254    -20.078183   1.000000   1.000000
    2      -18.038565    -18.038444   1.000000   1.000000
    3      -14.292157    -14.292052   1.000000   1.000000
    4      -13.880828    -13.880861   1.000000   1.000000
    5       -9.938371     -9.938418   1.000000   1.000000
    6       -6.862148     -6.862068   1.000000   1.000000
    7       -6.014727     -6.014643   1.000000   1.000000
    8       -5.858577     -5.858480   1.000000   1.000000
    9       -3.060490     -3.060553   1.000000   1.000000
   10       -2.823523     -2.823585   1.000000   1.000000
   11       -2.127258     -2.127222   1.000000   1.000000
   12       -0.944448     -0.944414   1.000000   1.000000
   13       -0.135689     -0.135796   1.000000   1.000000
   14       -0.015994     -0.016055   1.000000   1.000000
   15        0.860261      0.860079   1.000000   1.000000
   16        1.204063      1.203952   1.000000   1.000000
   17        6.084329      6.084222   0.000000   0.000000
   18        7.330489      7.330429   0.000000   0.000000
   19        8.212859      8.212806   0.000000   0.000000
   20        8.742584      8.742464   0.000000   0.000000
   21        8.942240      8.942283   0.000000   0.000000
   22       10.184493     10.183310   0.000000   0.000000
 
  0.9323575E-17  0.1250000E+00  0.4272594E-16  0.3571429E-02
    1      -20.093560    -20.093492   1.000000   1.000000
    2      -18.110625    -18.110506   1.000000   1.000000
    3      -14.502137    -14.502035   1.000000   1.000000
    4      -12.474609    -12.474670   1.000000   1.000000
    5      -11.520493    -11.520475   1.000000   1.000000
    6       -7.047596     -7.047528   1.000000   1.000000
    7       -6.052208     -6.052137   1.000000   1.000000
    8       -5.624788     -5.624753   1.000000   1.000000
    9       -3.121221     -3.121256   1.000000   1.000000
   10       -2.353725     -2.353724   1.000000   1.000000
   11       -1.389452     -1.389419   1.000000   1.000000
   12       -1.240620     -1.240576   1.000000   1.000000
   13       -0.266637     -0.266732   1.000000   1.000000
   14        0.111264      0.111201   1.000000   1.000000
   15        0.749788      0.749615   1.000000   1.000000
   16        1.566709      1.566517   1.000000   1.000000
   17        5.335583      5.335548  -0.000000  -0.000000
   18        6.740704      6.740599   0.000000   0.000000
   19        7.488685      7.488648   0.000000   0.000000
   20        9.057975      9.057869   0.000000   0.000000
   21        9.679550      9.679622   0.000000   0.000000
   22       10.716048     10.799151   0.000000   0.000000
 
  0.1428571E+00  0.1250000E+00  0.4503734E-16  0.3571429E-02
    1      -20.066961    -20.066891   1.000000   1.000000
    2      -18.122569    -18.122451   1.000000   1.000000
    3      -14.546992    -14.546902   1.000000   1.000000
    4      -12.929177    -12.929201   1.000000   1.000000
    5      -10.877818    -10.877832   1.000000   1.000000
    6       -7.063932     -7.063859   1.000000   1.000000
    7       -6.024112     -6.024039   1.000000   1.000000
    8       -5.645601     -5.645551   1.000000   1.000000
    9       -3.081565     -3.081594   1.000000   1.000000
   10       -2.442754     -2.442773   1.000000   1.000000
   11       -1.720536     -1.720514   1.000000   1.000000
   12       -1.176850     -1.176823   1.000000   1.000000
   13       -0.186636     -0.186720   1.000000   1.000000
   14        0.029858      0.029801   1.000000   1.000000
   15        0.689831      0.689647   1.000000   1.000000
   16        1.559019      1.558849   1.000000   1.000000
   17        5.550186      5.550177  -0.000000  -0.000000
   18        6.893107      6.893022   0.000000   0.000000
   19        7.731449      7.731279   0.000000   0.000000
   20        9.050201      9.049968   0.000000   0.000000
   21        9.563170      9.562668   0.000000   0.000000
   22       10.306183     10.306255   0.000000   0.000000
 
  0.2857143E+00  0.1250000E+00  0.6732251E-16  0.3571429E-02
    1      -20.031621    -20.031550   1.000000   1.000000
    2      -18.135168    -18.135050   1.000000   1.000000
    3      -14.543731    -14.543651   1.000000   1.000000
    4      -13.402131    -13.402141   1.000000   1.000000
    5      -10.159282    -10.159314   1.000000   1.000000
    6       -7.102377     -7.102296   1.000000   1.000000
    7       -6.001915     -6.001838   1.000000   1.000000
    8       -5.662190     -5.662112   1.000000   1.000000
    9       -3.064236     -3.064270   1.000000   1.000000
   10       -2.672001     -2.672058   1.000000   1.000000
   11       -2.036780     -2.036761   1.000000   1.000000
   12       -1.078001     -1.077978   1.000000   1.000000
   13       -0.106186     -0.106275   1.000000   1.000000
   14       -0.037449     -0.037498   1.000000   1.000000
   15        0.646359      0.646184   1.000000   1.000000
   16        1.470424      1.470271   1.000000   1.000000
   17        5.884859      5.884831   0.000000   0.000000
   18        7.233799      7.233711   0.000000   0.000000
   19        8.077889      8.077693   0.000000   0.000000
   20        8.818736      8.818709   0.000000   0.000000
   21        9.233716      9.233601   0.000000   0.000000
   22       10.311723     10.307830   0.000000   0.000000
 
  0.4285714E+00  0.1250000E+00  0.1601422E-15  0.3571429E-02
    1      -20.014603    -20.014530   1.000000   1.000000
    2      -18.138322    -18.138205   1.000000   1.000000
    3      -14.461518    -14.461434   1.000000   1.000000
    4      -13.709135    -13.709151   1.000000   1.000000
    5       -9.762560     -9.762602   1.000000   1.000000
    6       -7.132181     -7.132093   1.000000   1.000000
    7       -6.014805     -6.014719   1.000000   1.000000
    8       -5.661241     -5.661148   1.000000   1.000000
    9       -3.108083     -3.108151   1.000000   1.000000
   10       -2.834230     -2.834283   1.000000   1.000000
   11       -2.140745     -2.140723   1.000000   1.000000
   12       -0.982321     -0.982292   1.000000   1.000000
   13       -0.157909     -0.158006   1.000000   1.000000
   14       -0.024958     -0.025020   1.000000   1.000000
   15        0.824004      0.823838   1.000000   1.000000
   16        1.241266      1.241133   1.000000   1.000000
   17        6.146010      6.145900   0.000000   0.000000
   18        7.372521      7.372493   0.000000   0.000000
   19        8.239919      8.239794   0.000000   0.000000
   20        8.713083      8.713184   0.000000   0.000000
   21        9.154774      9.154678   0.000000   0.000000
   22       10.133748     10.132617   0.000000   0.000000
 
 -0.4285714E+00  0.1250000E+00 -0.4693471E-16  0.3571429E-02
    1      -20.029598    -20.029526   1.000000   1.000000
    2      -18.129302    -18.129184   1.000000   1.000000
    3      -14.357317    -14.357203   1.000000   1.000000
    4      -13.747369    -13.747416   1.000000   1.000000
    5       -9.919485     -9.919518   1.000000   1.000000
    6       -7.090355     -7.090276   1.000000   1.000000
    7       -6.029322     -6.029241   1.000000   1.000000
    8       -5.665081     -5.664993   1.000000   1.000000
    9       -3.032765     -3.032800   1.000000   1.000000
   10       -2.824106     -2.824180   1.000000   1.000000
   11       -2.138706     -2.138681   1.000000   1.000000
   12       -1.005366     -1.005335   1.000000   1.000000
   13       -0.137270     -0.137367   1.000000   1.000000
   14        0.009919      0.009860   1.000000   1.000000
   15        0.979537      0.979351   1.000000   1.000000
   16        1.165908      1.165782   1.000000   1.000000
   17        6.024995      6.024925   0.000000   0.000000
   18        7.229248      7.229177   0.000000   0.000000
   19        8.141530      8.141528   0.000000   0.000000
   20        8.638973      8.638801   0.000000   0.000000
   21        9.308258      9.308253   0.000000   0.000000
   22       10.374091     10.371024   0.000000   0.000000
 
 -0.2857143E+00  0.1250000E+00 -0.7967144E-17  0.3571429E-02
    1      -20.064456    -20.064386   1.000000   1.000000
    2      -18.115571    -18.115452   1.000000   1.000000
    3      -14.372348    -14.372230   1.000000   1.000000
    4      -13.393212    -13.393266   1.000000   1.000000
    5      -10.508387    -10.508402   1.000000   1.000000
    6       -7.044647     -7.044578   1.000000   1.000000
    7       -6.030571     -6.030500   1.000000   1.000000
    8       -5.661967     -5.661900   1.000000   1.000000
    9       -3.073136     -3.073166   1.000000   1.000000
   10       -2.497831     -2.497859   1.000000   1.000000
   11       -1.994611     -1.994595   1.000000   1.000000
   12       -1.109216     -1.109189   1.000000   1.000000
   13       -0.140565     -0.140650   1.000000   1.000000
   14        0.058880      0.058823   1.000000   1.000000
   15        0.905252      0.905074   1.000000   1.000000
   16        1.411662      1.411493   1.000000   1.000000
   17        5.758440      5.758448   0.000000   0.000000
   18        6.755767      6.755687   0.000000   0.000000
   19        7.868654      7.868440   0.000000   0.000000
   20        8.736893      8.736841   0.000000   0.000000
   21        9.805291      9.805246   0.000000   0.000000
   22       10.323395     10.317004   0.000000   0.000000
 
 -0.1428571E+00  0.1250000E+00  0.4984433E-17  0.3571429E-02
    1      -20.092450    -20.092382   1.000000   1.000000
    2      -18.107593    -18.107473   1.000000   1.000000
    3      -14.437995    -14.437885   1.000000   1.000000
    4      -12.804462    -12.804521   1.000000   1.000000
    5      -11.224095    -11.224088   1.000000   1.000000
    6       -7.039454     -7.039387   1.000000   1.000000
    7       -6.046798     -6.046727   1.000000   1.000000
    8       -5.635798     -5.635756   1.000000   1.000000
    9       -3.122653     -3.122688   1.000000   1.000000
   10       -2.348614     -2.348608   1.000000   1.000000
   11       -1.577064     -1.577037   1.000000   1.000000
   12       -1.207221     -1.207193   1.000000   1.000000
   13       -0.219998     -0.220084   1.000000   1.000000
   14        0.110910      0.110848   1.000000   1.000000
   15        0.843887      0.843714   1.000000   1.000000
   16        1.534492      1.534301   1.000000   1.000000
   17        5.446765      5.446750   0.000000   0.000000
   18        6.667336      6.667258   0.000000   0.000000
   19        7.448371      7.448254   0.000000   0.000000
   20        9.118398      9.118013   0.000000   0.000000
   21        9.686984      9.686122   0.000000   0.000000
   22       10.586023     10.585344   0.000000   0.000000
 
  0.1864715E-16  0.2500000E+00  0.8545188E-16  0.3571429E-02
    1      -19.908300    -19.908227   1.000000   1.000000
    2      -18.373944    -18.373836   1.000000   1.000000
    3      -14.699995    -14.699902   1.000000   1.000000
    4      -12.508153    -12.508210   1.000000   1.000000
    5      -10.964757    -10.964724   1.000000   1.000000
    6       -7.275071     -7.275001   1.000000   1.000000
    7       -6.019778     -6.019709   1.000000   1.000000
    8       -5.441614     -5.441560   1.000000   1.000000
    9       -3.206078     -3.206108   1.000000   1.000000
   10       -2.390736     -2.390741   1.000000   1.000000
   11       -1.506388     -1.506376   1.000000   1.000000
   12       -1.409351     -1.409337   1.000000   1.000000
   13       -0.228274     -0.228355   1.000000   1.000000
   14       -0.028762     -0.028820   1.000000   1.000000
   15        0.666489      0.666312   1.000000   1.000000
   16        1.553686      1.553494   1.000000   1.000000
   17        5.535037      5.535042   0.000000   0.000000
   18        7.191254      7.191160   0.000000   0.000000
   19        7.793660      7.793617   0.000000   0.000000
   20        9.144470      9.144016   0.000000   0.000000
   21        9.694004      9.692431   0.000000   0.000000
   22       10.372792     10.372474   0.000000   0.000000
 
  0.1428571E+00  0.2500000E+00  0.7388549E-16  0.3571429E-02
    1      -19.875760    -19.875685   1.000000   1.000000
    2      -18.393391    -18.393285   1.000000   1.000000
    3      -14.743986    -14.743902   1.000000   1.000000
    4      -12.849717    -12.849745   1.000000   1.000000
    5      -10.379146    -10.379141   1.000000   1.000000
    6       -7.387244     -7.387168   1.000000   1.000000
    7       -5.969961     -5.969885   1.000000   1.000000
    8       -5.445452     -5.445390   1.000000   1.000000
    9       -3.158760     -3.158788   1.000000   1.000000
   10       -2.538176     -2.538203   1.000000   1.000000
   11       -1.764982     -1.764975   1.000000   1.000000
   12       -1.379184     -1.379190   1.000000   1.000000
   13       -0.221555     -0.221628   1.000000   1.000000
   14       -0.006848     -0.006884   1.000000   1.000000
   15        0.620802      0.620612   1.000000   1.000000
   16        1.570173      1.569998   1.000000   1.000000
   17        5.666350      5.666357   0.000000   0.000000
   18        7.358581      7.358515   0.000000   0.000000
   19        8.201370      8.201200   0.000000   0.000000
   20        8.849309      8.849195   0.000000   0.000000
   21        9.665776      9.665380   0.000000   0.000000
   22       10.170544     10.171651   0.000000   0.000000
 
  0.2857143E+00  0.2500000E+00  0.9617067E-16  0.3571429E-02
    1      -19.848050    -19.847972   1.000000   1.000000
    2      -18.403947    -18.403843   1.000000   1.000000
    3      -14.719383    -14.719302   1.000000   1.000000
    4      -13.233634    -13.233655   1.000000   1.000000
    5       -9.720936     -9.720951   1.000000   1.000000
    6       -7.587047     -7.586961   1.000000   1.000000
    7       -5.911251     -5.911164   1.000000   1.000000
    8       -5.444356     -5.444282   1.000000   1.000000
    9       -3.161889     -3.161932   1.000000   1.000000
   10       -2.717052     -2.717086   1.000000   1.000000
   11       -2.041316     -2.041324   1.000000   1.000000
   12       -1.232190     -1.232188   1.000000   1.000000
   13       -0.187467     -0.187543   1.000000   1.000000
   14       -0.024956     -0.024996   1.000000   1.000000
   15        0.620947      0.620772   1.000000   1.000000
   16        1.514647      1.514481   1.000000   1.000000
   17        5.965530      5.965505   0.000000   0.000000
   18        7.548147      7.548076   0.000000   0.000000
   19        8.233231      8.233132   0.000000   0.000000
   20        8.722591      8.722526   0.000000   0.000000
   21        9.412639      9.412498   0.000000   0.000000
   22       10.438413     10.423285   0.000000   0.000000
 
  0.4285714E+00  0.2500000E+00  0.8128615E-16  0.3571429E-02
    1      -19.847346    -19.847268   1.000000   1.000000
    2      -18.396589    -18.396484   1.000000   1.000000
    3      -14.620664    -14.620573   1.000000   1.000000
    4      -13.480301    -13.480333   1.000000   1.000000
    5       -9.425500     -9.425522   1.000000   1.000000
    6       -7.698171     -7.698082   1.000000   1.000000
    7       -5.884336     -5.884244   1.000000   1.000000
    8       -5.443771     -5.443690   1.000000   1.000000
    9       -3.119618     -3.119667   1.000000   1.000000
   10       -2.870902     -2.870940   1.000000   1.000000
   11       -2.161547     -2.161559   1.000000   1.000000
   12       -1.142193     -1.142179   1.000000   1.000000
   13       -0.188085     -0.188169   1.000000   1.000000
   14       -0.003397     -0.003443   1.000000   1.000000
   15        0.850393      0.850232   1.000000   1.000000
   16        1.306089      1.305926   1.000000   1.000000
   17        6.194525      6.194446   0.000000   0.000000
   18        7.381963      7.381957   0.000000   0.000000
   19        8.144626      8.144551   0.000000   0.000000
   20        8.738362      8.738335   0.000000   0.000000
   21        9.540071      9.539990   0.000000   0.000000
   22       10.418967     10.417499   0.000000   0.000000
 
 -0.4285714E+00  0.2500000E+00  0.6186204E-16  0.3571429E-02
    1      -19.873944    -19.873867   1.000000   1.000000
    2      -18.377343    -18.377237   1.000000   1.000000
    3      -14.527488    -14.527377   1.000000   1.000000
    4      -13.470484    -13.470540   1.000000   1.000000
    5       -9.738873     -9.738876   1.000000   1.000000
    6       -7.545091     -7.545021   1.000000   1.000000
    7       -5.904446     -5.904360   1.000000   1.000000
    8       -5.443201     -5.443120   1.000000   1.000000
    9       -3.099728     -3.099756   1.000000   1.000000
   10       -2.800223     -2.800271   1.000000   1.000000
   11       -2.132165     -2.132173   1.000000   1.000000
   12       -1.189843     -1.189829   1.000000   1.000000
   13       -0.173275     -0.173356   1.000000   1.000000
   14        0.049171      0.049127   1.000000   1.000000
   15        1.057204      1.057050   1.000000   1.000000
   16        1.217616      1.217428   1.000000   1.000000
   17        5.968342      5.968312   0.000000   0.000000
   18        7.344446      7.344396   0.000000   0.000000
   19        8.015809      8.015788   0.000000   0.000000
   20        8.767665      8.767480   0.000000   0.000000
   21        9.627870      9.627572   0.000000   0.000000
   22       10.625676     10.607903   0.000000   0.000000
 
 -0.2857143E+00  0.2500000E+00  0.2789556E-16  0.3571429E-02
    1      -19.906692    -19.906618   1.000000   1.000000
    2      -18.361550    -18.361442   1.000000   1.000000
    3      -14.541470    -14.541358   1.000000   1.000000
    4      -13.136681    -13.136745   1.000000   1.000000
    5      -10.352501    -10.352483   1.000000   1.000000
    6       -7.359821     -7.359760   1.000000   1.000000
    7       -5.960497     -5.960422   1.000000   1.000000
    8       -5.440433     -5.440363   1.000000   1.000000
    9       -3.213375     -3.213411   1.000000   1.000000
   10       -2.459047     -2.459047   1.000000   1.000000
   11       -1.947649     -1.947661   1.000000   1.000000
   12       -1.277933     -1.277922   1.000000   1.000000
   13       -0.170247     -0.170329   1.000000   1.000000
   14        0.017693      0.017648   1.000000   1.000000
   15        0.932336      0.932162   1.000000   1.000000
   16        1.444726      1.444535   1.000000   1.000000
   17        5.755379      5.755392   0.000000   0.000000
   18        6.934985      6.934946   0.000000   0.000000
   19        8.127991      8.127807   0.000000   0.000000
   20        8.777497      8.777420   0.000000   0.000000
   21        9.831865      9.828251   0.000000   0.000000
   22       10.586788     10.595835   0.000000   0.000000
 
 -0.1428571E+00  0.2500000E+00 -0.5406075E-17  0.3571429E-02
    1      -19.921697    -19.921625   1.000000   1.000000
    2      -18.360260    -18.360151   1.000000   1.000000
    3      -14.619787    -14.619684   1.000000   1.000000
    4      -12.656517    -12.656588   1.000000   1.000000
    5      -10.918401    -10.918363   1.000000   1.000000
    6       -7.268300     -7.268237   1.000000   1.000000
    7       -6.015179     -6.015111   1.000000   1.000000
    8       -5.438275     -5.438218   1.000000   1.000000
    9       -3.244119     -3.244154   1.000000   1.000000
   10       -2.344063     -2.344054   1.000000   1.000000
   11       -1.619711     -1.619704   1.000000   1.000000
   12       -1.326838     -1.326822   1.000000   1.000000
   13       -0.166608     -0.166682   1.000000   1.000000
   14       -0.054393     -0.054463   1.000000   1.000000
   15        0.751955      0.751784   1.000000   1.000000
   16        1.546459      1.546258   1.000000   1.000000
   17        5.600478      5.600490   0.000000   0.000000
   18        6.966937      6.966870   0.000000   0.000000
   19        7.756665      7.756587   0.000000   0.000000
   20        9.174018      9.173589   0.000000   0.000000
   21        9.686062      9.684486   0.000000   0.000000
   22       10.622284     10.612153   0.000000   0.000000
 
 -0.1366264E-16  0.3750000E+00  0.8654446E-16  0.3571429E-02
    1      -19.629711    -19.629627   1.000000   1.000000
    2      -18.730186    -18.730096   1.000000   1.000000
    3      -14.852452    -14.852364   1.000000   1.000000
    4      -12.544964    -12.545019   1.000000   1.000000
    5      -10.365383    -10.365337   1.000000   1.000000
    6       -7.602439     -7.602368   1.000000   1.000000
    7       -5.878699     -5.878616   1.000000   1.000000
    8       -5.353096     -5.353042   1.000000   1.000000
    9       -3.252734     -3.252760   1.000000   1.000000
   10       -2.453481     -2.453492   1.000000   1.000000
   11       -1.778950     -1.778973   1.000000   1.000000
   12       -1.506728     -1.506741   1.000000   1.000000
   13       -0.271539     -0.271608   1.000000   1.000000
   14       -0.023346     -0.023380   1.000000   1.000000
   15        0.646962      0.646776   1.000000   1.000000
   16        1.545338      1.545145   1.000000   1.000000
   17        5.644758      5.644778   0.000000   0.000000
   18        7.728891      7.728824   0.000000   0.000000
   19        8.213185      8.213140   0.000000   0.000000
   20        9.026828      9.026659   0.000000   0.000000
   21        9.792168      9.791876   0.000000   0.000000
   22       10.166441     10.162826   0.000000   0.000000
 
  0.1428571E+00  0.3750000E+00  0.8161433E-16  0.3571429E-02
    1      -19.601043    -19.600956   1.000000   1.000000
    2      -18.750059    -18.749970   1.000000   1.000000
    3      -14.862390    -14.862305   1.000000   1.000000
    4      -12.774424    -12.774465   1.000000   1.000000
    5       -9.916885     -9.916858   1.000000   1.000000
    6       -7.775625     -7.775549   1.000000   1.000000
    7       -5.820479     -5.820386   1.000000   1.000000
    8       -5.364671     -5.364618   1.000000   1.000000
    9       -3.231901     -3.231932   1.000000   1.000000
   10       -2.556878     -2.556890   1.000000   1.000000
   11       -1.889721     -1.889747   1.000000   1.000000
   12       -1.507371     -1.507395   1.000000   1.000000
   13       -0.273986     -0.274050   1.000000   1.000000
   14       -0.003539     -0.003567   1.000000   1.000000
   15        0.610134      0.609944   1.000000   1.000000
   16        1.583717      1.583532   1.000000   1.000000
   17        5.748277      5.748292   0.000000   0.000000
   18        7.842332      7.842284   0.000000   0.000000
   19        8.425807      8.425728   0.000000   0.000000
   20        8.755902      8.755766   0.000000   0.000000
   21        9.577971      9.577977   0.000000   0.000000
   22       10.462555     10.450582   0.000000   0.000000
 
  0.2857143E+00  0.3750000E+00  0.2327230E-15  0.3571429E-02
    1      -19.591924    -19.591836   1.000000   1.000000
    2      -18.747440    -18.747352   1.000000   1.000000
    3      -14.804759    -14.804670   1.000000   1.000000
    4      -13.085626    -13.085667   1.000000   1.000000
    5       -9.328292     -9.328279   1.000000   1.000000
    6       -8.091078     -8.090998   1.000000   1.000000
    7       -5.758267     -5.758165   1.000000   1.000000
    8       -5.348070     -5.348010   1.000000   1.000000
    9       -3.241792     -3.241833   1.000000   1.000000
   10       -2.688424     -2.688427   1.000000   1.000000
   11       -2.044150     -2.044190   1.000000   1.000000
   12       -1.415192     -1.415211   1.000000   1.000000
   13       -0.250472     -0.250540   1.000000   1.000000
   14       -0.003428     -0.003457   1.000000   1.000000
   15        0.665756      0.665579   1.000000   1.000000
   16        1.556286      1.556105   1.000000   1.000000
   17        5.996829      5.996820   0.000000   0.000000
   18        7.718006      7.717979   0.000000   0.000000
   19        8.203211      8.203129   0.000000   0.000000
   20        8.781203      8.781113   0.000000   0.000000
   21        9.638100      9.637992   0.000000   0.000000
   22       10.644332     10.641509   0.000000   0.000000
 
  0.4285714E+00  0.3750000E+00  0.2244747E-15  0.3571429E-02
    1      -19.609544    -19.609457   1.000000   1.000000
    2      -18.724038    -18.723949   1.000000   1.000000
    3      -14.707308    -14.707207   1.000000   1.000000
    4      -13.289539    -13.289593   1.000000   1.000000
    5       -9.055345     -9.055335   1.000000   1.000000
    6       -8.266149     -8.266073   1.000000   1.000000
    7       -5.728737     -5.728635   1.000000   1.000000
    8       -5.312891     -5.312819   1.000000   1.000000
    9       -3.138295     -3.138325   1.000000   1.000000
   10       -2.924726     -2.924751   1.000000   1.000000
   11       -2.089233     -2.089274   1.000000   1.000000
   12       -1.415427     -1.415441   1.000000   1.000000
   13       -0.218574     -0.218640   1.000000   1.000000
   14        0.055550      0.055524   1.000000   1.000000
   15        0.911416      0.911245   1.000000   1.000000
   16        1.384387      1.384204   1.000000   1.000000
   17        6.160310      6.160278   0.000000   0.000000
   18        7.447682      7.447694   0.000000   0.000000
   19        8.093570      8.093480   0.000000   0.000000
   20        8.865811      8.865732   0.000000   0.000000
   21        9.707366      9.707277   0.000000   0.000000
   22       10.621155     10.651052   0.000000   0.000000
 
 -0.4285714E+00  0.3750000E+00  0.1006659E-15  0.3571429E-02
    1      -19.638892    -19.638806   1.000000   1.000000
    2      -18.699189    -18.699098   1.000000   1.000000
    3      -14.656466    -14.656355   1.000000   1.000000
    4      -13.259502    -13.259568   1.000000   1.000000