       N       E                     dE             d eps       ncg     rms          rms(c)
DAV:   1     0.185988803900E+03    0.18599E+03   -0.16293E+04 24816   0.130E+03
DAV:   2    -0.360352501188E+02   -0.22202E+03   -0.21442E+03 34520   0.295E+02
DAV:   3    -0.485321663561E+02   -0.12497E+02   -0.12425E+02 31536   0.762E+01
DAV:   4    -0.487022764361E+02   -0.17011E+00   -0.16984E+00 30858   0.981E+00
DAV:   5    -0.487060843124E+02   -0.38079E-02   -0.38061E-02 31194   0.140E+00    0.251E+01
RMM:   6    -0.428800977616E+02    0.58260E+01   -0.19993E+01 25056   0.249E+01    0.105E+01
RMM:   7    -0.431617460933E+02   -0.28165E+00   -0.42996E+00 28751   0.129E+01    0.467E+00
RMM:   8    -0.431625211798E+02   -0.77509E-03   -0.48948E-01 29220   0.478E+00    0.271E+00
RMM:   9    -0.431593872076E+02    0.31340E-02   -0.11631E-01 29296   0.250E+00    0.743E-01
RMM:  10    -0.431616640557E+02   -0.22768E-02   -0.32937E-02 32054   0.109E+00    0.266E-01
RMM:  11    -0.431624072273E+02   -0.74317E-03   -0.12595E-02 30578   0.675E-01    0.209E-01
RMM:  12    -0.431624016228E+02    0.56045E-05   -0.16902E-03 31464   0.287E-01    0.110E-01
RMM:  13    -0.431623585926E+02    0.43030E-04   -0.95693E-04 30068   0.210E-01    0.301E-02
RMM:  14    -0.431623648071E+02   -0.62145E-05   -0.12592E-04 31639   0.838E-02    0.218E-02
RMM:  15    -0.431623595435E+02    0.52637E-05   -0.35462E-05 24486   0.394E-02
   1 F= -.43162360E+02 E0= -.43162360E+02  d E =0.000000E+00  mag=    -0.0000
