    3    3    1    2
  0.7588790E+01  0.3181288E-09  0.3181288E-09  0.3181288E-09  0.5000000E-15
  1.000000000000000E-004
  CAR 
 unknown system                          
     12     72     16
 
  0.0000000E+00  0.0000000E+00  0.0000000E+00  0.5787037E-03
    1      -41.081700    -41.078727   1.000000   1.000000
    2      -40.657756    -40.654692   1.000000   1.000000
    3      -13.796611    -13.796381   1.000000   1.000000
    4        1.782571      1.782550   1.000000   1.000000
    5        1.782576      1.782550   1.000000   1.000000
    6        1.782576      1.782568   1.000000   1.000000
    7        7.661799      7.663042   0.000000   0.000000
    8       14.172134     14.173415   0.000000   0.000000
    9       14.172134     14.173415   0.000000   0.000000
   10       14.172308     14.173813   0.000000   0.000000
   11       21.623371     21.624427   0.000000   0.000000
   12       21.623371     21.624427   0.000000   0.000000
   13       21.623521     21.624715   0.000000   0.000000
   14       23.975586     23.975647   0.000000   0.000000
   15       23.975586     23.975647   0.000000   0.000000
   16       31.204944     31.203415   0.000000   0.000000
 
  0.8333333E-01 -0.9234634E-18  0.4746363E-14  0.4629630E-02
    1      -41.073148    -41.070172   1.000000   1.000000
    2      -40.663836    -40.660772   1.000000   1.000000
    3      -13.782771    -13.782550   1.000000   1.000000
    4        1.528014      1.528057   1.000000   1.000000
    5        1.745783      1.745768   1.000000   1.000000
    6        1.745788      1.745785   1.000000   1.000000
    7        7.850516      7.851700   0.000000   0.000000
    8       14.213258     14.214656   0.000000   0.000000
    9       14.285900     14.287169   0.000000   0.000000
   10       14.286055     14.287523   0.000000   0.000000
   11       20.742499     20.743356   0.000000   0.000000
   12       20.742602     20.743559   0.000000   0.000000
   13       21.897039     21.900421   0.000000   0.000000
   14       25.227654     25.227894   0.000000   0.000000
   15       25.227681     25.227938   0.000000   0.000000
   16       30.209315     30.211877   0.000000   0.000000
 
  0.1666667E+00  0.2585431E-17 -0.4750316E-14  0.4629630E-02
    1      -41.048351    -41.045369   1.000000   1.000000
    2      -40.681809    -40.678749   1.000000   1.000000
    3      -13.743683    -13.743484   1.000000   1.000000
    4        0.894272      0.894456   1.000000   1.000000
    5        1.648522      1.648522   1.000000   1.000000
    6        1.648525      1.648542   1.000000   1.000000
    7        8.349324      8.350394   0.000000   0.000000
    8       14.258544     14.259886   0.000000   0.000000
    9       14.536372     14.537599   0.000000   0.000000
   10       14.536529     14.537948   0.000000   0.000000
   11       19.700769     19.701573   0.000000   0.000000
   12       19.700857     19.701761   0.000000   0.000000
   13       22.645049     22.646796   0.000000   0.000000
   14       27.342147     27.342330   0.000000   0.000000
   15       27.342177     27.342364   0.000000   0.000000
   16       29.226648     29.224678   0.000000   0.000000
 
  0.2500000E+00  0.7735199E-17 -0.1002569E-16  0.4629630E-02
    1      -41.009991    -41.007000   1.000000   1.000000
    2      -40.711178    -40.708124   1.000000   1.000000
    3      -13.688222    -13.688057   1.000000   1.000000
    4        0.130896      0.131218   1.000000   1.000000
    5        1.522730      1.522749   1.000000   1.000000
    6        1.522731      1.522773   1.000000   1.000000
    7        9.059320      9.060293   0.000000   0.000000
    8       14.137010     14.138399   0.000000   0.000000
    9       14.679604     14.680747   0.000000   0.000000
   10       14.679760     14.681078   0.000000   0.000000
   11       19.297292     19.298147   0.000000   0.000000
   12       19.297378     19.298353   0.000000   0.000000
   13       23.679408     23.681175   0.000000   0.000000
   14       28.525134     28.523914   0.000000   0.000000
   15       28.979055     28.978661   0.000000   0.000000
   16       28.979088     28.978702   0.000000   0.000000
 
  0.3333333E+00 -0.9928196E-18  0.4744142E-14  0.4629630E-02
    1      -40.961582    -40.958581   1.000000   1.000000
    2      -40.750512    -40.747465   1.000000   1.000000
    3      -13.629069    -13.628938   1.000000   1.000000
    4       -0.552880     -0.552455   1.000000   1.000000
    5        1.404241      1.404277   1.000000   1.000000
    6        1.404241      1.404304   1.000000   1.000000
    7        9.916480      9.917386   0.000000   0.000000
    8       13.717654     13.719052   0.000000   0.000000
    9       14.568420     14.569467   0.000000   0.000000
   10       14.568569     14.569770   0.000000   0.000000
   11       19.616785     19.617731   0.000000   0.000000
   12       19.616879     19.617977   0.000000   0.000000
   13       24.758265     24.760432   0.000000   0.000000
   14       28.189169     28.189588   0.000000   0.000000
   15       29.066959     29.066127   0.000000   0.000000
   16       29.067011     29.066271   0.000000   0.000000
 
  0.4166667E+00  0.8589306E-17 -0.4675343E-14  0.4629630E-02
    1      -40.907183    -40.904170   1.000000   1.000000
    2      -40.798086    -40.795049   1.000000   1.000000
    3      -13.583053    -13.582950   1.000000   1.000000
    4       -1.016800     -1.016314   1.000000   1.000000
    5        1.321678      1.321726   1.000000   1.000000
    6        1.321679      1.321755   1.000000   1.000000
    7       10.853514     10.854337   0.000000   0.000000
    8       13.017701     13.019118   0.000000   0.000000
    9       14.369953     14.370944   0.000000   0.000000
   10       14.370097     14.371227   0.000000   0.000000
   11       20.244400     20.245427   0.000000   0.000000
   12       20.244504     20.245711   0.000000   0.000000
   13       25.628788     25.631665   0.000000   0.000000
   14       28.114263     28.115090   0.000000   0.000000
   15       28.523690     28.522862   0.000000   0.000000
   16       28.523743     28.523023   0.000000   0.000000
 
  0.5000000E+00  0.1547040E-16 -0.2005138E-16  0.2314815E-02
    1      -40.852261    -40.849236   1.000000   1.000000
    2      -40.850627    -40.847601   1.000000   1.000000
    3      -13.565772    -13.565678   1.000000   1.000000
    4       -1.180345     -1.179837   1.000000   1.000000
    5        1.292277      1.292329   1.000000   1.000000
    6        1.292278      1.292359   1.000000   1.000000
    7       11.521492     11.522045   0.000000   0.000000
    8       12.418942     12.420609   0.000000   0.000000
    9       14.282242     14.283216   0.000000   0.000000
   10       14.282383     14.283493   0.000000   0.000000
   11       20.563988     20.565051   0.000000   0.000000
   12       20.564096     20.565352   0.000000   0.000000
   13       25.980293     25.983552   0.000000   0.000000
   14       28.118950     28.119953   0.000000   0.000000
   15       28.216916     28.216112   0.000000   0.000000
   16       28.216967     28.216269   0.000000   0.000000
 
  0.8333333E-01  0.8333333E-01 -0.9459465E-17  0.3472222E-02
    1      -41.070438    -41.067462   1.000000   1.000000
    2      -40.665698    -40.662635   1.000000   1.000000
    3      -13.778236    -13.778018   1.000000   1.000000
    4        1.584438      1.584489   1.000000   1.000000
    5        1.664991      1.664985   1.000000   1.000000
    6        1.664993      1.664999   1.000000   1.000000
    7        7.893957      7.895120   0.000000   0.000000
    8       14.256530     14.257779   0.000000   0.000000
    9       14.256643     14.258036   0.000000   0.000000
   10       14.391666     14.393075   0.000000   0.000000
   11       19.562153     19.563713   0.000000   0.000000
   12       22.111341     22.112412   0.000000   0.000000
   13       22.111444     22.112615   0.000000   0.000000
   14       24.180862     24.180923   0.000000   0.000000
   15       26.014860     26.024246   0.000000   0.000000
   16       30.666950     30.497320   0.000000   0.000000
 
  0.1666667E+00  0.8333333E-01  0.1167449E-14  0.1388889E-01
    1      -41.051568    -41.048587   1.000000   1.000000
    2      -40.679177    -40.676117   1.000000   1.000000
    3      -13.748103    -13.747902   1.000000   1.000000
    4        1.100685      1.100836   1.000000   1.000000
    5        1.531196      1.531227   1.000000   1.000000
    6        1.632246      1.632259   1.000000   1.000000
    7        8.236354      8.237420   0.000000   0.000000
    8       14.321072     14.322387   0.000000   0.000000
    9       14.409519     14.410865   0.000000   0.000000
   10       14.720326     14.721748   0.000000   0.000000
   11       18.450274     18.451243   0.000000   0.000000
   12       21.624578     21.625510   0.000000   0.000000
   13       22.762556     22.764550   0.000000   0.000000
   14       25.738535     25.738838   0.000000   0.000000
   15       26.987622     26.993133   0.000000   0.000000
   16       30.208010     30.201380   0.000000   0.000000
 
  0.2500000E+00  0.8333333E-01 -0.4751843E-14  0.1388889E-01
    1      -41.018451    -41.015463   1.000000   1.000000
    2      -40.704024    -40.700968   1.000000   1.000000
    3      -13.698487    -13.698315   1.000000   1.000000
    4        0.386728      0.387008   1.000000   1.000000
    5        1.385772      1.385827   1.000000   1.000000
    6        1.553427      1.553457   1.000000   1.000000
    7        8.802386      8.803340   0.000000   0.000000
    8       14.218970     14.220266   0.000000   0.000000
    9       14.567534     14.568805   0.000000   0.000000
   10       15.090371     15.091755   0.000000   0.000000
   11       17.914653     17.915610   0.000000   0.000000
   12       21.008696     21.009605   0.000000   0.000000
   13       23.648093     23.649632   0.000000   0.000000
   14       27.473917     27.472601   0.000000   0.000000
   15       28.107402     28.107623   0.000000   0.000000
   16       29.879477     29.880857   0.000000   0.000000
 
  0.3333333E+00  0.8333333E-01  0.3181200E-16  0.1388889E-01
    1      -40.974324    -40.971326   1.000000   1.000000
    2      -40.739001    -40.735952   1.000000   1.000000
    3      -13.640579    -13.640442   1.000000   1.000000
    4       -0.316429     -0.316039   1.000000   1.000000
    5        1.268567      1.268641   1.000000   1.000000
    6        1.432287      1.432344   1.000000   1.000000
    7        9.528807      9.529674   0.000000   0.000000
    8       13.835453     13.836787   0.000000   0.000000
    9       14.582977     14.584157   0.000000   0.000000
   10       15.143880     15.145129   0.000000   0.000000
   11       18.257494     18.258547   0.000000   0.000000
   12       20.884550     20.885545   0.000000   0.000000
   13       24.590615     24.592360   0.000000   0.000000
   14       27.589283     27.589295   0.000000   0.000000
   15       29.164802     29.164181   0.000000   0.000000
   16       29.642304     29.646383   0.000000   0.000000
 
  0.4166667E+00  0.8333333E-01  0.1189521E-14  0.1388889E-01
    1      -40.923101    -40.920090   1.000000   1.000000
    2      -40.782663    -40.779622   1.000000   1.000000
    3      -13.589993    -13.589887   1.000000   1.000000
    4       -0.849209     -0.848747   1.000000   1.000000
    5        1.207066      1.207151   1.000000   1.000000
    6        1.304607      1.304683   1.000000   1.000000
    7       10.345438     10.346221   0.000000   0.000000
    8       13.240462     13.241856   0.000000   0.000000
    9       14.488057     14.489162   0.000000   0.000000
   10       14.924765     14.925881   0.000000   0.000000
   11       19.200074     19.201229   0.000000   0.000000
   12       20.989342     20.990458   0.000000   0.000000
   13       25.429071     25.431011   0.000000   0.000000
   14       27.718046     27.718628   0.000000   0.000000
   15       28.665791     28.665063   0.000000   0.000000
   16       29.177662     29.180501   0.000000   0.000000
 
  0.5000000E+00  0.8333333E-01 -0.4680333E-14  0.1388889E-01
    1      -40.869089    -40.866067   1.000000   1.000000
    2      -40.832829    -40.829800   1.000000   1.000000
    3      -13.562813    -13.562723   1.000000   1.000000
    4       -1.112117     -1.111621   1.000000   1.000000
    5        1.203442      1.203533   1.000000   1.000000
    6        1.213162      1.213247   1.000000   1.000000
    7       11.056236     11.056848   0.000000   0.000000
    8       12.626690     12.628243   0.000000   0.000000
    9       14.433862     14.434927   0.000000   0.000000
   10       14.736449     14.737509   0.000000   0.000000
   11       20.198074     20.199284   0.000000   0.000000
   12       20.763472     20.764672   0.000000   0.000000
   13       25.936068     25.938248   0.000000   0.000000
   14       27.955620     27.956389   0.000000   0.000000
   15       28.364935     28.364182   0.000000   0.000000
   16       28.557461     28.557648   0.000000   0.000000
 
 -0.4166667E+00  0.8333333E-01 -0.6820499E-16  0.1388889E-01
    1      -40.886510    -40.883492   1.000000   1.000000
    2      -40.816245    -40.813212   1.000000   1.000000
    3      -13.568433    -13.568339   1.000000   1.000000
    4       -1.060573     -1.060084   1.000000   1.000000
    5        1.153129      1.153225   1.000000   1.000000
    6        1.283927      1.284003   1.000000   1.000000
    7       10.955082     10.955730   0.000000   0.000000
    8       12.674327     12.675840   0.000000   0.000000
    9       14.538464     14.539521   0.000000   0.000000
   10       14.721303     14.722397   0.000000   0.000000
   11       19.932575     19.933772   0.000000   0.000000
   12       20.810860     20.812044   0.000000   0.000000
   13       25.831737     25.833847   0.000000   0.000000
   14       28.008974     28.009629   0.000000   0.000000
   15       28.417729     28.417978   0.000000   0.000000
   16       28.640031     28.639215   0.000000   0.000000
 
 -0.3333333E+00  0.8333333E-01  0.1179696E-14  0.1388889E-01
    1      -40.940062    -40.937056   1.000000   1.000000
    2      -40.767969    -40.764926   1.000000   1.000000
    3      -13.604846    -13.604731   1.000000   1.000000
    4       -0.704225     -0.703783   1.000000   1.000000
    5        1.166824      1.166916   1.000000   1.000000
    6        1.403451      1.403510   1.000000   1.000000
    7       10.176599     10.177402   0.000000   0.000000
    8       13.261919     13.263281   0.000000   0.000000
    9       14.806264     14.807456   0.000000   0.000000
   10       14.823809     14.824907   0.000000   0.000000
   11       18.817698     18.818837   0.000000   0.000000
   12       20.908285     20.909367   0.000000   0.000000
   13       25.189443     25.191294   0.000000   0.000000
   14       27.666527     27.666926   0.000000   0.000000
   15       29.093278     29.097318   0.000000   0.000000
   16       29.132554     29.131672   0.000000   0.000000
 
 -0.2500000E+00  0.8333333E-01 -0.4745669E-14  0.1388889E-01
    1      -40.989560    -40.986565   1.000000   1.000000
    2      -40.726896    -40.723845   1.000000   1.000000
    3      -13.659787    -13.659638   1.000000   1.000000
    4       -0.108110     -0.107752   1.000000   1.000000
    5        1.245335      1.245412   1.000000   1.000000
    6        1.544568      1.544605   1.000000   1.000000
    7        9.356946      9.357842   0.000000   0.000000
    8       13.785666     13.786969   0.000000   0.000000
    9       14.804524     14.805820   0.000000   0.000000
   10       15.121980     15.123208   0.000000   0.000000
   11       17.985579     17.986586   0.000000   0.000000
   12       20.795283     20.796289   0.000000   0.000000
   13       24.337814     24.339475   0.000000   0.000000
   14       27.344661     27.344231   0.000000   0.000000
   15       29.339688     29.338897   0.000000   0.000000
   16       29.682692     29.687605   0.000000   0.000000
 
 -0.1666667E+00  0.8333333E-01  0.8498696E-17  0.1388889E-01
    1      -41.030569    -41.027584   1.000000   1.000000
    2      -40.695004    -40.691946   1.000000   1.000000
    3      -13.716522    -13.716340   1.000000   1.000000
    4        0.603083      0.603324   1.000000   1.000000
    5        1.378197      1.378250   1.000000   1.000000
    6        1.671693      1.671707   1.000000   1.000000
    7        8.650537      8.651531   0.000000   0.000000
    8       14.114005     14.115303   0.000000   0.000000
    9       14.624731     14.626071   0.000000   0.000000
   10       15.000208     15.001590   0.000000   0.000000
   11       18.107090     18.107956   0.000000   0.000000
   12       20.813171     20.814186   0.000000   0.000000
   13       23.461566     23.463093   0.000000   0.000000
   14       26.555526     26.557805   0.000000   0.000000
   15       28.739564     28.739279   0.000000   0.000000
   16       29.647333     29.644624   0.000000   0.000000
 
 -0.8333333E-01  0.8333333E-01  0.1185279E-14  0.6944444E-02
    1      -41.059302    -41.056323   1.000000   1.000000
    2      -40.673668    -40.670606   1.000000   1.000000
    3      -13.760577    -13.760369   1.000000   1.000000
    4        1.225297      1.225416   1.000000   1.000000
    5        1.557445      1.557463   1.000000   1.000000
    6        1.747518      1.747516   1.000000   1.000000
    7        8.124445      8.125550   0.000000   0.000000
    8       14.231642     14.232943   0.000000   0.000000
    9       14.380316     14.381644   0.000000   0.000000
   10       14.573723     14.575145   0.000000   0.000000
   11       19.178797     19.179652   0.000000   0.000000
   12       20.991738     20.993397   0.000000   0.000000
   13       22.576390     22.577553   0.000000   0.000000
   14       25.436216     25.439029   0.000000   0.000000
   15       27.094698     27.094875   0.000000   0.000000
   16       29.829111     29.827320   0.000000   0.000000
 
  0.1666667E+00  0.1666667E+00 -0.3309819E-17  0.3472222E-02
    1      -41.039677    -41.036693   1.000000   1.000000
    2      -40.687285    -40.684226   1.000000   1.000000
    3      -13.728388    -13.728201   1.000000   1.000000
    4        1.139715      1.139907   1.000000   1.000000
    5        1.357430      1.357467   1.000000   1.000000
    6        1.357431      1.357489   1.000000   1.000000
    7        8.298011      8.298996   0.000000   0.000000
    8       14.517424     14.518596   0.000000   0.000000
    9       14.517529     14.518832   0.000000   0.000000
   10       15.025199     15.026772   0.000000   0.000000
   11       17.434070     17.435126   0.000000   0.000000
   12       23.468100     23.469214   0.000000   0.000000
   13       23.468212     23.469451   0.000000   0.000000
   14       24.796664     24.796723   0.000000   0.000000
   15       26.452030     26.458256   0.000000   0.000000
   16       30.600036     30.598859   0.000000   0.000000
 
  0.2500000E+00  0.1666667E+00  0.4738102E-14  0.1388889E-01
    1      -41.014161    -41.011171   1.000000   1.000000
    2      -40.705852    -40.702797   1.000000   1.000000
    3      -13.688688    -13.688525   1.000000   1.000000
    4        0.620086      0.620347   1.000000   1.000000
    5        1.179347      1.179431   1.000000   1.000000
    6        1.313408      1.313489   1.000000   1.000000
    7        8.530091      8.530970   0.000000   0.000000
    8       14.545595     14.546792   0.000000   0.000000
    9       14.702406     14.703648   0.000000   0.000000
   10       15.524452     15.526088   0.000000   0.000000
   11       16.931558     16.932663   0.000000   0.000000
   12       23.091419     23.092314   0.000000   0.000000
   13       24.271456     24.273441   0.000000   0.000000
   14       26.284785     26.284635   0.000000   0.000000
   15       26.810690     26.811139   0.000000   0.000000
   16       30.242990     30.243814   0.000000   0.000000
 
  0.3333333E+00  0.1666667E+00 -0.1189860E-14  0.1388889E-01
    1      -40.977388    -40.974389   1.000000   1.000000
    2      -40.734181    -40.731131   1.000000   1.000000
    3      -13.637464    -13.637332   1.000000   1.000000
    4       -0.027107     -0.026754   1.000000   1.000000
    5        1.043928      1.044032   1.000000   1.000000
    6        1.245644      1.245756   1.000000   1.000000
    7        8.939899      8.940681   0.000000   0.000000
    8       14.235619     14.236890   0.000000   0.000000
    9       14.818981     14.820149   0.000000   0.000000
   10       15.858076     15.859587   0.000000   0.000000
   11       17.261940     17.263169   0.000000   0.000000
   12       22.565855     22.566781   0.000000   0.000000
   13       24.768418     24.769363   0.000000   0.000000
   14       26.650717     26.651232   0.000000   0.000000
   15       29.396539     29.396474   0.000000   0.000000
   16       29.980033     29.989608   0.000000   0.000000
 
  0.4166667E+00  0.1666667E+00  0.1467590E-16  0.1388889E-01
    1      -40.932935    -40.929927   1.000000   1.000000
    2      -40.771090    -40.768047   1.000000   1.000000
    3      -13.587942    -13.587840   1.000000   1.000000
    4       -0.576860     -0.576435   1.000000   1.000000
    5        0.982089      0.982203   1.000000   1.000000
    6        1.117133      1.117277   1.000000   1.000000
    7        9.499825      9.500530   0.000000   0.000000
    8       13.735397     13.736730   0.000000   0.000000
    9       14.830394     14.831489   0.000000   0.000000
   10       15.799692     15.801001   0.000000   0.000000
   11       18.272262     18.273666   0.000000   0.000000
   12       22.142767     22.143820   0.000000   0.000000
   13       25.223573     25.224271   0.000000   0.000000
   14       27.136688     27.137766   0.000000   0.000000
   15       29.066491     29.065704   0.000000   0.000000
   16       29.664985     29.671793   0.000000   0.000000
 
  0.5000000E+00  0.1666667E+00  0.4741088E-14  0.1388889E-01
    1      -40.884484    -40.881465   1.000000   1.000000
    2      -40.814689    -40.811655   1.000000   1.000000
    3      -13.554729    -13.554646   1.000000   1.000000
    4       -0.912774     -0.912310   1.000000   1.000000
    5        0.972014      0.972184   1.000000   1.000000
    6        1.005744      1.005857   1.000000   1.000000
    7       10.106944     10.107573   0.000000   0.000000
    8       13.161498     13.162878   0.000000   0.000000
    9       14.823552     14.824590   0.000000   0.000000
   10       15.646978     15.648203   0.000000   0.000000
   11       19.470438     19.471929   0.000000   0.000000
   12       21.381896     21.383066   0.000000   0.000000
   13       25.752632     25.753402   0.000000   0.000000
   14       27.580068     27.581391   0.000000   0.000000
   15       28.783304     28.782463   0.000000   0.000000
   16       29.124781     29.126013   0.000000   0.000000
 
 -0.4166667E+00  0.1666667E+00 -0.1234366E-14  0.1388889E-01
    1      -40.862798    -40.859775   1.000000   1.000000
    2      -40.835901    -40.832872   1.000000   1.000000
    3      -13.549433    -13.549353   1.000000   1.000000
    4       -0.974636     -0.974167   1.000000   1.000000
    5        0.857380      0.857565   1.000000   1.000000
    6        1.108507      1.108609   1.000000   1.000000
    7       10.506658     10.507200   0.000000   0.000000
    8       12.704839     12.706288   0.000000   0.000000
    9       14.924298     14.925302   0.000000   0.000000
   10       15.569807     15.571067   0.000000   0.000000
   11       20.117771     20.118989   0.000000   0.000000
   12       20.579283     20.580762   0.000000   0.000000
   13       25.959053     25.959988   0.000000   0.000000
   14       28.122474     28.123280   0.000000   0.000000
   15       28.434843     28.436185   0.000000   0.000000
   16       28.966128     28.965197   0.000000   0.000000
 
 -0.3333333E+00  0.1666667E+00  0.1699739E-16  0.1388889E-01
    1      -40.912067    -40.909054   1.000000   1.000000
    2      -40.790420    -40.787381   1.000000   1.000000
    3      -13.573655    -13.573560   1.000000   1.000000
    4       -0.759033     -0.758593   1.000000   1.000000
    5        0.811683      0.811866   1.000000   1.000000
    6        1.267349      1.267430   1.000000   1.000000
    7       10.322069     10.322672   0.000000   0.000000
    8       12.763700     12.765101   0.000000   0.000000
    9       15.229979     15.230970   0.000000   0.000000
   10       15.514337     15.515691   0.000000   0.000000
   11       18.620411     18.621641   0.000000   0.000000
   12       21.430236     21.431599   0.000000   0.000000
   13       25.591618     25.592414   0.000000   0.000000
   14       27.604208     27.605218   0.000000   0.000000
   15       28.957698     28.959161   0.000000   0.000000
   16       29.312062     29.311056   0.000000   0.000000
 
 -0.2500000E+00  0.1666667E+00  0.4672290E-14  0.1388889E-01
    1      -40.959044    -40.956041   1.000000   1.000000
    2      -40.750487    -40.747440   1.000000   1.000000
    3      -13.619105    -13.618983   1.000000   1.000000
    4       -0.327033     -0.326649   1.000000   1.000000
    5        0.866135      0.866296   1.000000   1.000000
    6        1.444989      1.445044   1.000000   1.000000
    7        9.736846      9.737590   0.000000   0.000000
    8       13.214857     13.216159   0.000000   0.000000
    9       15.331555     15.332980   0.000000   0.000000
   10       15.770468     15.771512   0.000000   0.000000
   11       17.225399     17.226585   0.000000   0.000000
   12       21.847187     21.848475   0.000000   0.000000
   13       25.186615     25.187244   0.000000   0.000000
   14       26.610145     26.611146   0.000000   0.000000
   15       29.512975     29.511986   0.000000   0.000000
   16       29.686696     29.692349   0.000000   0.000000
 
 -0.1666667E+00  0.1666667E+00 -0.1197564E-14  0.6944444E-02
    1      -40.999852    -40.996859   1.000000   1.000000
    2      -40.718236    -40.715183   1.000000   1.000000
    3      -13.671573    -13.671420   1.000000   1.000000
    4        0.184504      0.184816   1.000000   1.000000
    5        1.055045      1.055160   1.000000   1.000000
    6        1.594839      1.594868   1.000000   1.000000
    7        9.130067      9.130942   0.000000   0.000000
    8       13.716024     13.717276   0.000000   0.000000
    9       14.986787     14.988203   0.000000   0.000000
   10       15.775045     15.776436   0.000000   0.000000
   11       16.931574     16.932424   0.000000   0.000000
   12       21.575784     21.577019   0.000000   0.000000
   13       24.950566     24.952604   0.000000   0.000000
   14       25.678972     25.679257   0.000000   0.000000
   15       29.401356     29.400547   0.000000   0.000000
   16       30.205473     30.212210   0.000000   0.000000
 
  0.2500000E+00  0.2500000E+00 -0.4964729E-17  0.3472222E-02
    1      -40.997507    -40.994513   1.000000   1.000000
    2      -40.716745    -40.713691   1.000000   1.000000
    3      -13.660444    -13.660301   1.000000   1.000000
    4        0.686972      0.687295   1.000000   1.000000
    5        0.965692      0.965782   1.000000   1.000000
    6        0.965698      0.965811   1.000000   1.000000
    7        8.302553      8.303347   0.000000   0.000000
    8       14.943305     14.944385   0.000000   0.000000
    9       14.943401     14.944597   0.000000   0.000000
   10       15.988501     15.990365   0.000000   0.000000
   11       16.469027     16.470304   0.000000   0.000000
   12       25.322114     25.322507   0.000000   0.000000
   13       25.325813     25.326950   0.000000   0.000000
   14       25.325952     25.327271   0.000000   0.000000
   15       25.822961     25.823012   0.000000   0.000000
   16       30.149264     30.148364   0.000000   0.000000
 
  0.3333333E+00  0.2500000E+00  0.4757392E-14  0.1388889E-01
    1      -40.970706    -40.967706   1.000000   1.000000
    2      -40.736550    -40.733500   1.000000   1.000000
    3      -13.620465    -13.620347   1.000000   1.000000
    4        0.250610      0.250952   1.000000   1.000000
    5        0.800311      0.800446   1.000000   1.000000
    6        0.915119      0.915285   1.000000   1.000000
    7        8.266519      8.267244   0.000000   0.000000
    8       14.913493     14.914634   0.000000   0.000000
    9       15.152890     15.154027   0.000000   0.000000
   10       16.443633     16.445259   0.000000   0.000000
   11       16.777384     16.779046   0.000000   0.000000
   12       24.611534     24.612375   0.000000   0.000000
   13       24.731623     24.731818   0.000000   0.000000
   14       26.305525     26.306604   0.000000   0.000000
   15       28.281534     28.281896   0.000000   0.000000
   16       30.070873     30.065534   0.000000   0.000000
 
  0.4166667E+00  0.2500000E+00 -0.4756628E-14  0.1388889E-01
    1      -40.936131    -40.933123   1.000000   1.000000
    2      -40.764213    -40.761168   1.000000   1.000000
    3      -13.577679    -13.577587   1.000000   1.000000
    4       -0.242492     -0.242106   1.000000   1.000000
    5        0.720082      0.720229   1.000000   1.000000
    6        0.831465      0.831684   1.000000   1.000000
    7        8.517654      8.518322   0.000000   0.000000
    8       14.529262     14.530464   0.000000   0.000000
    9       15.261796     15.262870   0.000000   0.000000
   10       16.558653     16.560140   0.000000   0.000000
   11       17.764134     17.765973   0.000000   0.000000
   12       23.680855     23.681823   0.000000   0.000000
   13       24.692599     24.692411   0.000000   0.000000
   14       26.889144     26.890254   0.000000   0.000000
   15       29.495674     29.494776   0.000000   0.000000
   16       30.045372     30.053749   0.000000   0.000000
 
  0.5000000E+00  0.2500000E+00  0.2875802E-16  0.1388889E-01