 running on    8 total cores
 distrk:  each k-point on    8 cores,    1 groups
 distr:  one band on    1 cores,    8 groups
 using from now: INCAR     
 vasp.6.1.2 22Jul20 (build Mar 20 2021 11:25:07) complex                        
  
 POSCAR found type information on POSCAR LiO 
 POSCAR found :  2 types and       3 ions
 scaLAPACK will be used
 -----------------------------------------------------------------------------
|                                                                             |
|           W    W    AA    RRRRR   N    N  II  N    N   GGGG   !!!           |
|           W    W   A  A   R    R  NN   N  II  NN   N  G    G  !!!           |
|           W    W  A    A  R    R  N N  N  II  N N  N  G       !!!           |
|           W WW W  AAAAAA  RRRRR   N  N N  II  N  N N  G  GGG   !            |
|           WW  WW  A    A  R   R   N   NN  II  N   NN  G    G                |
|           W    W  A    A  R    R  N    N  II  N    N   GGGG   !!!           |
|                                                                             |
|     The value NCORE = 6 specified in the INCAR file was overwritten,        |
|     because it was not compatible with the 8 processes available:           |
|     NCORE = 1                                                               |
|     was used instead, please check that this makes sense for your           |
|     machine.                                                                |
|                                                                             |
 -----------------------------------------------------------------------------

 -----------------------------------------------------------------------------
|                                                                             |
|           W    W    AA    RRRRR   N    N  II  N    N   GGGG   !!!           |
|           W    W   A  A   R    R  NN   N  II  NN   N  G    G  !!!           |
|           W    W  A    A  R    R  N N  N  II  N N  N  G       !!!           |
|           W WW W  AAAAAA  RRRRR   N  N N  II  N  N N  G  GGG   !            |
|           WW  WW  A    A  R   R   N   NN  II  N   NN  G    G                |
|           W    W  A    A  R    R  N    N  II  N    N   GGGG   !!!           |
|                                                                             |
|     For optimal performance we recommend to set                             |
|       NCORE = 4 - approx SQRT(number of cores).                             |
|     NCORE specifies how many cores store one orbital (NPAR=cpu/NCORE).      |
|     This setting can greatly improve the performance of VASP for DFT.       |
|     The default, NCORE=1 might be grossly inefficient on modern             |
|     multi-core architectures or massively parallel machines. Do your        |
|     own testing!!!!                                                         |
|     Unfortunately you need to use the default for GW and RPA                |
|     calculations (for HF NCORE is supported but not extensively tested      |
|     yet).                                                                   |
|                                                                             |
 -----------------------------------------------------------------------------

 -----------------------------------------------------------------------------
|                                                                             |
|               ----> ADVICE to this user running VASP <----                  |
|                                                                             |
|     You have a (more or less) 'small supercell' and for smaller cells       |
|     it is recommended to use the reciprocal-space projection scheme!        |
|     The real-space optimization is not efficient for small cells and it     |
|     is also less accurate ...                                               |
|     Therefore, set LREAL=.FALSE. in the INCAR file.                         |
|                                                                             |
 -----------------------------------------------------------------------------

 LDA part: xc-table for Pade appr. of Perdew
 generate k-points for:   12   12   12
 POSCAR, INCAR and KPOINTS ok, starting setup
 FFT: planning ...
 WAVECAR not read
 entering main loop
       N       E                     dE             d eps       ncg     rms          rms(c)
DAV:   1     0.455209259558E+02    0.45521E+02   -0.52702E+03  4616   0.778E+02
DAV:   2    -0.106390494588E+02   -0.56160E+02   -0.53470E+02  6328   0.195E+02
DAV:   3    -0.152053664003E+02   -0.45663E+01   -0.45332E+01  6760   0.416E+01
DAV:   4    -0.152941236015E+02   -0.88757E-01   -0.88745E-01  5456   0.691E+00
DAV:   5    -0.152950405036E+02   -0.91690E-03   -0.91690E-03  6216   0.546E-01    0.117E+01
RMM:   6    -0.141420956848E+02    0.11529E+01   -0.19321E+00  5123   0.800E+00    0.492E+00
RMM:   7    -0.142717605363E+02   -0.12966E+00   -0.51823E-02  5889   0.171E+00    0.216E+00
RMM:   8    -0.142819763079E+02   -0.10216E-01   -0.27400E-02  6418   0.134E+00    0.116E+00
RMM:   9    -0.142937963953E+02   -0.11820E-01   -0.24075E-02  6471   0.135E+00    0.234E-01
RMM:  10    -0.142947030470E+02   -0.90665E-03   -0.40169E-03  7102   0.459E-01    0.132E-01
RMM:  11    -0.142952912753E+02   -0.58823E-03   -0.29965E-03  6706   0.371E-01    0.173E-01
RMM:  12    -0.142951757192E+02    0.11556E-03   -0.83064E-04  6754   0.217E-01    0.759E-02
RMM:  13    -0.142951452442E+02    0.30475E-04   -0.39624E-04  7111   0.143E-01    0.157E-02
WARNING in EDDRMM: call to ZHEGV failed, returncode =   8  4      2
RMM:  14    -0.142951646514E+02   -0.19407E-04   -0.14489E-04  6594   0.754E-02    0.176E-02
RMM:  15    -0.142951689812E+02   -0.43298E-05   -0.59424E-05  6283   0.491E-02
   1 F= -.14295169E+02 E0= -.14295169E+02  d E =0.000000E+00  mag=     0.0001
