       N       E                     dE             d eps       ncg     rms          rms(c)
DAV:   1     0.465210336209E+03    0.46521E+03   -0.39662E+04 21384   0.135E+03
DAV:   2    -0.981389170821E+02   -0.56335E+03   -0.54040E+03 27218   0.302E+02
DAV:   3    -0.136271794328E+03   -0.38133E+02   -0.37799E+02 26632   0.840E+01
DAV:   4    -0.137070602157E+03   -0.79881E+00   -0.79540E+00 28176   0.126E+01
DAV:   5    -0.137090697277E+03   -0.20095E-01   -0.20067E-01 26398   0.191E+00    0.437E+01
DAV:   6    -0.117815619566E+03    0.19275E+02   -0.67592E+01 25000   0.318E+01    0.216E+01
DAV:   7    -0.120276179861E+03   -0.24606E+01   -0.98254E+00 26028   0.115E+01    0.717E+00
DAV:   8    -0.120469975294E+03   -0.19380E+00   -0.65794E-01 25902   0.380E+00    0.432E+00
DAV:   9    -0.120476359557E+03   -0.63843E-02   -0.71593E-02 25642   0.142E+00    0.211E+00
DAV:  10    -0.120474830848E+03    0.15287E-02   -0.24504E-02 28016   0.827E-01    0.454E-01
DAV:  11    -0.120477275101E+03   -0.24443E-02   -0.53756E-03 25030   0.392E-01    0.257E-01
DAV:  12    -0.120477721226E+03   -0.44612E-03   -0.55153E-04 28296   0.130E-01    0.152E-01
DAV:  13    -0.120477972451E+03   -0.25123E-03   -0.24980E-04 25498   0.777E-02    0.595E-02
DAV:  14    -0.120478026287E+03   -0.53836E-04   -0.33973E-05 22016   0.297E-02    0.186E-02
DAV:  15    -0.120478038723E+03   -0.12437E-04   -0.11090E-05 16528   0.170E-02    0.103E-02
DAV:  16    -0.120478042191E+03   -0.34678E-05   -0.44024E-06 14928   0.925E-03
   1 F= -.12047804E+03 E0= -.12047804E+03  d E =0.000000E+00  mag=    -0.0004
