       N       E                     dE             d eps       ncg     rms          rms(c)
DAV:   1     0.549054024632E+03    0.54905E+03   -0.41960E+04 35960   0.140E+03
DAV:   2    -0.662010688004E+02   -0.61526E+03   -0.59827E+03 45140   0.330E+02
DAV:   3    -0.107156403724E+03   -0.40955E+02   -0.40625E+02 42704   0.919E+01
DAV:   4    -0.107819721789E+03   -0.66332E+00   -0.66052E+00 44248   0.123E+01
DAV:   5    -0.107835712875E+03   -0.15991E-01   -0.15969E-01 43180   0.181E+00    0.403E+01
DAV:   6    -0.896126037652E+02    0.18223E+02   -0.59439E+01 40468   0.361E+01    0.209E+01
DAV:   7    -0.939936100373E+02   -0.43810E+01   -0.10007E+01 41904   0.134E+01    0.639E+00
DAV:   8    -0.951203673385E+02   -0.11268E+01   -0.23755E+00 43144   0.601E+00    0.293E+00
DAV:   9    -0.951066546244E+02    0.13713E-01   -0.13641E-01 41816   0.213E+00    0.142E+00
DAV:  10    -0.951051130960E+02    0.15415E-02   -0.29300E-02 48032   0.106E+00    0.473E-01
DAV:  11    -0.951053610698E+02   -0.24797E-03   -0.45178E-03 42144   0.389E-01    0.259E-01
DAV:  12    -0.951057623361E+02   -0.40127E-03   -0.16504E-03 44608   0.243E-01    0.126E-01
DAV:  13    -0.951058595593E+02   -0.97223E-04   -0.29253E-04 40784   0.106E-01    0.491E-02
DAV:  14    -0.951058716094E+02   -0.12050E-04   -0.89922E-05 42800   0.508E-02    0.179E-02
DAV:  15    -0.951058749699E+02   -0.33605E-05   -0.10697E-05 28520   0.241E-02
   1 F= -.95105875E+02 E0= -.95105875E+02  d E =0.000000E+00  mag=    -0.0005
