    8    8    1    2
  0.1028324E+02  0.5261556E-09  0.4871811E-09  0.4871811E-09  0.5000000E-15
  1.000000000000000E-004
  CAR 
 unknown system                          
     36    324     26
 
  0.0000000E+00  0.0000000E+00  0.0000000E+00  0.1562500E-02
    1      -39.429000    -39.428899   1.000000   1.000000
    2      -39.408763    -39.408674   1.000000   1.000000
    3      -14.188595    -14.188612   1.000000   1.000000
    4      -10.118409    -10.118426   1.000000   1.000000
    5       -9.998497     -9.998511   1.000000   1.000000
    6       -9.511532     -9.511547   1.000000   1.000000
    7       -7.663603     -7.663625   1.000000   1.000000
    8       -2.727814     -2.727830   1.000000   1.000000
    9       -2.612272     -2.612288   1.000000   1.000000
   10       -2.020615     -2.020634   1.000000   1.000000
   11        0.555540      0.555529   1.000000   1.000000
   12        1.183146      1.183151   1.000000   1.000000
   13        1.856107      1.856097   1.000000   1.000000
   14        2.785378      2.785366   1.000000   1.000000
   15        2.940921      2.940919   1.000000   1.000000
   16        3.161009      3.161008   1.000000   1.000000
   17        3.281231      3.281233   1.000000   1.000000
   18        3.396730      3.396721   1.000000   1.000000
   19        7.838813      7.838818   0.000001   0.000001
   20        8.803801      8.803793   0.000000   0.000000
   21       11.519642     11.519624   0.000000   0.000000
   22       11.909195     11.909168   0.000000   0.000000
   23       12.222345     12.222337   0.000000   0.000000
   24       12.571830     12.571800   0.000000   0.000000
   25       13.019788     13.018016   0.000000   0.000000
   26       13.691881     13.682514   0.000000   0.000000
 
  0.1250000E+00 -0.7372023E-17  0.1431092E-16  0.3125000E-02
    1      -39.428731    -39.428629   1.000000   1.000000
    2      -39.409010    -39.408921   1.000000   1.000000
    3      -14.137654    -14.137671   1.000000   1.000000
    4      -10.192255    -10.192270   1.000000   1.000000
    5      -10.074669    -10.074685   1.000000   1.000000
    6       -9.679583     -9.679599   1.000000   1.000000
    7       -7.343897     -7.343917   1.000000   1.000000
    8       -2.731925     -2.731941   1.000000   1.000000
    9       -2.603476     -2.603491   1.000000   1.000000
   10       -1.988455     -1.988473   1.000000   1.000000
   11        0.526309      0.526298   1.000000   1.000000
   12        1.254195      1.254197   1.000000   1.000000
   13        1.867316      1.867306   1.000000   1.000000
   14        2.519865      2.519857   1.000000   1.000000
   15        2.941991      2.941984   1.000000   1.000000
   16        3.130918      3.130922   1.000000   1.000000
   17        3.343986      3.343977   1.000000   1.000000
   18        3.392741      3.392742   1.000000   1.000000
   19        8.091558      8.091561  -0.000000  -0.000000
   20        9.126312      9.126300   0.000000   0.000000
   21       10.886313     10.886304   0.000000   0.000000
   22       11.653279     11.653260   0.000000   0.000000
   23       12.297107     12.297121   0.000000   0.000000
   24       12.756889     12.756948   0.000000   0.000000
   25       13.158337     13.157788   0.000000   0.000000
   26       13.921333     13.987887   0.000000   0.000000
 
  0.2500000E+00 -0.1474405E-16  0.2862183E-16  0.3125000E-02
    1      -39.428058    -39.427955   1.000000   1.000000
    2      -39.409639    -39.409550   1.000000   1.000000
    3      -14.001376    -14.001394   1.000000   1.000000
    4      -10.619954    -10.619969   1.000000   1.000000
    5      -10.123324    -10.123341   1.000000   1.000000
    6       -9.802600     -9.802616   1.000000   1.000000
    7       -6.743247     -6.743266   1.000000   1.000000
    8       -2.755754     -2.755769   1.000000   1.000000
    9       -2.532979     -2.532995   1.000000   1.000000
   10       -1.931740     -1.931758   1.000000   1.000000
   11        0.478882      0.478873   1.000000   1.000000
   12        1.233174      1.233164   1.000000   1.000000
   13        1.920949      1.920939   1.000000   1.000000
   14        2.091285      2.091291   1.000000   1.000000
   15        2.776677      2.776671   1.000000   1.000000
   16        3.216042      3.216038   1.000000   1.000000
   17        3.279950      3.279947   1.000000   1.000000
   18        3.633933      3.633930   1.000000   1.000000
   19        8.761599      8.761594   0.000000   0.000000
   20        9.576162      9.576143   0.000000   0.000000
   21       10.464920     10.464916   0.000000   0.000000
   22       11.188367     11.188355   0.000000   0.000000
   23       11.826005     11.826000   0.000000   0.000000
   24       13.030188     13.028615   0.000000   0.000000
   25       13.421506     13.420798   0.000000   0.000000
   26       13.954370     13.949045   0.000000   0.000000
 
  0.3750000E+00  0.2522427E-16  0.2531306E-17  0.3125000E-02
    1      -39.427353    -39.427250   1.000000   1.000000
    2      -39.410343    -39.410256   1.000000   1.000000
    3      -13.839013    -13.839031   1.000000   1.000000
    4      -11.065873    -11.065888   1.000000   1.000000
    5      -10.147424    -10.147441   1.000000   1.000000
    6       -9.844538     -9.844554   1.000000   1.000000
    7       -6.239754     -6.239772   1.000000   1.000000
    8       -2.772442     -2.772458   1.000000   1.000000
    9       -2.376002     -2.376019   1.000000   1.000000
   10       -1.947846     -1.947863   1.000000   1.000000
   11        0.441010      0.441000   1.000000   1.000000
   12        0.883352      0.883342   1.000000   1.000000
   13        1.826974      1.826973   1.000000   1.000000
   14        2.171408      2.171409   1.000000   1.000000
   15        2.608075      2.608070   1.000000   1.000000
   16        3.127637      3.127632   1.000000   1.000000
   17        3.447631      3.447628   1.000000   1.000000
   18        3.868331      3.868323   1.000000   1.000000
   19        9.115040      9.115025   0.000000   0.000000
   20        9.881578      9.881568   0.000000   0.000000
   21       10.780129     10.780113   0.000000   0.000000
   22       11.098368     11.098363   0.000000   0.000000
   23       11.417086     11.417077   0.000000   0.000000
   24       12.903490     12.903441   0.000000   0.000000
   25       13.274766     13.276434   0.000000   0.000000
   26       13.404825     13.402568   0.000000   0.000000
 
  0.5000000E+00 -0.2948809E-16  0.5724367E-16  0.1562500E-02
    1      -39.427025    -39.426922   1.000000   1.000000
    2      -39.410632    -39.410544   1.000000   1.000000
    3      -13.760455    -13.760473   1.000000   1.000000
    4      -11.249079    -11.249094   1.000000   1.000000
    5      -10.156131    -10.156149   1.000000   1.000000
    6       -9.857335     -9.857350   1.000000   1.000000
    7       -6.044635     -6.044651   1.000000   1.000000
    8       -2.769436     -2.769453   1.000000   1.000000
    9       -2.241935     -2.241953   1.000000   1.000000
   10       -2.026047     -2.026063   1.000000   1.000000
   11        0.364162      0.364151   1.000000   1.000000
   12        0.774220      0.774212   1.000000   1.000000
   13        1.726948      1.726948   1.000000   1.000000
   14        2.302640      2.302640   1.000000   1.000000
   15        2.550945      2.550939   1.000000   1.000000
   16        3.057843      3.057841   1.000000   1.000000
   17        3.549607      3.549601   1.000000   1.000000
   18        3.960658      3.960647   1.000000   1.000000
   19        8.961936      8.961924   0.000000   0.000000
   20       10.539515     10.539496   0.000000   0.000000
   21       10.736308     10.736287   0.000000   0.000000
   22       11.236562     11.236540   0.000000   0.000000
   23       11.385115     11.385107   0.000000   0.000000
   24       12.392829     12.392863   0.000000   0.000000
   25       12.885393     12.885157   0.000000   0.000000
   26       13.418646     13.418736   0.000000   0.000000
 
 -0.1911387E-17  0.1250000E+00 -0.3093880E-16  0.3125000E-02
    1      -39.428510    -39.428408   1.000000   1.000000
    2      -39.409236    -39.409147   1.000000   1.000000
    3      -14.110108    -14.110125   1.000000   1.000000
    4      -10.425996    -10.426013   1.000000   1.000000
    5      -10.018976    -10.018991   1.000000   1.000000
    6       -9.542019     -9.542034   1.000000   1.000000
    7       -7.336201     -7.336222   1.000000   1.000000
    8       -2.751955     -2.751971   1.000000   1.000000
    9       -2.647408     -2.647424   1.000000   1.000000
   10       -1.928550     -1.928568   1.000000   1.000000
   11        0.466280      0.466269   1.000000   1.000000
   12        1.336992      1.336995   1.000000   1.000000
   13        1.851152      1.851141   1.000000   1.000000
   14        2.720699      2.720688   1.000000   1.000000
   15        2.836440      2.836433   1.000000   1.000000
   16        3.173801      3.173802   1.000000   1.000000
   17        3.232336      3.232331   1.000000   1.000000
   18        3.395238      3.395240   1.000000   1.000000
   19        8.146048      8.146049  -0.000000  -0.000000
   20        8.966796      8.966786   0.000000   0.000000
   21       11.329365     11.329327   0.000000   0.000000
   22       11.519929     11.519912   0.000000   0.000000
   23       12.193688     12.193641   0.000000   0.000000
   24       12.477945     12.477769   0.000000   0.000000
   25       13.221545     13.221060   0.000000   0.000000
   26       14.289565     13.923486   0.000000   0.000000
 
  0.1250000E+00  0.1250000E+00  0.2377356E-16  0.3125000E-02
    1      -39.428099    -39.427997   1.000000   1.000000
    2      -39.409628    -39.409540   1.000000   1.000000
    3      -14.027682    -14.027699   1.000000   1.000000
    4      -10.606091    -10.606108   1.000000   1.000000
    5      -10.083344    -10.083359   1.000000   1.000000
    6       -9.704808     -9.704823   1.000000   1.000000
    7       -6.918819     -6.918839   1.000000   1.000000
    8       -2.857627     -2.857643   1.000000   1.000000
    9       -2.441979     -2.441994   1.000000   1.000000
   10       -1.969005     -1.969023   1.000000   1.000000
   11        0.495165      0.495156   1.000000   1.000000
   12        1.413691      1.413687   1.000000   1.000000
   13        1.819057      1.819048   1.000000   1.000000
   14        2.223304      2.223301   1.000000   1.000000
   15        2.796329      2.796321   1.000000   1.000000
   16        3.182982      3.182981   1.000000   1.000000
   17        3.335372      3.335365   1.000000   1.000000
   18        3.508461      3.508462   1.000000   1.000000
   19        8.490557      8.490554  -0.000000  -0.000000
   20        9.245842      9.245829   0.000000   0.000000
   21       10.759438     10.759432   0.000000   0.000000
   22       11.145513     11.145497   0.000000   0.000000
   23       12.216042     12.215844   0.000000   0.000000
   24       12.695550     12.695753   0.000000   0.000000
   25       13.431397     13.427377   0.000000   0.000000
   26       14.325667     14.377946   0.000000   0.000000
 
  0.2500000E+00  0.1250000E+00  0.5073035E-16  0.3125000E-02
    1      -39.427402    -39.427299   1.000000   1.000000
    2      -39.410320    -39.410232   1.000000   1.000000
    3      -13.872623    -13.872641   1.000000   1.000000
    4      -10.985921    -10.985937   1.000000   1.000000
    5      -10.142634    -10.142650   1.000000   1.000000
    6       -9.813641     -9.813655   1.000000   1.000000
    7       -6.359680     -6.359699   1.000000   1.000000
    8       -2.959269     -2.959286   1.000000   1.000000
    9       -2.253234     -2.253250   1.000000   1.000000
   10       -1.962590     -1.962608   1.000000   1.000000
   11        0.508640      0.508630   1.000000   1.000000
   12        1.133779      1.133768   1.000000   1.000000
   13        1.777564      1.777559   1.000000   1.000000
   14        2.052776      2.052778   1.000000   1.000000
   15        2.661259      2.661253   1.000000   1.000000
   16        3.224763      3.224757   1.000000   1.000000
   17        3.449918      3.449913   1.000000   1.000000
   18        3.699609      3.699606   1.000000   1.000000
   19        8.963081      8.963069   0.000000   0.000000
   20        9.566037      9.566028   0.000000   0.000000
   21       10.648185     10.648180   0.000000   0.000000
   22       10.808098     10.808086   0.000000   0.000000
   23       11.952170     11.952148   0.000000   0.000000
   24       12.804738     12.804712   0.000000   0.000000
   25       13.464901     13.463475   0.000000   0.000000
   26       13.992919     13.990041   0.000000   0.000000
 
  0.3750000E+00  0.1250000E+00 -0.2347982E-16  0.3125000E-02
    1      -39.426788    -39.426685   1.000000   1.000000
    2      -39.410903    -39.410816   1.000000   1.000000
    3      -13.721546    -13.721564   1.000000   1.000000
    4      -11.317431    -11.317447   1.000000   1.000000
    5      -10.167749    -10.167765   1.000000   1.000000
    6       -9.861121     -9.861136   1.000000   1.000000
    7       -5.952319     -5.952336   1.000000   1.000000
    8       -3.032995     -3.033012   1.000000   1.000000
    9       -2.098015     -2.098032   1.000000   1.000000
   10       -1.988496     -1.988512   1.000000   1.000000
   11        0.436004      0.435994   1.000000   1.000000
   12        0.806770      0.806762   1.000000   1.000000
   13        1.652540      1.652538   1.000000   1.000000
   14        2.246135      2.246133   1.000000   1.000000
   15        2.612732      2.612729   1.000000   1.000000
   16        3.218135      3.218131   1.000000   1.000000
   17        3.550777      3.550771   1.000000   1.000000
   18        3.862012      3.862003   1.000000   1.000000
   19        8.969528      8.969515   0.000000   0.000000
   20       10.233712     10.233700   0.000000   0.000000
   21       10.537697     10.537685   0.000000   0.000000
   22       10.884263     10.884251   0.000000   0.000000
   23       11.960571     11.960581   0.000000   0.000000
   24       12.683251     12.683587   0.000000   0.000000
   25       13.050688     13.049267   0.000000   0.000000
   26       13.558919     13.773118   0.000000   0.000000
 
  0.5000000E+00  0.1250000E+00 -0.7732593E-16  0.3125000E-02
    1      -39.426679    -39.426576   1.000000   1.000000
    2      -39.411004    -39.410917   1.000000   1.000000
    3      -13.692403    -13.692421   1.000000   1.000000
    4      -11.374627    -11.374643   1.000000   1.000000
    5      -10.161275    -10.161291   1.000000   1.000000
    6       -9.871564     -9.871579   1.000000   1.000000
    7       -5.894091     -5.894109   1.000000   1.000000
    8       -3.077469     -3.077486   1.000000   1.000000
    9       -2.172423     -2.172440   1.000000   1.000000
   10       -1.878908     -1.878925   1.000000   1.000000
   11        0.322126      0.322118   1.000000   1.000000
   12        0.775150      0.775143   1.000000   1.000000
   13        1.692769      1.692767   1.000000   1.000000
   14        2.344435      2.344432   1.000000   1.000000
   15        2.673155      2.673150   1.000000   1.000000
   16        3.162181      3.162178   1.000000   1.000000
   17        3.547818      3.547812   1.000000   1.000000
   18        3.889425      3.889414   1.000000   1.000000
   19        9.002363      9.002349   0.000000   0.000000
   20       10.375289     10.375269   0.000000   0.000000
   21       10.818899     10.818886   0.000000   0.000000
   22       10.915546     10.915534   0.000000   0.000000
   23       11.699495     11.699486   0.000000   0.000000
   24       12.552246     12.552162   0.000000   0.000000
   25       13.046568     13.043826   0.000000   0.000000
   26       13.341092     13.326079   0.000000   0.000000
 
 -0.3750000E+00  0.1250000E+00  0.6931340E-17  0.3125000E-02
    1      -39.427161    -39.427058   1.000000   1.000000
    2      -39.410531    -39.410443   1.000000   1.000000
    3      -13.813780    -13.813797   1.000000   1.000000
    4      -11.118382    -11.118398   1.000000   1.000000
    5      -10.123704    -10.123721   1.000000   1.000000
    6       -9.846038     -9.846053   1.000000   1.000000
    7       -6.220046     -6.220064   1.000000   1.000000
    8       -3.076621     -3.076637   1.000000   1.000000
    9       -2.339774     -2.339790   1.000000   1.000000
   10       -1.762877     -1.762895   1.000000   1.000000
   11        0.306610      0.306602   1.000000   1.000000
   12        0.973209      0.973199   1.000000   1.000000
   13        1.894201      1.894197   1.000000   1.000000
   14        2.225943      2.225942   1.000000   1.000000
   15        2.806583      2.806576   1.000000   1.000000
   16        3.121282      3.121277   1.000000   1.000000
   17        3.443538      3.443537   1.000000   1.000000
   18        3.764902      3.764894   1.000000   1.000000
   19        9.249720      9.249703   0.000000   0.000000
   20        9.728053      9.728043   0.000000   0.000000
   21       10.697307     10.697297   0.000000   0.000000
   22       11.151435     11.151420   0.000000   0.000000
   23       11.612463     11.612457   0.000000   0.000000
   24       12.699943     12.699942   0.000000   0.000000
   25       13.194260     13.195002   0.000000   0.000000
   26       13.584893     13.585759   0.000000   0.000000
 
 -0.2500000E+00  0.1250000E+00 -0.3180506E-16  0.3125000E-02
    1      -39.427888    -39.427786   1.000000   1.000000
    2      -39.409823    -39.409735   1.000000   1.000000
    3      -13.979058    -13.979076   1.000000   1.000000
    4      -10.731726    -10.731742   1.000000   1.000000
    5      -10.058515    -10.058530   1.000000   1.000000
    6       -9.763630     -9.763646   1.000000   1.000000
    7       -6.766786     -6.766805   1.000000   1.000000
    8       -3.003842     -3.003857   1.000000   1.000000
    9       -2.491226     -2.491242   1.000000   1.000000
   10       -1.760113     -1.760132   1.000000   1.000000
   11        0.311017      0.311008   1.000000   1.000000
   12        1.328844      1.328835   1.000000   1.000000
   13        1.988696      1.988687   1.000000   1.000000
   14        2.168677      2.168680   1.000000   1.000000
   15        2.950022      2.950013   1.000000   1.000000
   16        3.116253      3.116244   1.000000   1.000000
   17        3.355996      3.355999   1.000000   1.000000
   18        3.543170      3.543169   1.000000   1.000000
   19        8.742854      8.742853   0.000000   0.000000
   20        9.614917      9.614896   0.000000   0.000000
   21       10.555713     10.555708   0.000000   0.000000
   22       11.444208     11.444206   0.000000   0.000000
   23       11.859064     11.859056   0.000000   0.000000
   24       12.632521     12.632356   0.000000   0.000000
   25       13.327800     13.327072   0.000000   0.000000
   26       13.711218     13.712500   0.000000   0.000000
 
 -0.1250000E+00  0.1250000E+00 -0.3917818E-16  0.3125000E-02
    1      -39.428418    -39.428316   1.000000   1.000000
    2      -39.409287    -39.409199   1.000000   1.000000
    3      -14.092004    -14.092021   1.000000   1.000000
    4      -10.470533    -10.470549   1.000000   1.000000
    5      -10.007971    -10.007985   1.000000   1.000000
    6       -9.587726     -9.587741   1.000000   1.000000
    7       -7.260559     -7.260579   1.000000   1.000000
    8       -2.863978     -2.863993   1.000000   1.000000
    9       -2.614411     -2.614427   1.000000   1.000000
   10       -1.840530     -1.840549   1.000000   1.000000
   11        0.387208      0.387198   1.000000   1.000000
   12        1.343182      1.343183   1.000000   1.000000
   13        1.923074      1.923063   1.000000   1.000000
   14        2.552166      2.552160   1.000000   1.000000
   15        2.985631      2.985622   1.000000   1.000000
   16        3.147644      3.147633   1.000000   1.000000
   17        3.266127      3.266130   1.000000   1.000000
   18        3.388062      3.388065   1.000000   1.000000
   19        8.226819      8.226820   0.000000   0.000000
   20        9.151725      9.151713   0.000000   0.000000
   21       11.134598     11.134586   0.000000   0.000000
   22       11.764805     11.764777   0.000000   0.000000
   23       12.116548     12.116525   0.000000   0.000000
   24       12.342943     12.342879   0.000000   0.000000
   25       13.264960     13.264862   0.000000   0.000000
   26       13.686466     13.686269   0.000000   0.000000
 
 -0.3822774E-17  0.2500000E+00 -0.6187760E-16  0.3125000E-02
    1      -39.427212    -39.427109   1.000000   1.000000
    2      -39.410463    -39.410376   1.000000   1.000000
    3      -13.886584    -13.886601   1.000000   1.000000
    4      -11.068584    -11.068602   1.000000   1.000000
    5      -10.056590    -10.056605   1.000000   1.000000
    6       -9.597591     -9.597605   1.000000   1.000000
    7       -6.690822     -6.690842   1.000000   1.000000
    8       -2.913735     -2.913751   1.000000   1.000000
    9       -2.552391     -2.552406   1.000000   1.000000
   10       -1.768126     -1.768144   1.000000   1.000000
   11        0.363088      0.363079   1.000000   1.000000
   12        1.543173      1.543166   1.000000   1.000000
   13        1.860993      1.860985   1.000000   1.000000
   14        2.093309      2.093310   1.000000   1.000000
   15        2.687787      2.687782   1.000000   1.000000
   16        3.063926      3.063916   1.000000   1.000000
   17        3.451462      3.451462   1.000000   1.000000
   18        3.699621      3.699619   1.000000   1.000000
   19        8.836437      8.836427   0.000000   0.000000
   20        9.274658      9.274651   0.000000   0.000000
   21       10.787465     10.787461   0.000000   0.000000
   22       11.232989     11.232975   0.000000   0.000000
   23       11.845876     11.845868   0.000000   0.000000
   24       12.864187     12.864146   0.000000   0.000000
   25       13.435379     13.439846   0.000000   0.000000
   26       14.009413     14.035120   0.000000   0.000000
 
  0.1250000E+00  0.2500000E+00 -0.3245698E-16  0.3125000E-02
    1      -39.426738    -39.426634   1.000000   1.000000
    2      -39.410916    -39.410829   1.000000   1.000000
    3      -13.779132    -13.779149   1.000000   1.000000
    4      -11.265999    -11.266017   1.000000   1.000000
    5      -10.091650    -10.091665   1.000000   1.000000
    6       -9.727378     -9.727392   1.000000   1.000000
    7       -6.309172     -6.309191   1.000000   1.000000
    8       -3.045048     -3.045064   1.000000   1.000000
    9       -2.317906     -2.317921   1.000000   1.000000
   10       -1.832477     -1.832494   1.000000   1.000000
   11        0.476764      0.476755   1.000000   1.000000
   12        1.280074      1.280066   1.000000   1.000000
   13        1.762064      1.762056   1.000000   1.000000
   14        1.926603      1.926606   1.000000   1.000000
   15        2.705117      2.705111   1.000000   1.000000
   16        3.115746      3.115739   1.000000   1.000000
   17        3.563987      3.563982   1.000000   1.000000
   18        3.786166      3.786162   1.000000   1.000000
   19        8.944547      8.944530   0.000000   0.000000
   20        9.505268      9.505265   0.000000   0.000000
   21       10.567873     10.567871   0.000000   0.000000
   22       11.053879     11.053870   0.000000   0.000000
   23       11.837119     11.837146   0.000000   0.000000
   24       12.889437     12.889560   0.000000   0.000000
   25       13.450621     13.452159   0.000000   0.000000
   26       14.139651     14.215728   0.000000   0.000000
 
  0.2500000E+00  0.2500000E+00  0.4754713E-16  0.3125000E-02
    1      -39.426100    -39.425996   1.000000   1.000000
    2      -39.411567    -39.411480   1.000000   1.000000
    3      -13.610763    -13.610781   1.000000   1.000000
    4      -11.549456    -11.549473   1.000000   1.000000
    5      -10.140935    -10.140950   1.000000   1.000000
    6       -9.839114     -9.839129   1.000000   1.000000
    7       -5.820149     -5.820168   1.000000   1.000000
    8       -3.286420     -3.286437   1.000000   1.000000
    9       -2.094163     -2.094179   1.000000   1.000000
   10       -1.844181     -1.844199   1.000000   1.000000
   11        0.526980      0.526972   1.000000   1.000000
   12        0.859049      0.859045   1.000000   1.000000
   13        1.584564      1.584557   1.000000   1.000000
   14        2.119157      2.119155   1.000000   1.000000
   15        2.803773      2.803766   1.000000   1.000000
   16        3.163820      3.163815   1.000000   1.000000
   17        3.666269      3.666261   1.000000   1.000000
   18        3.815059      3.815053   1.000000   1.000000
   19        8.932727      8.932711   0.000000   0.000000
   20        9.879245      9.879239   0.000000   0.000000
   21       10.565989     10.565979   0.000000   0.000000
   22       10.958615     10.958596   0.000000   0.000000
   23       12.029244     12.029210   0.000000   0.000000
   24       12.647895     12.648026   0.000000   0.000000
   25       13.439866     13.409470   0.000000   0.000000
   26       14.439076     13.935149   0.000000   0.000000
 
  0.3750000E+00  0.2500000E+00 -0.6181013E-16  0.3125000E-02
    1      -39.425657    -39.425552   1.000000   1.000000
    2      -39.412015    -39.411929   1.000000   1.000000
    3      -13.474101    -13.474118   1.000000   1.000000
    4      -11.758777    -11.758794   1.000000   1.000000
    5      -10.166091    -10.166106   1.000000   1.000000
    6       -9.893424     -9.893439   1.000000   1.000000
    7       -5.476601     -5.476618   1.000000   1.000000
    8       -3.546718     -3.546736   1.000000   1.000000
    9       -1.947654     -1.947671   1.000000   1.000000
   10       -1.840396     -1.840412   1.000000   1.000000
   11        0.370774      0.370768   1.000000   1.000000
   12        0.842646      0.842639   1.000000   1.000000
   13        1.434727      1.434723   1.000000   1.000000
   14        2.254501      2.254494   1.000000   1.000000
   15        2.919270      2.919265   1.000000   1.000000
   16        3.306059      3.306054   1.000000   1.000000
   17        3.648782      3.648774   1.000000   1.000000
   18        3.802049      3.802040   1.000000   1.000000
   19        8.946803      8.946788   0.000000   0.000000
   20       10.249604     10.249592   0.000000   0.000000
   21       10.654778     10.654762   0.000000   0.000000
   22       10.860505     10.860489   0.000000   0.000000
   23       12.085139     12.086059   0.000000   0.000000
   24       12.823388     12.822929   0.000000   0.000000
   25       13.086956     13.111529   0.000000   0.000000
   26       13.530098     13.900520   0.000000   0.000000
 
  0.5000000E+00  0.2500000E+00  0.1014607E-15  0.3125000E-02
    1      -39.425708    -39.425603   1.000000   1.000000
    2      -39.411937    -39.411851   1.000000   1.000000
    3      -13.492837    -13.492855   1.000000   1.000000
    4      -11.722446    -11.722463   1.000000   1.000000
    5      -10.151716    -10.151731   1.000000   1.000000
    6       -9.893134     -9.893149   1.000000   1.000000
    7       -5.528936     -5.528953   1.000000   1.000000
    8       -3.655718     -3.655734   1.000000   1.000000
    9       -1.993831     -1.993847   1.000000   1.000000
   10       -1.696857     -1.696875   1.000000   1.000000
   11        0.255330      0.255324   1.000000   1.000000
   12        0.824003      0.823996   1.000000   1.000000
   13        1.639066      1.639061   1.000000   1.000000
   14        2.278261      2.278252   1.000000   1.000000
   15        2.943194      2.943191   1.000000   1.000000
   16        3.361806      3.361799   1.000000   1.000000
   17        3.565372      3.565369   1.000000   1.000000
   18        3.769588      3.769579   1.000000   1.000000
   19        9.088488      9.088472   0.000000   0.000000
   20       10.313248     10.313233   0.000000   0.000000
   21       10.740073     10.740064   0.000000   0.000000
   22       10.994537     10.994522   0.000000   0.000000
   23       11.804437     11.804441   0.000000   0.000000
   24       12.674704     12.674482   0.000000   0.000000
   25       13.105044     13.100820   0.000000   0.000000
   26       13.199660     13.214622   0.000000   0.000000
 
 -0.3750000E+00  0.2500000E+00 -0.5299495E-16  0.3125000E-02
    1      -39.426253    -39.426149   1.000000   1.000000
    2      -39.411409    -39.411323   1.000000   1.000000
    3      -13.646629    -13.646648   1.000000   1.000000
    4      -11.467779    -11.467795   1.000000   1.000000
    5      -10.111097    -10.111112   1.000000   1.000000
    6       -9.832448     -9.832463   1.000000   1.000000
    7       -5.945077     -5.945095   1.000000   1.000000
    8       -3.556825     -3.556839   1.000000   1.000000
    9       -2.140359     -2.140375   1.000000   1.000000
   10       -1.561734     -1.561754   1.000000   1.000000
   11        0.120619      0.120614   1.000000   1.000000
   12        1.103001      1.102992   1.000000   1.000000
   13        1.914745      1.914740   1.000000   1.000000
   14        2.220404      2.220395   1.000000   1.000000
   15        2.887624      2.887621   1.000000   1.000000
   16        3.136357      3.136350   1.000000   1.000000
   17        3.596908      3.596908   1.000000   1.000000
   18        3.698813      3.698808   1.000000   1.000000
   19        9.310426      9.310408   0.000000   0.000000
   20        9.869780      9.869768   0.000000   0.000000
   21       10.881352     10.881338   0.000000   0.000000
   22       11.204039     11.204013   0.000000   0.000000
   23       11.834816     11.834805   0.000000   0.000000
   24       12.146389     12.146322   0.000000   0.000000
   25       13.110370     13.115341   0.000000   0.000000