       N       E                     dE             d eps       ncg     rms          rms(c)
DAV:   1     0.206964846276E+03    0.20696E+03   -0.17370E+04 33696   0.136E+03
DAV:   2    -0.395457804217E+02   -0.24651E+03   -0.23813E+03 42040   0.321E+02
DAV:   3    -0.581411176594E+02   -0.18595E+02   -0.18505E+02 55378   0.811E+01
DAV:   4    -0.592217886120E+02   -0.10807E+01   -0.10772E+01 50830   0.162E+01
DAV:   5    -0.592871404555E+02   -0.65352E-01   -0.65347E-01 50328   0.293E+00    0.253E+01
RMM:   6    -0.533192379867E+02    0.59679E+01   -0.20476E+01 36848   0.215E+01    0.109E+01
RMM:   7    -0.536825327290E+02   -0.36329E+00   -0.48829E+00 50390   0.124E+01    0.557E+00
RMM:   8    -0.537760154623E+02   -0.93483E-01   -0.68679E-01 55808   0.532E+00    0.311E+00
RMM:   9    -0.537802262868E+02   -0.42108E-02   -0.23736E-01 52325   0.336E+00    0.987E-01
RMM:  10    -0.537897891995E+02   -0.95629E-02   -0.10720E-01 59827   0.199E+00    0.382E-01
RMM:  11    -0.537926174560E+02   -0.28283E-02   -0.58168E-02 61659   0.114E+00    0.213E-01
RMM:  12    -0.537956514607E+02   -0.30340E-02   -0.25414E-02 65294   0.732E-01    0.168E-01
RMM:  13    -0.537967716443E+02   -0.11202E-02   -0.97052E-03 64141   0.445E-01    0.550E-02
RMM:  14    -0.537972143763E+02   -0.44273E-03   -0.38142E-03 64479   0.299E-01    0.423E-02
RMM:  15    -0.537974157590E+02   -0.20138E-03   -0.17272E-03 63854   0.200E-01    0.220E-02
RMM:  16    -0.537974917032E+02   -0.75944E-04   -0.72987E-04 62949   0.131E-01    0.107E-02
RMM:  17    -0.537975330351E+02   -0.41332E-04   -0.36093E-04 61575   0.922E-02    0.634E-03
RMM:  18    -0.537975488856E+02   -0.15851E-04   -0.14302E-04 54562   0.647E-02    0.292E-03
RMM:  19    -0.537975534774E+02   -0.45918E-05   -0.44759E-05 42878   0.500E-02
   1 F= -.53797553E+02 E0= -.53797553E+02  d E =0.000000E+00  mag=     0.0000
