 vasp.5.4.4.18Apr17-6-g9f103f2a35 (build Aug 12 2020 11:57:02) complex          
  
 executed on             LinuxIFC date 2021.01.31  03:19:41
 running on   24 total cores
 distrk:  each k-point on   24 cores,    1 groups
 distr:  one band on NCORES_PER_BAND=   6 cores,    4 groups


--------------------------------------------------------------------------------------------------------


 INCAR:
 POTCAR:    PAW_PBE Li_sv 10Sep2004               
 POTCAR:    PAW_PBE P 06Sep2000                   
 POTCAR:    PAW_PBE O 08Apr2002                   
 POTCAR:    PAW_PBE Li_sv 10Sep2004               
   VRHFIN =Li: 1s2s2p                                                           
   LEXCH  = PE                                                                  
   EATOM  =   202.7858 eV,   14.9043 Ry                                         
                                                                                
   TITEL  = PAW_PBE Li_sv 10Sep2004                                             
   LULTRA =        F    use ultrasoft PP ?                                      
   IUNSCR =        0    unscreen: 0-lin 1-nonlin 2-no                           
   RPACOR =    0.000    partial core radius                                     
   POMASS =    7.010; ZVAL   =    3.000    mass and valenz                      
   RCORE  =    1.700    outmost cutoff radius                                   
   RWIGS  =    2.050; RWIGS  =    1.085    wigner-seitz radius (au A)           
   ENMAX  =  499.034; ENMIN  =  374.276 eV                                      
   ICORE  =        2    local potential                                         
   LCOR   =        T    correct aug charges                                     
   LPAW   =        T    paw PP                                                  
   EAUG   =  628.945                                                            
   RMAX   =    1.732    core radius for proj-oper                               
   RAUG   =    1.300    factor for augmentation sphere                          
   RDEP   =    1.728    radius for radial grids                                 
   RDEPT  =    1.329    core radius for aug-charge                              
                                                                                
   Atomic configuration                                                         
    4 entries                                                                   
     n  l   j            E        occ.                                          
     1  0  0.50       -51.8549   2.0000                                         
     2  0  0.50        -2.8742   1.0000                                         
     2  1  0.50        -1.3606   0.0000                                         
     3  2  1.50        -1.3606   0.0000                                         
   Description                                                                  
     l       E           TYP  RCUT    TYP  RCUT                                 
     0    -51.8548813     23  1.400                                             
     0     -2.8742052     23  1.700                                             
     1     -1.3605826     23  1.400                                             
     2     -1.3605826     23  1.400                                             
  local pseudopotential read in
  atomic valenz-charges read in
  non local Contribution for L=           0  read in
    real space projection operators read in
  non local Contribution for L=           0  read in
    real space projection operators read in
  non local Contribution for L=           1  read in
    real space projection operators read in
    PAW grid and wavefunctions read in
 
   number of l-projection  operators is LMAX  =           3
   number of lm-projection operators is LMMAX =           5
 
 POTCAR:    PAW_PBE P 06Sep2000                   
   VRHFIN =P : s2p3                                                             
   LEXCH  = PE                                                                  
   EATOM  =   176.0430 eV,   12.9388 Ry                                         
                                                                                
   TITEL  = PAW_PBE P 06Sep2000                                                 
   LULTRA =        F    use ultrasoft PP ?                                      
   IUNSCR =        1    unscreen: 0-lin 1-nonlin 2-no                           
   RPACOR =    1.500    partial core radius                                     
   POMASS =   30.974; ZVAL   =    5.000    mass and valenz                      
   RCORE  =    1.900    outmost cutoff radius                                   
   RWIGS  =    2.330; RWIGS  =    1.233    wigner-seitz radius (au A)           
   ENMAX  =  255.040; ENMIN  =  191.280 eV                                      
   ICORE  =        2    local potential                                         
   LCOR   =        T    correct aug charges                                     
   LPAW   =        T    paw PP                                                  
   EAUG   =  342.924                                                            
   DEXC   =    0.000                                                            
   RMAX   =    1.935    core radius for proj-oper                               
   RAUG   =    1.300    factor for augmentation sphere                          
   RDEP   =    1.931    radius for radial grids                                 
   RDEPT  =    1.794    core radius for aug-charge                              
                                                                                
   Atomic configuration                                                         
    6 entries                                                                   
     n  l   j            E        occ.                                          
     1  0  0.50     -2084.0982   2.0000                                         
     2  0  0.50      -173.9859   2.0000                                         
     2  1  1.50      -124.4865   6.0000                                         
     3  0  0.50       -13.9692   2.0000                                         
     3  1  0.50        -5.5067   3.0000                                         
     3  2  1.50        -5.4423   0.0000                                         
   Description                                                                  
     l       E           TYP  RCUT    TYP  RCUT                                 
     0    -13.9691527     23  1.900                                             
     0    -11.7794650     23  1.900                                             
     1     -5.5066937     23  1.900                                             
     1     -0.2556953     23  1.900                                             
     2     -5.4423304     23  1.900                                             
  local pseudopotential read in
  partial core-charges read in
  partial kinetic energy density read in
  atomic valenz-charges read in
  non local Contribution for L=           0  read in
    real space projection operators read in
  non local Contribution for L=           0  read in
    real space projection operators read in
  non local Contribution for L=           1  read in
    real space projection operators read in
  non local Contribution for L=           1  read in
    real space projection operators read in
    PAW grid and wavefunctions read in
 
   number of l-projection  operators is LMAX  =           4
   number of lm-projection operators is LMMAX =           8
 
 POTCAR:    PAW_PBE O 08Apr2002                   
   VRHFIN =O: s2p4                                                              
   LEXCH  = PE                                                                  
   EATOM  =   432.3788 eV,   31.7789 Ry                                         
                                                                                
   TITEL  = PAW_PBE O 08Apr2002                                                 
   LULTRA =        F    use ultrasoft PP ?                                      
   IUNSCR =        1    unscreen: 0-lin 1-nonlin 2-no                           
   RPACOR =    1.200    partial core radius                                     
   POMASS =   16.000; ZVAL   =    6.000    mass and valenz                      
   RCORE  =    1.520    outmost cutoff radius                                   
   RWIGS  =    1.550; RWIGS  =    0.820    wigner-seitz radius (au A)           
   ENMAX  =  400.000; ENMIN  =  300.000 eV                                      
   ICORE  =        2    local potential                                         
   LCOR   =        T    correct aug charges                                     
   LPAW   =        T    paw PP                                                  
   EAUG   =  605.392                                                            
   DEXC   =    0.000                                                            
   RMAX   =    1.553    core radius for proj-oper                               
   RAUG   =    1.300    factor for augmentation sphere                          
   RDEP   =    1.550    radius for radial grids                                 
   RDEPT  =    1.329    core radius for aug-charge                              
                                                                                
   Atomic configuration                                                         
    4 entries                                                                   
     n  l   j            E        occ.                                          
     1  0  0.50      -514.6923   2.0000                                         
     2  0  0.50       -23.9615   2.0000                                         
     2  1  0.50        -9.0305   4.0000                                         
     3  2  1.50        -9.5241   0.0000                                         
   Description                                                                  
     l       E           TYP  RCUT    TYP  RCUT                                 
     0    -23.9615318     23  1.200                                             
     0     -9.5240782     23  1.200                                             
     1     -9.0304911     23  1.520                                             
     1      8.1634956     23  1.520                                             
     2     -9.5240782      7  1.500                                             
  local pseudopotential read in
  partial core-charges read in
  partial kinetic energy density read in
  kinetic energy density of atom read in
  atomic valenz-charges read in
  non local Contribution for L=           0  read in
    real space projection operators read in
  non local Contribution for L=           0  read in
    real space projection operators read in
  non local Contribution for L=           1  read in
    real space projection operators read in
  non local Contribution for L=           1  read in
    real space projection operators read in
    PAW grid and wavefunctions read in
 
   number of l-projection  operators is LMAX  =           4
   number of lm-projection operators is LMMAX =           8
 
 Optimization of the real space projectors (new method)

 maximal supplied QI-value         = 22.11
 optimisation between [QCUT,QGAM] = [ 11.50, 23.22] = [ 37.02,150.92] Ry 
 Optimized for a Real-space Cutoff    1.08 Angstroem

   l    n(q)    QCUT    max X(q) W(low)/X(q) W(high)/X(q)  e(spline) 
   0      7    11.497    10.506    0.36E-04    0.62E-04    0.14E-07
   0      7    11.497     8.367    0.65E-04    0.14E-03    0.28E-07
   1      7    11.497     8.983    0.21E-03    0.43E-03    0.90E-07
 Optimization of the real space projectors (new method)

 maximal supplied QI-value         = 19.84
 optimisation between [QCUT,QGAM] = [ 11.51, 23.22] = [ 37.09,150.92] Ry 
 Optimized for a Real-space Cutoff    1.21 Angstroem

   l    n(q)    QCUT    max X(q) W(low)/X(q) W(high)/X(q)  e(spline) 
   0      8    11.508   160.924    0.96E-04    0.17E-03    0.52E-07
   0      8    11.508   130.086    0.95E-04    0.17E-03    0.51E-07
   1      8    11.508    74.434    0.16E-03    0.74E-04    0.91E-07
   1      8    11.508    49.120    0.16E-03    0.71E-04    0.89E-07
 Optimization of the real space projectors (new method)

 maximal supplied QI-value         = 24.76
 optimisation between [QCUT,QGAM] = [ 11.64, 23.27] = [ 37.91,151.63] Ry 
 Optimized for a Real-space Cutoff    1.14 Angstroem

   l    n(q)    QCUT    max X(q) W(low)/X(q) W(high)/X(q)  e(spline) 
   0      8    11.635    20.381    0.10E-03    0.33E-03    0.24E-06
   0      8    11.635    15.268    0.11E-03    0.35E-03    0.26E-06
   1      7    11.635     5.964    0.24E-03    0.31E-03    0.30E-06
   1      7    11.635     5.382    0.22E-03    0.25E-03    0.26E-06
  PAW_PBE Li_sv 10Sep2004               :
 energy of atom  1       EATOM= -202.7858
 kinetic energy error for atom=    0.0130 (will be added to EATOM!!)
  PAW_PBE P 06Sep2000                   :
 energy of atom  2       EATOM= -176.0430
 kinetic energy error for atom=    0.0011 (will be added to EATOM!!)
  PAW_PBE O 08Apr2002                   :
 energy of atom  3       EATOM= -432.3788
 kinetic energy error for atom=    0.0208 (will be added to EATOM!!)
 
 
 POSCAR: Li6 P2 O8                               
  positions in direct lattice
  No initial velocities read in
 exchange correlation table for  LEXCH =        8
   RHO(1)=    0.500       N(1)  =     2000
   RHO(2)=  100.500       N(2)  =     4000
 


--------------------------------------------------------------------------------------------------------


 ion  position               nearest neighbor table
   1  0.509  0.845  0.000-  12 1.98  15 2.02  13 2.05  16 2.05
   2  0.009  0.155  0.500-  11 1.98  10 2.02   9 2.05  14 2.05
   3  0.508  0.326  0.253-  12 1.95  13 1.98  10 1.98  14 2.00
   4  0.008  0.674  0.247-  11 1.95  14 1.98  15 1.98  13 2.00
   5  0.008  0.674  0.753-  11 1.95   9 1.98  15 1.98  16 2.00
   6  0.508  0.326  0.747-  12 1.95  16 1.98  10 1.98   9 2.00
   7  0.501  0.824  0.500-  11 1.56  10 1.56  13 1.56  16 1.56
   8  0.001  0.176  0.000-  12 1.56  15 1.56  14 1.56   9 1.56
   9  0.107  0.314  0.793-   8 1.56   5 1.98   6 2.00   2 2.05
  10  0.602  0.104  0.500-   7 1.56   6 1.98   3 1.98   2 2.02
  11  0.185  0.818  0.500-   7 1.56   5 1.95   4 1.95   2 1.98
  12  0.685  0.182  0.000-   8 1.56   6 1.95   3 1.95   1 1.98
  13  0.607  0.686  0.293-   7 1.56   3 1.98   4 2.00   1 2.05
  14  0.107  0.314  0.207-   8 1.56   4 1.98   3 2.00   2 2.05
  15  0.102  0.896  0.000-   8 1.56   5 1.98   4 1.98   1 2.02
  16  0.607  0.686  0.707-   7 1.56   6 1.98   5 2.00   1 2.05
 
  LATTYP: Found a simple orthorhombic cell.
 ALAT       =     4.9224480000
 B/A-ratio  =     1.0759691113
 C/A-ratio  =     1.2546879114
  
  Lattice vectors:
  
 A1 = (   4.9224480000,   0.0000000000,   0.0000000000)
 A2 = (   0.0000000000,   5.2964020000,   0.0000000000)
 A3 = (   0.0000000000,   0.0000000000,   6.1761360000)


Analysis of symmetry for initial positions (statically):
=====================================================================
 Subroutine PRICEL returns:
 Original cell was already a primitive cell.
 

 Routine SETGRP: Setting up the symmetry group for a 
 simple orthorhombic supercell.


 Subroutine GETGRP returns: Found  4 space group operations
 (whereof  2 operations were pure point group operations)
 out of a pool of  8 trial point group operations.


The static configuration has the point symmetry C_1h.
 The point group associated with its full space group is C_2v.


Analysis of symmetry for dynamics (positions and initial velocities):
=====================================================================
 Subroutine PRICEL returns:
 Original cell was already a primitive cell.
 

 Routine SETGRP: Setting up the symmetry group for a 
 simple orthorhombic supercell.


 Subroutine GETGRP returns: Found  4 space group operations
 (whereof  2 operations were pure point group operations)
 out of a pool of  8 trial point group operations.


The dynamic configuration has the point symmetry C_1h.
 The point group associated with its full space group is C_2v.


Analysis of structural, dynamic, and magnetic symmetry:
=====================================================================
 Subroutine PRICEL returns:
 Original cell was already a primitive cell.
 

 Routine SETGRP: Setting up the symmetry group for a 
 simple orthorhombic supercell.


 Subroutine GETGRP returns: Found  4 space group operations
 (whereof  2 operations were pure point group operations)
 out of a pool of  8 trial point group operations.


The magnetic configuration has the point symmetry C_1h.
 The point group associated with its full space group is C_2v.


 Subroutine INISYM returns: Found  4 space group operations
 (whereof  2 operations are pure point group operations),
 and found     1 'primitive' translations

 
 
 KPOINTS: Fully automatic kpoint scheme           

Automatic generation of k-mesh.
 generate k-points for:    7    6    5
Space group operators:
 irot       det(A)        alpha          n_x          n_y          n_z        tau_x        tau_y        tau_z
    1     1.000000     0.000001     1.000000     0.000000     0.000000     0.000000     0.000000     0.000000
    2    -1.000000   180.000000     0.000000     0.000000     1.000000     0.000000     0.000000     0.000000
    3    -1.000000   180.000000     0.000000     1.000000     0.000000     0.500000     0.000000     0.500000
    4     1.000000   180.000000     1.000000     0.000000     0.000000     0.500000     0.000000     0.500000
 
 Subroutine IBZKPT returns following result:
 ===========================================
 
 Found     48 irreducible k-points:
 
 Following reciprocal coordinates:
            Coordinates               Weight
  0.000000  0.000000  0.000000      1.000000
  0.142857  0.000000  0.000000      2.000000
  0.285714  0.000000  0.000000      2.000000
  0.428571  0.000000  0.000000      2.000000
  0.000000  0.166667  0.000000      2.000000
  0.142857  0.166667  0.000000      4.000000
  0.285714  0.166667  0.000000      4.000000
  0.428571  0.166667  0.000000      4.000000
  0.000000  0.333333  0.000000      2.000000
  0.142857  0.333333  0.000000      4.000000
  0.285714  0.333333  0.000000      4.000000
  0.428571  0.333333  0.000000      4.000000
  0.000000  0.500000  0.000000      1.000000
  0.142857  0.500000  0.000000      2.000000
  0.285714  0.500000  0.000000      2.000000
  0.428571  0.500000  0.000000      2.000000
  0.000000  0.000000  0.200000      2.000000
  0.142857  0.000000  0.200000      4.000000
  0.285714  0.000000  0.200000      4.000000
  0.428571  0.000000  0.200000      4.000000
  0.000000  0.166667  0.200000      4.000000
  0.142857  0.166667  0.200000      8.000000
  0.285714  0.166667  0.200000      8.000000
  0.428571  0.166667  0.200000      8.000000
  0.000000  0.333333  0.200000      4.000000
  0.142857  0.333333  0.200000      8.000000
  0.285714  0.333333  0.200000      8.000000
  0.428571  0.333333  0.200000      8.000000
  0.000000  0.500000  0.200000      2.000000
  0.142857  0.500000  0.200000      4.000000
  0.285714  0.500000  0.200000      4.000000
  0.428571  0.500000  0.200000      4.000000
  0.000000  0.000000  0.400000      2.000000
  0.142857  0.000000  0.400000      4.000000
  0.285714  0.000000  0.400000      4.000000
  0.428571  0.000000  0.400000      4.000000
  0.000000  0.166667  0.400000      4.000000
  0.142857  0.166667  0.400000      8.000000
  0.285714  0.166667  0.400000      8.000000
  0.428571  0.166667  0.400000      8.000000
  0.000000  0.333333  0.400000      4.000000
  0.142857  0.333333  0.400000      8.000000
  0.285714  0.333333  0.400000      8.000000
  0.428571  0.333333  0.400000      8.000000
  0.000000  0.500000  0.400000      2.000000
  0.142857  0.500000  0.400000      4.000000
  0.285714  0.500000  0.400000      4.000000
  0.428571  0.500000  0.400000      4.000000
 
 Following cartesian coordinates:
            Coordinates               Weight
  0.000000  0.000000  0.000000      1.000000
  0.029022  0.000000  0.000000      2.000000
  0.058043  0.000000  0.000000      2.000000
  0.087065  0.000000  0.000000      2.000000
  0.000000  0.031468  0.000000      2.000000
  0.029022  0.031468  0.000000      4.000000
  0.058043  0.031468  0.000000      4.000000
  0.087065  0.031468  0.000000      4.000000
  0.000000  0.062936  0.000000      2.000000
  0.029022  0.062936  0.000000      4.000000
  0.058043  0.062936  0.000000      4.000000
  0.087065  0.062936  0.000000      4.000000
  0.000000  0.094404  0.000000      1.000000
  0.029022  0.094404  0.000000      2.000000
  0.058043  0.094404  0.000000      2.000000
  0.087065  0.094404  0.000000      2.000000
  0.000000  0.000000  0.032383      2.000000
  0.029022  0.000000  0.032383      4.000000
  0.058043  0.000000  0.032383      4.000000
  0.087065  0.000000  0.032383      4.000000
  0.000000  0.031468  0.032383      4.000000
  0.029022  0.031468  0.032383      8.000000
  0.058043  0.031468  0.032383      8.000000
  0.087065  0.031468  0.032383      8.000000
  0.000000  0.062936  0.032383      4.000000
  0.029022  0.062936  0.032383      8.000000
  0.058043  0.062936  0.032383      8.000000
  0.087065  0.062936  0.032383      8.000000
  0.000000  0.094404  0.032383      2.000000
  0.029022  0.094404  0.032383      4.000000
  0.058043  0.094404  0.032383      4.000000
  0.087065  0.094404  0.032383      4.000000
  0.000000  0.000000  0.064765      2.000000
  0.029022  0.000000  0.064765      4.000000
  0.058043  0.000000  0.064765      4.000000
  0.087065  0.000000  0.064765      4.000000
  0.000000  0.031468  0.064765      4.000000
  0.029022  0.031468  0.064765      8.000000
  0.058043  0.031468  0.064765      8.000000
  0.087065  0.031468  0.064765      8.000000
  0.000000  0.062936  0.064765      4.000000
  0.029022  0.062936  0.064765      8.000000
  0.058043  0.062936  0.064765      8.000000
  0.087065  0.062936  0.064765      8.000000
  0.000000  0.094404  0.064765      2.000000
  0.029022  0.094404  0.064765      4.000000
  0.058043  0.094404  0.064765      4.000000
  0.087065  0.094404  0.064765      4.000000
 
 TETIRR: Found    621 inequivalent tetrahedra from     1260


--------------------------------------------------------------------------------------------------------




 Dimension of arrays:
   k-points           NKPTS =     48   k-points in BZ     NKDIM =     48   number of bands    NBANDS=     48
   number of dos      NEDOS =    301   number of ions     NIONS =     16
   non local maximal  LDIM  =      4   non local SUM 2l+1 LMDIM =      8
   total plane-waves  NPLWV =  76800
   max r-space proj   IRMAX =   3596   max aug-charges    IRDMAX=  14713
   dimension x,y,z NGX =    40 NGY =   40 NGZ =   48
   dimension x,y,z NGXF=    80 NGYF=   80 NGZF=   96
   support grid    NGXF=    80 NGYF=   80 NGZF=   96
   ions per type =               6   2   8
   NGX,Y,Z   is equivalent  to a cutoff of  13.51, 12.56, 12.92 a.u.
   NGXF,Y,Z  is equivalent  to a cutoff of  27.02, 25.11, 25.84 a.u.

 SYSTEM =  unknown system                          
 POSCAR =  Li6 P2 O8                               

 Startparameter for this run:
   NWRITE =      2    write-flag & timer
   PREC   = accura    normal or accurate (medium, high low for compatibility)
   ISTART =      0    job   : 0-new  1-cont  2-samecut
   ICHARG =      2    charge: 1-file 2-atom 10-const
   ISPIN  =      2    spin polarized calculation?
   LNONCOLLINEAR =      F non collinear calculations
   LSORBIT =      F    spin-orbit coupling
   INIWAV =      1    electr: 0-lowe 1-rand  2-diag
   LASPH  =      T    aspherical Exc in radial PAW
   METAGGA=      F    non-selfconsistent MetaGGA calc.

 Electronic Relaxation 1
   ENCUT  =  520.0 eV  38.22 Ry    6.18 a.u.   9.15  9.85 11.48*2*pi/ulx,y,z
   ENINI  =  520.0     initial cutoff
   ENAUG  =  628.9 eV  augmentation charge cutoff
   NELM   =    100;   NELMIN=  2; NELMDL= -5     # of ELM steps 
   EDIFF  = 0.1E-04   stopping-criterion for ELM
   LREAL  =      T    real-space projection
   NLSPLINE    = F    spline interpolate recip. space projectors
   LCOMPAT=      F    compatible to vasp.4.4
   GGA_COMPAT  = T    GGA compatible to vasp.4.4-vasp.4.6
   LMAXPAW     = -100 max onsite density
   LMAXMIX     =    2 max onsite mixed and CHGCAR
   VOSKOWN=      0    Vosko Wilk Nusair interpolation
   ROPT   =   -0.00025  -0.00025  -0.00025
 Ionic relaxation
   EDIFFG = 0.1E-03   stopping-criterion for IOM
   NSW    =     99    number of steps for IOM
   NBLOCK =      1;   KBLOCK =     99    inner block; outer block 
   IBRION =      2    ionic relax: 0-MD 1-quasi-New 2-CG
   NFREE  =      1    steps in history (QN), initial steepest desc. (CG)
   ISIF   =      3    stress and relaxation
   IWAVPR =     11    prediction:  0-non 1-charg 2-wave 3-comb
   ISYM   =      2    0-nonsym 1-usesym 2-fastsym
   LCORR  =      T    Harris-Foulkes like correction to forces

   POTIM  = 0.5000    time-step for ionic-motion
   TEIN   =    0.0    initial temperature
   TEBEG  =    0.0;   TEEND  =   0.0 temperature during run
   SMASS  =  -3.00    Nose mass-parameter (am)
   estimated Nose-frequenzy (Omega)   =  0.10E-29 period in steps =****** mass=  -0.554E-27a.u.
   SCALEE = 1.0000    scale energy and forces
   NPACO  =    256;   APACO  = 16.0  distance and # of slots for P.C.
   PSTRESS=    0.0 pullay stress

  Mass of Ions in am
   POMASS =   7.01 30.97 16.00
  Ionic Valenz
   ZVAL   =   3.00  5.00  6.00
  Atomic Wigner-Seitz radii
   RWIGS  =  -1.00 -1.00 -1.00
  virtual crystal weights 
   VCA    =   1.00  1.00  1.00
   NELECT =      76.0000    total number of electrons
   NUPDOWN=      -1.0000    fix difference up-down

 DOS related values:
   EMIN   =  10.00;   EMAX   =-10.00  energy-range for DOS
   EFERMI =   0.00
   ISMEAR =    -5;   SIGMA  =   0.05  broadening in eV -4-tet -1-fermi 0-gaus

 Electronic relaxation 2 (details)
   IALGO  =     68    algorithm
   LDIAG  =      T    sub-space diagonalisation (order eigenvalues)
   LSUBROT=      F    optimize rotation matrix (better conditioning)
   TURBO    =      0    0=normal 1=particle mesh
   IRESTART =      0    0=no restart 2=restart with 2 vectors
   NREBOOT  =      0    no. of reboots
   NMIN     =      0    reboot dimension
   EREF     =   0.00    reference energy to select bands
   IMIX   =      4    mixing-type and parameters
     AMIX     =   0.40;   BMIX     =  1.00
     AMIX_MAG =   1.60;   BMIX_MAG =  1.00
     AMIN     =   0.10
     WC   =   100.;   INIMIX=   1;  MIXPRE=   1;  MAXMIX= -45

 Intra band minimization:
   WEIMIN = 0.0010     energy-eigenvalue tresh-hold
   EBREAK =  0.52E-07  absolut break condition
   DEPER  =   0.30     relativ break condition  

   TIME   =   0.40     timestep for ELM

  volume/ion in A,a.u.               =      10.06        67.91
  Fermi-wavevector in a.u.,A,eV,Ry     =   1.274637  2.408714 22.105365  1.624698
  Thomas-Fermi vector in A             =   2.407394
 
 Write flags
   LWAVE        =      F    write WAVECAR
   LDOWNSAMPLE  =      F    k-point downsampling of WAVECAR
   LCHARG       =      F    write CHGCAR
   LVTOT        =      F    write LOCPOT, total local potential
   LVHAR        =      F    write LOCPOT, Hartree potential only
   LELF         =      F    write electronic localiz. function (ELF)
   LORBIT       =     11    0 simple, 1 ext, 2 COOP (PROOUT), +10 PAW based schemes


 Dipole corrections
   LMONO  =      F    monopole corrections only (constant potential shift)
   LDIPOL =      F    correct potential (dipole corrections)
   IDIPOL =      0    1-x, 2-y, 3-z, 4-all directions 
   EPSILON=  1.0000000 bulk dielectric constant

 Exchange correlation treatment:
   GGA     =    --    GGA type
   LEXCH   =     8    internal setting for exchange type
   VOSKOWN=      0    Vosko Wilk Nusair interpolation
   LHFCALC =     F    Hartree Fock is set to
   LHFONE  =     F    Hartree Fock one center treatment
   AEXX    =    0.0000 exact exchange contribution

 Linear response parameters
   LEPSILON=     F    determine dielectric tensor
   LRPA    =     F    only Hartree local field effects (RPA)
   LNABLA  =     F    use nabla operator in PAW spheres
   LVEL    =     F    velocity operator in full k-point grid
   LINTERFAST=   F  fast interpolation
   KINTER  =     0    interpolate to denser k-point grid
   CSHIFT  =0.1000    complex shift for real part using Kramers Kronig
   OMEGAMAX=  -1.0    maximum frequency
   DEG_THRESHOLD= 0.2000000E-02 threshold for treating states as degnerate
   RTIME   =   -0.100 relaxation time in fs
  (WPLASMAI=    0.000 imaginary part of plasma frequency in eV, 0.658/RTIME)
   DFIELD  = 0.0000000 0.0000000 0.0000000 field for delta impulse in time
 
 Orbital magnetization related:
   ORBITALMAG=     F  switch on orbital magnetization
   LCHIMAG   =     F  perturbation theory with respect to B field
   DQ        =  0.001000  dq finite difference perturbation B field
   LLRAUG    =     F  two centre corrections for induced B field



--------------------------------------------------------------------------------------------------------


 conjugate gradient relaxation of ions
 charge density and potential will be updated during run
 spin polarized calculation
 RMM-DIIS sequential band-by-band and
  variant of blocked Davidson during initial phase
 perform sub-space diagonalisation
    before iterative eigenvector-optimisation
 modified Broyden-mixing scheme, WC =      100.0
 initial mixing is a Kerker type mixing with AMIX =  0.4000 and BMIX =      1.0000
 Hartree-type preconditioning will be used
 using additional bands           10
 real space projection scheme for non local part
 use partial core corrections
 calculate Harris-corrections to forces 
   (improved forces if not selfconsistent)
 use gradient corrections 
 use of overlap-Matrix (Vanderbilt PP)
 Fermi weights with tetrahedron method with Bloechl corrections


--------------------------------------------------------------------------------------------------------


  energy-cutoff  :      520.00
  volume of cell :      161.02
      direct lattice vectors                 reciprocal lattice vectors
     4.922448000  0.000000000  0.000000000     0.203150953  0.000000000  0.000000000
     0.000000000  5.296402000  0.000000000     0.000000000  0.188807421  0.000000000
     0.000000000  0.000000000  6.176136000     0.000000000  0.000000000  0.161913533

  length of vectors
     4.922448000  5.296402000  6.176136000     0.203150953  0.188807421  0.161913533


 
 k-points in units of 2pi/SCALE and weight: Fully automatic kpoint scheme           
   0.00000000  0.00000000  0.00000000       0.005
   0.02902156  0.00000000  0.00000000       0.010
   0.05804313  0.00000000  0.00000000       0.010
   0.08706469  0.00000000  0.00000000       0.010
   0.00000000  0.03146790  0.00000000       0.010
   0.02902156  0.03146790  0.00000000       0.019
   0.05804313  0.03146790  0.00000000       0.019
   0.08706469  0.03146790  0.00000000       0.019
   0.00000000  0.06293581  0.00000000       0.010
   0.02902156  0.06293581  0.00000000       0.019
   0.05804313  0.06293581  0.00000000       0.019
   0.08706469  0.06293581  0.00000000       0.019
   0.00000000  0.09440371  0.00000000       0.005
   0.02902156  0.09440371  0.00000000       0.010
   0.05804313  0.09440371  0.00000000       0.010
   0.08706469  0.09440371  0.00000000       0.010
   0.00000000  0.00000000  0.03238271       0.010
   0.02902156  0.00000000  0.03238271       0.019
   0.05804313  0.00000000  0.03238271       0.019
   0.08706469  0.00000000  0.03238271       0.019
   0.00000000  0.03146790  0.03238271       0.019
   0.02902156  0.03146790  0.03238271       0.038
   0.05804313  0.03146790  0.03238271       0.038
   0.08706469  0.03146790  0.03238271       0.038
   0.00000000  0.06293581  0.03238271       0.019
   0.02902156  0.06293581  0.03238271       0.038
   0.05804313  0.06293581  0.03238271       0.038
   0.08706469  0.06293581  0.03238271       0.038
   0.00000000  0.09440371  0.03238271       0.010
   0.02902156  0.09440371  0.03238271       0.019
   0.05804313  0.09440371  0.03238271       0.019
   0.08706469  0.09440371  0.03238271       0.019
   0.00000000  0.00000000  0.06476541       0.010
   0.02902156  0.00000000  0.06476541       0.019
   0.05804313  0.00000000  0.06476541       0.019
   0.08706469  0.00000000  0.06476541       0.019
   0.00000000  0.03146790  0.06476541       0.019
   0.02902156  0.03146790  0.06476541       0.038
   0.05804313  0.03146790  0.06476541       0.038
   0.08706469  0.03146790  0.06476541       0.038
   0.00000000  0.06293581  0.06476541       0.019
   0.02902156  0.06293581  0.06476541       0.038
   0.05804313  0.06293581  0.06476541       0.038
   0.08706469  0.06293581  0.06476541       0.038
   0.00000000  0.09440371  0.06476541       0.010
   0.02902156  0.09440371  0.06476541       0.019
   0.05804313  0.09440371  0.06476541       0.019
   0.08706469  0.09440371  0.06476541       0.019
 
 k-points in reciprocal lattice and weights: Fully automatic kpoint scheme           
   0.00000000  0.00000000  0.00000000       0.005
   0.14285714  0.00000000  0.00000000       0.010
   0.28571429  0.00000000  0.00000000       0.010
   0.42857143  0.00000000  0.00000000       0.010
   0.00000000  0.16666667  0.00000000       0.010
   0.14285714  0.16666667  0.00000000       0.019
   0.28571429  0.16666667  0.00000000       0.019
   0.42857143  0.16666667  0.00000000       0.019
   0.00000000  0.33333333  0.00000000       0.010
   0.14285714  0.33333333  0.00000000       0.019
   0.28571429  0.33333333  0.00000000       0.019
   0.42857143  0.33333333  0.00000000       0.019
   0.00000000  0.50000000  0.00000000       0.005
   0.14285714  0.50000000  0.00000000       0.010
   0.28571429  0.50000000  0.00000000       0.010
   0.42857143  0.50000000  0.00000000       0.010
   0.00000000  0.00000000  0.20000000       0.010
   0.14285714  0.00000000  0.20000000       0.019
   0.28571429  0.00000000  0.20000000       0.019
   0.42857143  0.00000000  0.20000000       0.019
   0.00000000  0.16666667  0.20000000       0.019
   0.14285714  0.16666667  0.20000000       0.038
   0.28571429  0.16666667  0.20000000       0.038
   0.42857143  0.16666667  0.20000000       0.038
   0.00000000  0.33333333  0.20000000       0.019
   0.14285714  0.33333333  0.20000000       0.038
   0.28571429  0.33333333  0.20000000       0.038
   0.42857143  0.33333333  0.20000000       0.038
   0.00000000  0.50000000  0.20000000       0.010
   0.14285714  0.50000000  0.20000000       0.019
   0.28571429  0.50000000  0.20000000       0.019
   0.42857143  0.50000000  0.20000000       0.019
   0.00000000  0.00000000  0.40000000       0.010
   0.14285714  0.00000000  0.40000000       0.019
   0.28571429  0.00000000  0.40000000       0.019
   0.42857143  0.00000000  0.40000000       0.019
   0.00000000  0.16666667  0.40000000       0.019
   0.14285714  0.16666667  0.40000000       0.038
   0.28571429  0.16666667  0.40000000       0.038
   0.42857143  0.16666667  0.40000000       0.038
   0.00000000  0.33333333  0.40000000       0.019
   0.14285714  0.33333333  0.40000000       0.038
   0.28571429  0.33333333  0.40000000       0.038
   0.42857143  0.33333333  0.40000000       0.038
   0.00000000  0.50000000  0.40000000       0.010
   0.14285714  0.50000000  0.40000000       0.019
   0.28571429  0.50000000  0.40000000       0.019
   0.42857143  0.50000000  0.40000000       0.019
 
 position of ions in fractional coordinates (direct lattice) 
   0.50941700  0.84452000  0.00000000
   0.00941700  0.15548000  0.50000000
   0.50836300  0.32643400  0.25287300
   0.00836300  0.67356600  0.24712700
   0.00836300  0.67356600  0.75287300
   0.50836300  0.32643400  0.74712700
   0.50142000  0.82426100  0.50000000
   0.00142000  0.17573900  0.00000000
   0.10701000  0.31350900  0.79286200
   0.60212600  0.10350800  0.50000000
   0.18519100  0.81839600  0.50000000
   0.68519100  0.18160400  0.00000000
   0.60701000  0.68649100  0.29286200
   0.10701000  0.31350900  0.20713800
   0.10212600  0.89649200  0.00000000
   0.60701000  0.68649100  0.70713800
 
 position of ions in cartesian coordinates  (Angst):
   2.50757869  4.47291742  0.00000000
   0.04635469  0.82348458  3.08806800
   2.50239043  1.72892569  1.56177804
   0.04116643  3.56747631  1.52628996
   0.04116643  3.56747631  4.64984604
   2.50239043  1.72892569  4.61435796
   2.46821388  4.36561761  3.08806800
   0.00698988  0.93078439  0.00000000
   0.52675116  1.66046969  4.89682354
   2.96393392  0.54821998  3.08806800
   0.91159307  4.33455421  3.08806800
   3.37281707  0.96184779  0.00000000
   2.98797516  3.63593231  1.80875554
   0.52675116  1.66046969  1.27931246
   0.50270992  4.74818202  0.00000000
   2.98797516  3.63593231  4.36738046
 


--------------------------------------------------------------------------------------------------------


 k-point  1 :   0.0000 0.0000 0.0000  plane waves:    4347
 k-point  2 :   0.1429 0.0000 0.0000  plane waves:    4337
 k-point  3 :   0.2857 0.0000 0.0000  plane waves:    4334
 k-point  4 :   0.4286 0.0000 0.0000  plane waves:    4320
 k-point  5 :   0.0000 0.1667 0.0000  plane waves:    4334
 k-point  6 :   0.1429 0.1667 0.0000  plane waves:    4328
 k-point  7 :   0.2857 0.1667 0.0000  plane waves:    4330
 k-point  8 :   0.4286 0.1667 0.0000  plane waves:    4331
 k-point  9 :   0.0000 0.3333 0.0000  plane waves:    4350
 k-point 10 :   0.1429 0.3333 0.0000  plane waves:    4341
 k-point 11 :   0.2857 0.3333 0.0000  plane waves:    4345
 k-point 12 :   0.4286 0.3333 0.0000  plane waves:    4368
 k-point 13 :   0.0000 0.5000 0.0000  plane waves:    4360
 k-point 14 :   0.1429 0.5000 0.0000  plane waves:    4338
 k-point 15 :   0.2857 0.5000 0.0000  plane waves:    4332
 k-point 16 :   0.4286 0.5000 0.0000  plane waves:    4346
 k-point 17 :   0.0000 0.0000 0.2000  plane waves:    4331
 k-point 18 :   0.1429 0.0000 0.2000  plane waves:    4331
 k-point 19 :   0.2857 0.0000 0.2000  plane waves:    4333
 k-point 20 :   0.4286 0.0000 0.2000  plane waves:    4340
 k-point 21 :   0.0000 0.1667 0.2000  plane waves:    4344
 k-point 22 :   0.1429 0.1667 0.2000  plane waves:    4332
 k-point 23 :   0.2857 0.1667 0.2000  plane waves:    4329
 k-point 24 :   0.4286 0.1667 0.2000  plane waves:    4335
 k-point 25 :   0.0000 0.3333 0.2000  plane waves:    4332
 k-point 26 :   0.1429 0.3333 0.2000  plane waves:    4335
 k-point 27 :   0.2857 0.3333 0.2000  plane waves:    4337
 k-point 28 :   0.4286 0.3333 0.2000  plane waves:    4346
 k-point 29 :   0.0000 0.5000 0.2000  plane waves:    4324
 k-point 30 :   0.1429 0.5000 0.2000  plane waves:    4336
 k-point 31 :   0.2857 0.5000 0.2000  plane waves:    4346
 k-point 32 :   0.4286 0.5000 0.2000  plane waves:    4336
 k-point 33 :   0.0000 0.0000 0.4000  plane waves:    4323
 k-point 34 :   0.1429 0.0000 0.4000  plane waves:    4350
 k-point 35 :   0.2857 0.0000 0.4000  plane waves:    4332
 k-point 36 :   0.4286 0.0000 0.4000  plane waves:    4337
 k-point 37 :   0.0000 0.1667 0.4000  plane waves:    4320
 k-point 38 :   0.1429 0.1667 0.4000  plane waves:    4331
 k-point 39 :   0.2857 0.1667 0.4000  plane waves:    4330
 k-point 40 :   0.4286 0.1667 0.4000  plane waves:    4329
 k-point 41 :   0.0000 0.3333 0.4000  plane waves:    4324
 k-point 42 :   0.1429 0.3333 0.4000  plane waves:    4323
 k-point 43 :   0.2857 0.3333 0.4000  plane waves:    4340
 k-point 44 :   0.4286 0.3333 0.4000  plane waves:    4338
 k-point 45 :   0.0000 0.5000 0.4000  plane waves:    4342
 k-point 46 :   0.1429 0.5000 0.4000  plane waves:    4316
 k-point 47 :   0.2857 0.5000 0.4000  plane waves:    4338
 k-point 48 :   0.4286 0.5000 0.4000  plane waves:    4356

 maximum and minimum number of plane-waves per node :       742      705

 maximum number of plane-waves:      4368
 maximum index in each direction: 
   IXMAX=    9   IYMAX=    9   IZMAX=   11
   IXMIN=   -9   IYMIN=  -10   IZMIN=  -11


 real space projection operators:
  total allocation   :       2437.61 KBytes
  max/ min on nodes  :        437.19        346.42


 parallel 3D FFT for wavefunctions:
    minimum data exchange during FFTs selected (reduces bandwidth)
 parallel 3D FFT for charge:
    minimum data exchange during FFTs selected (reduces bandwidth)


 total amount of memory used by VASP MPI-rank0    50766. kBytes
=======================================================================

   base      :      30000. kBytes
   nonlr-proj:       1498. kBytes
   fftplans  :       1409. kBytes
   grid      :       3833. kBytes
   one-center:         18. kBytes
   wavefun   :      14008. kBytes
 
     INWAV:  cpu time    0.0000: real time    0.0001
 Broyden mixing: mesh for mixing (old mesh)
   NGX = 19   NGY = 19   NGZ = 23
  (NGX  = 80   NGY  = 80   NGZ  = 96)
  gives a total of   8303 points

 initial charge density was supplied:
 charge density of overlapping atoms calculated
 number of electron      76.0000000 magnetization       0.0000000
 keeping initial charge density in first step


--------------------------------------------------------------------------------------------------------


 Maximum index for non-local projection operator          655
 Maximum index for augmentation-charges         1172 (set IRDMAX)


--------------------------------------------------------------------------------------------------------


 First call to EWALD:  gamma=   0.326
 Maximum number of real-space cells 3x 3x 2
 Maximum number of reciprocal cells 3x 3x 3

    FEWALD:  cpu time    0.0032: real time    0.0128


--------------------------------------- Iteration      1(   1)  ---------------------------------------


    POTLOK:  cpu time    0.0584: real time    0.1671
    SETDIJ:  cpu time    0.2339: real time    0.7042
     EDDAV:  cpu time    9.9546: real time   29.8771
 BZINTS: Fermi energy: 18.710267; 76.000000 electrons
         Band energy:-207.793814;  BLOECHL correction: -0.127166
       DOS:  cpu time    0.0992: real time    0.3040
    --------------------------------------------
      LOOP:  cpu time   10.3462: real time   31.0524

 eigenvalue-minimisations  :  9216
 total energy-change (2. order) : 0.6520850E+03  (-0.3781155E+04)
 number of electron      76.0000000 magnetization       0.0000000
 augmentation part       76.0000000 magnetization       0.0000000

 Free energy of the ion-electron system (eV)
  ---------------------------------------------------
  alpha Z        PSCENC =       128.10636827
  Ewald energy   TEWEN  =     -3198.54727903
  -Hartree energ DENC   =     -1313.81041462
  -exchange      EXHF   =         0.00000000
  -V(xc)+E(xc)   XCENC  =       307.04436955
  PAW double counting   =      3530.48561859    -3620.98472864
  entropy T*S    EENTRO =         0.00000000
  eigenvalues    EBANDS =      -207.79381432
  atomic energy  EATOM  =      5027.58486670
  Solvation  Ediel_sol  =         0.00000000
  ---------------------------------------------------
  free energy    TOTEN  =       652.08498650 eV

  energy without entropy =      652.08498650  energy(sigma->0) =      652.08498650


--------------------------------------------------------------------------------------------------------




--------------------------------------- Iteration      1(   2)  ---------------------------------------


     EDDAV:  cpu time   10.5869: real time   31.7708
 BZINTS: Fermi energy:  1.580909; 76.000000 electrons
         Band energy:-905.631849;  BLOECHL correction:  0.000000
       DOS:  cpu time    0.0337: real time    0.0892
    --------------------------------------------
      LOOP:  cpu time   10.6206: real time   31.8599

 eigenvalue-minimisations  : 10776
 total energy-change (2. order) :-0.6978380E+03  (-0.6690435E+03)
 number of electron      76.0000000 magnetization       0.0000000
 augmentation part       76.0000000 magnetization       0.0000000

 Free energy of the ion-electron system (eV)
  ---------------------------------------------------
  alpha Z        PSCENC =       128.10636827
  Ewald energy   TEWEN  =     -3198.54727903
  -Hartree energ DENC   =     -1313.81041462
  -exchange      EXHF   =         0.00000000
  -V(xc)+E(xc)   XCENC  =       307.04436955
  PAW double counting   =      3530.48561859    -3620.98472864
  entropy T*S    EENTRO =         0.00000000
  eigenvalues    EBANDS =      -905.63184914
  atomic energy  EATOM  =      5027.58486670
  Solvation  Ediel_sol  =         0.00000000
  ---------------------------------------------------
  free energy    TOTEN  =       -45.75304832 eV

  energy without entropy =      -45.75304832  energy(sigma->0) =      -45.75304832


--------------------------------------------------------------------------------------------------------




--------------------------------------- Iteration      1(   3)  ---------------------------------------


     EDDAV:  cpu time   11.4339: real time   34.3336
 BZINTS: Fermi energy: -1.458688; 76.000000 electrons
         Band energy:-965.943872;  BLOECHL correction:  0.000000
       DOS:  cpu time    0.0187: real time    0.0441
    --------------------------------------------
      LOOP:  cpu time   11.4526: real time   34.3777

 eigenvalue-minimisations  : 12672
 total energy-change (2. order) :-0.6031202E+02  (-0.6005586E+02)
 number of electron      76.0000000 magnetization       0.0000000
 augmentation part       76.0000000 magnetization       0.0000000

 Free energy of the ion-electron system (eV)
  ---------------------------------------------------
  alpha Z        PSCENC =       128.10636827
  Ewald energy   TEWEN  =     -3198.54727903
  -Hartree energ DENC   =     -1313.81041462
  -exchange      EXHF   =         0.00000000
  -V(xc)+E(xc)   XCENC  =       307.04436955
  PAW double counting   =      3530.48561859    -3620.98472864
  entropy T*S    EENTRO =         0.00000000
  eigenvalues    EBANDS =      -965.94387165
  atomic energy  EATOM  =      5027.58486670
  Solvation  Ediel_sol  =         0.00000000
  ---------------------------------------------------
  free energy    TOTEN  =      -106.06507083 eV

  energy without entropy =     -106.06507083  energy(sigma->0) =     -106.06507083


--------------------------------------------------------------------------------------------------------




--------------------------------------- Iteration      1(   4)  ---------------------------------------


     EDDAV:  cpu time   13.8830: real time   41.6840
 BZINTS: Fermi energy: -1.527163; 76.000000 electrons
         Band energy:-971.665978;  BLOECHL correction:  0.000000
       DOS:  cpu time    0.0178: real time    0.0484
    --------------------------------------------
      LOOP:  cpu time   13.9008: real time   41.7324

 eigenvalue-minimisations  : 16928
 total energy-change (2. order) :-0.5722106E+01  (-0.5701133E+01)
 number of electron      76.0000000 magnetization       0.0000000
 augmentation part       76.0000000 magnetization       0.0000000

 Free energy of the ion-electron system (eV)
  ---------------------------------------------------
  alpha Z        PSCENC =       128.10636827
  Ewald energy   TEWEN  =     -3198.54727903
  -Hartree energ DENC   =     -1313.81041462
  -exchange      EXHF   =         0.00000000
  -V(xc)+E(xc)   XCENC  =       307.04436955
  PAW double counting   =      3530.48561859    -3620.98472864
  entropy T*S    EENTRO =         0.00000000
  eigenvalues    EBANDS =      -971.66597777
  atomic energy  EATOM  =      5027.58486670
  Solvation  Ediel_sol  =         0.00000000
  ---------------------------------------------------
  free energy    TOTEN  =      -111.78717695 eV

  energy without entropy =     -111.78717695  energy(sigma->0) =     -111.78717695


--------------------------------------------------------------------------------------------------------




--------------------------------------- Iteration      1(   5)  ---------------------------------------


     EDDAV:  cpu time   12.1617: real time   36.5095
 BZINTS: Fermi energy: -1.622659; 76.000000 electrons
         Band energy:-972.304150;  BLOECHL correction:  0.000000
       DOS:  cpu time    0.0146: real time    0.0400
    CHARGE:  cpu time    0.2013: real time    0.6204
    MIXING:  cpu time    0.0059: real time    0.0204
    --------------------------------------------
      LOOP:  cpu time   12.3836: real time   37.1904

 eigenvalue-minimisations  : 13024
 total energy-change (2. order) :-0.6381723E+00  (-0.6381038E+00)
 number of electron      76.0000022 magnetization      -0.0000000
 augmentation part       11.5829361 magnetization       0.0006076

 Broyden mixing:
  rms(total) = 0.32700E+01    rms(broyden)= 0.32694E+01
  rms(prec ) = 0.44019E+01
  weight for this iteration     100.00

 Free energy of the ion-electron system (eV)
  ---------------------------------------------------
  alpha Z        PSCENC =       128.10636827
  Ewald energy   TEWEN  =     -3198.54727903
  -Hartree energ DENC   =     -1313.81041462
  -exchange      EXHF   =         0.00000000
  -V(xc)+E(xc)   XCENC  =       307.04436955
  PAW double counting   =      3530.48561859    -3620.98472864
  entropy T*S    EENTRO =         0.00000000
  eigenvalues    EBANDS =      -972.30415004
  atomic energy  EATOM  =      5027.58486670
  Solvation  Ediel_sol  =         0.00000000
  ---------------------------------------------------
  free energy    TOTEN  =      -112.42534922 eV

  energy without entropy =     -112.42534922  energy(sigma->0) =     -112.42534922


--------------------------------------------------------------------------------------------------------




--------------------------------------- Iteration      1(   6)  ---------------------------------------


    POTLOK:  cpu time    0.0410: real time    0.1062
    SETDIJ:  cpu time    0.2575: real time    0.7854
    EDDIAG:  cpu time    2.2685: real time    6.8086
  RMM-DIIS:  cpu time    3.3125: real time    9.9435
    ORTHCH:  cpu time    0.1258: real time    0.3707
 BZINTS: Fermi energy:  1.032984; 76.000000 electrons
         Band energy:-842.663848;  BLOECHL correction:  0.000000
       DOS:  cpu time    0.0176: real time    0.0455
    CHARGE:  cpu time    0.1925: real time    0.5822
    MIXING:  cpu time    0.0035: real time    0.0221
    --------------------------------------------
      LOOP:  cpu time    6.2189: real time   18.6643

 eigenvalue-minimisations  :  9216
 total energy-change (2. order) : 0.1147514E+02  (-0.5554015E+01)
 number of electron      76.0000018 magnetization      -0.0000000
 augmentation part       10.3246934 magnetization       0.0008143

 Broyden mixing:
  rms(total) = 0.13029E+01    rms(broyden)= 0.13025E+01
  rms(prec ) = 0.14319E+01
  weight for this iteration     100.00

 eigenvalues of (default mixing * dielectric matrix)
  average eigenvalue GAMMA=   1.2412
  1.2412

 Free energy of the ion-electron system (eV)
  ---------------------------------------------------
  alpha Z        PSCENC =       128.10636827
  Ewald energy   TEWEN  =     -3198.54727903
  -Hartree energ DENC   =     -1437.20286456
  -exchange      EXHF   =         0.00000000
  -V(xc)+E(xc)   XCENC  =       315.64561242
  PAW double counting   =      5473.51992428    -5567.39299301
  entropy T*S    EENTRO =         0.00000000
  eigenvalues    EBANDS =      -842.66384814
  atomic energy  EATOM  =      5027.58486670
  Solvation  Ediel_sol  =         0.00000000
  ---------------------------------------------------
  free energy    TOTEN  =      -100.95021307 eV

  energy without entropy =     -100.95021307  energy(sigma->0) =     -100.95021307


--------------------------------------------------------------------------------------------------------




--------------------------------------- Iteration      1(   7)  ---------------------------------------


    POTLOK:  cpu time    0.0399: real time    0.1057
    SETDIJ:  cpu time    0.2553: real time    0.7706
    EDDIAG:  cpu time    1.7716: real time    5.3180
  RMM-DIIS:  cpu time    3.7259: real time   11.1849
    ORTHCH:  cpu time    0.1807: real time    0.5500
 BZINTS: Fermi energy:  1.154940; 76.000000 electrons
         Band energy:-830.942305;  BLOECHL correction:  0.000000
       DOS:  cpu time    0.0148: real time    0.0244
    CHARGE:  cpu time    0.2110: real time    0.6422
    MIXING:  cpu time    0.0028: real time    0.0192
    --------------------------------------------
      LOOP:  cpu time    6.2020: real time   18.6150

 eigenvalue-minimisations  : 12570
 total energy-change (2. order) : 0.3499986E+00  (-0.1932187E+00)
 number of electron      76.0000017 magnetization       0.0000000
 augmentation part       10.1472548 magnetization      -0.0000441

 Broyden mixing:
  rms(total) = 0.61594E+00    rms(broyden)= 0.61587E+00
  rms(prec ) = 0.70255E+00
  weight for this iteration     100.00

 eigenvalues of (default mixing * dielectric matrix)
  average eigenvalue GAMMA=   1.5977
  1.1415  2.0538

 Free energy of the ion-electron system (eV)
  ---------------------------------------------------
  alpha Z        PSCENC =       128.10636827
  Ewald energy   TEWEN  =     -3198.54727903
  -Hartree energ DENC   =     -1448.89814801
  -exchange      EXHF   =         0.00000000
  -V(xc)+E(xc)   XCENC  =       316.39865880
  PAW double counting   =      7080.67693195    -7174.97930840
  entropy T*S    EENTRO =         0.00000000
  eigenvalues    EBANDS =      -830.94230474
  atomic energy  EATOM  =      5027.58486670
  Solvation  Ediel_sol  =         0.00000000
  ---------------------------------------------------
  free energy    TOTEN  =      -100.60021445 eV

  energy without entropy =     -100.60021445  energy(sigma->0) =     -100.60021445


--------------------------------------------------------------------------------------------------------




--------------------------------------- Iteration      1(   8)  ---------------------------------------


    POTLOK:  cpu time    0.0407: real time    0.1115
    SETDIJ:  cpu time    0.2570: real time    0.7825
    EDDIAG:  cpu time    3.0824: real time    9.2457
  RMM-DIIS:  cpu time    3.9182: real time   11.7673
    ORTHCH:  cpu time    0.1015: real time    0.2971
 BZINTS: Fermi energy:  1.155772; 76.000000 electrons
         Band energy:-832.479460;  BLOECHL correction:  0.000000
       DOS:  cpu time    0.0172: real time    0.0400
    CHARGE:  cpu time    0.1861: real time    0.5668
    MIXING:  cpu time    0.0017: real time    0.0072
    --------------------------------------------
      LOOP:  cpu time    7.6047: real time   22.8179

 eigenvalue-minimisations  : 11517
 total energy-change (2. order) :-0.5245961E-01  (-0.5222311E-01)
 number of electron      76.0000018 magnetization       0.0000000
 augmentation part       10.2106229 magnetization      -0.0001558

 Broyden mixing:
  rms(total) = 0.94672E-01    rms(broyden)= 0.94631E-01
  rms(prec ) = 0.15564E+00
  weight for this iteration     100.00

 eigenvalues of (default mixing * dielectric matrix)
  average eigenvalue GAMMA=   1.5796
  2.4229  1.1580  1.1580

 Free energy of the ion-electron system (eV)
  ---------------------------------------------------
  alpha Z        PSCENC =       128.10636827
  Ewald energy   TEWEN  =     -3198.54727903
  -Hartree energ DENC   =     -1447.09028757
  -exchange      EXHF   =         0.00000000
  -V(xc)+E(xc)   XCENC  =       316.23258174
  PAW double counting   =      8665.12617244    -8759.58563706
  entropy T*S    EENTRO =         0.00000000
  eigenvalues    EBANDS =      -832.47945955
  atomic energy  EATOM  =      5027.58486670
  Solvation  Ediel_sol  =         0.00000000
  ---------------------------------------------------
  free energy    TOTEN  =      -100.65267407 eV

  energy without entropy =     -100.65267407  energy(sigma->0) =     -100.65267407


--------------------------------------------------------------------------------------------------------




--------------------------------------- Iteration      1(   9)  ---------------------------------------


    POTLOK:  cpu time    0.0372: real time    0.1115
    SETDIJ:  cpu time    0.2519: real time    0.7609
    EDDIAG:  cpu time    2.9145: real time    8.7534
  RMM-DIIS:  cpu time    4.6701: real time   14.0173
    ORTHCH:  cpu time    0.2075: real time    0.6132
 BZINTS: Fermi energy:  1.216779; 76.000000 electrons
         Band energy:-824.316947;  BLOECHL correction:  0.000000
       DOS:  cpu time    0.0176: real time    0.0445
    CHARGE:  cpu time    0.2194: real time    0.6660
    MIXING:  cpu time    0.0064: real time    0.0200
    --------------------------------------------
      LOOP:  cpu time    8.3246: real time   24.9868

 eigenvalue-minimisations  : 12947
 total energy-change (2. order) :-0.8740247E-02  (-0.2425622E-01)
 number of electron      76.0000018 magnetization      -0.0000000
 augmentation part       10.1367102 magnetization       0.0000125

 Broyden mixing:
  rms(total) = 0.46561E-01    rms(broyden)= 0.46485E-01
  rms(prec ) = 0.56881E-01
  weight for this iteration     100.00

 eigenvalues of (default mixing * dielectric matrix)
  average eigenvalue GAMMA=   1.5327
  2.5064  1.6717  1.0383  0.9143

 Free energy of the ion-electron system (eV)
  ---------------------------------------------------
  alpha Z        PSCENC =       128.10636827
  Ewald energy   TEWEN  =     -3198.54727903
  -Hartree energ DENC   =     -1455.65378997
  -exchange      EXHF   =         0.00000000
  -V(xc)+E(xc)   XCENC  =       316.82744279
  PAW double counting   =      8955.24146863    -9049.90354458
  entropy T*S    EENTRO =         0.00000000
  eigenvalues    EBANDS =      -824.31694712
  atomic energy  EATOM  =      5027.58486670
  Solvation  Ediel_sol  =         0.00000000
  ---------------------------------------------------
  free energy    TOTEN  =      -100.66141431 eV

  energy without entropy =     -100.66141431  energy(sigma->0) =     -100.66141431


--------------------------------------------------------------------------------------------------------




--------------------------------------- Iteration      1(  10)  ---------------------------------------


    POTLOK:  cpu time    0.0415: real time    0.1249
    SETDIJ:  cpu time    0.2572: real time    0.7843
    EDDIAG:  cpu time    4.2978: real time   12.8893
  RMM-DIIS:  cpu time    5.8664: real time   17.6101
    ORTHCH:  cpu time    0.2101: real time    0.6400
 BZINTS: Fermi energy:  1.229122; 76.000000 electrons
         Band energy:-824.135207;  BLOECHL correction:  0.000000
       DOS:  cpu time    0.0172: real time    0.0318
    CHARGE:  cpu time    0.2388: real time    0.7255
    MIXING:  cpu time    0.0074: real time    0.0334
    --------------------------------------------
      LOOP:  cpu time   10.9364: real time   32.8394

 eigenvalue-minimisations  : 14358
 total energy-change (2. order) :-0.1258832E-01  (-0.1019071E-01)
 number of electron      76.0000018 magnetization       0.0000000
 augmentation part       10.1111987 magnetization       0.0000648

 Broyden mixing:
  rms(total) = 0.29264E-01    rms(broyden)= 0.29148E-01
  rms(prec ) = 0.38534E-01
  weight for this iteration     100.00

 eigenvalues of (default mixing * dielectric matrix)
  average eigenvalue GAMMA=   1.4895
  2.4464  2.2884  1.0121  1.0121  0.6885

 Free energy of the ion-electron system (eV)
  ---------------------------------------------------
  alpha Z        PSCENC =       128.10636827
  Ewald energy   TEWEN  =     -3198.54727903
  -Hartree energ DENC   =     -1455.90449143
  -exchange      EXHF   =         0.00000000
  -V(xc)+E(xc)   XCENC  =       316.84618365
  PAW double counting   =      8886.17880735    -8980.80325082
  entropy T*S    EENTRO =         0.00000000
  eigenvalues    EBANDS =      -824.13520732
  atomic energy  EATOM  =      5027.58486670
  Solvation  Ediel_sol  =         0.00000000
  ---------------------------------------------------
  free energy    TOTEN  =      -100.67400263 eV

  energy without entropy =     -100.67400263  energy(sigma->0) =     -100.67400263


--------------------------------------------------------------------------------------------------------




--------------------------------------- Iteration      1(  11)  ---------------------------------------


    POTLOK:  cpu time    0.0431: real time    0.1182
    SETDIJ:  cpu time    0.2543: real time    0.7749
    EDDIAG:  cpu time    2.8197: real time    8.4550
  RMM-DIIS:  cpu time    4.1143: real time   12.3513
    ORTHCH:  cpu time    0.1104: real time    0.3318
 BZINTS: Fermi energy:  1.227953; 76.000000 electrons
         Band energy:-824.869811;  BLOECHL correction:  0.000000
       DOS:  cpu time    0.0171: real time    0.0418
    CHARGE:  cpu time    0.2040: real time    0.6186
    MIXING:  cpu time    0.0029: real time    0.0136
    --------------------------------------------
      LOOP:  cpu time    7.5659: real time   22.7051

 eigenvalue-minimisations  : 14283
 total energy-change (2. order) :-0.1821990E-02  (-0.2563998E-02)
 number of electron      76.0000018 magnetization       0.0000000
 augmentation part       10.1094230 magnetization       0.0000018

 Broyden mixing:
  rms(total) = 0.12422E-01    rms(broyden)= 0.12334E-01
  rms(prec ) = 0.15287E-01
  weight for this iteration     100.00

 eigenvalues of (default mixing * dielectric matrix)
  average eigenvalue GAMMA=   1.6894
  3.0346  2.6595  1.7109  1.0426  1.0426  0.6464

 Free energy of the ion-electron system (eV)
  ---------------------------------------------------
  alpha Z        PSCENC =       128.10636827
  Ewald energy   TEWEN  =     -3198.54727903
  -Hartree energ DENC   =     -1455.21987643
  -exchange      EXHF   =         0.00000000
  -V(xc)+E(xc)   XCENC  =       316.80508819
  PAW double counting   =      8843.80445090    -8938.33963184
  entropy T*S    EENTRO =         0.00000000
  eigenvalues    EBANDS =      -824.86981138
  atomic energy  EATOM  =      5027.58486670
  Solvation  Ediel_sol  =         0.00000000
  ---------------------------------------------------
  free energy    TOTEN  =      -100.67582462 eV

  energy without entropy =     -100.67582462  energy(sigma->0) =     -100.67582462


--------------------------------------------------------------------------------------------------------




--------------------------------------- Iteration      1(  12)  ---------------------------------------


    POTLOK:  cpu time    0.0385: real time    0.1104
    SETDIJ:  cpu time    0.2532: real time    0.7713
    EDDIAG:  cpu time    1.6149: real time    4.8450
  RMM-DIIS:  cpu time    4.2185: real time   12.6658
    ORTHCH:  cpu time    0.1145: real time    0.3357
 BZINTS: Fermi energy:  1.228321; 76.000000 electrons
         Band energy:-825.153773;  BLOECHL correction:  0.000000
       DOS:  cpu time    0.0171: real time    0.0414
    CHARGE:  cpu time    0.2043: real time    0.6222
    MIXING:  cpu time    0.0025: real time    0.0094
    --------------------------------------------
      LOOP:  cpu time    6.4634: real time   19.4011

 eigenvalue-minimisations  : 14385
 total energy-change (2. order) :-0.9466069E-03  (-0.8717830E-03)
 number of electron      76.0000018 magnetization      -0.0000000
 augmentation part       10.1077416 magnetization       0.0000098

 Broyden mixing:
  rms(total) = 0.99188E-02    rms(broyden)= 0.98870E-02
  rms(prec ) = 0.13319E-01
  weight for this iteration     100.00

 eigenvalues of (default mixing * dielectric matrix)
  average eigenvalue GAMMA=   1.6737
  3.0391  2.4837  2.4837  1.0665  1.0665  0.9474  0.6289

 Free energy of the ion-electron system (eV)
  ---------------------------------------------------
  alpha Z        PSCENC =       128.10636827
  Ewald energy   TEWEN  =     -3198.54727903
  -Hartree energ DENC   =     -1455.06714993
  -exchange      EXHF   =         0.00000000
  -V(xc)+E(xc)   XCENC  =       316.80867200
  PAW double counting   =      8828.49916839    -8922.90764455
  entropy T*S    EENTRO =         0.00000000
  eigenvalues    EBANDS =      -825.15377307
  atomic energy  EATOM  =      5027.58486670
  Solvation  Ediel_sol  =         0.00000000
  ---------------------------------------------------
  free energy    TOTEN  =      -100.67677123 eV

  energy without entropy =     -100.67677123  energy(sigma->0) =     -100.67677123


--------------------------------------------------------------------------------------------------------




--------------------------------------- Iteration      1(  13)  ---------------------------------------


    POTLOK:  cpu time    0.0387: real time    0.1103
    SETDIJ:  cpu time    0.2532: real time    0.7730
    EDDIAG:  cpu time    1.5964: real time    4.7915
  RMM-DIIS:  cpu time    4.6161: real time   13.8511
    ORTHCH:  cpu time    0.1073: real time    0.3181
 BZINTS: Fermi energy:  1.225741; 76.000000 electrons
         Band energy:-824.615321;  BLOECHL correction:  0.000000
       DOS:  cpu time    0.0170: real time    0.0414
    CHARGE:  cpu time    0.1885: real time    0.5742
    MIXING:  cpu time    0.0014: real time    0.0059
    --------------------------------------------
      LOOP:  cpu time    6.8188: real time   20.4655

 eigenvalue-minimisations  : 14205
 total energy-change (2. order) :-0.2653846E-03  (-0.4772078E-03)
 number of electron      76.0000018 magnetization       0.0000000
 augmentation part       10.0980337 magnetization      -0.0000076

 Broyden mixing:
  rms(total) = 0.49694E-02    rms(broyden)= 0.49427E-02
  rms(prec ) = 0.72661E-02
  weight for this iteration     100.00

 eigenvalues of (default mixing * dielectric matrix)
  average eigenvalue GAMMA=   1.6274
  2.9859  2.9859  2.5491  1.0703  1.0703  0.8655  0.8655  0.6265

 Free energy of the ion-electron system (eV)
  ---------------------------------------------------
  alpha Z        PSCENC =       128.10636827
  Ewald energy   TEWEN  =     -3198.54727903
  -Hartree energ DENC   =     -1455.66734717
  -exchange      EXHF   =         0.00000000
  -V(xc)+E(xc)   XCENC  =       316.85352805
  PAW double counting   =      8852.25942542    -8946.65127798
  entropy T*S    EENTRO =         0.00000000
  eigenvalues    EBANDS =      -824.61532088
  atomic energy  EATOM  =      5027.58486670
  Solvation  Ediel_sol  =         0.00000000
  ---------------------------------------------------
  free energy    TOTEN  =      -100.67703661 eV

  energy without entropy =     -100.67703661  energy(sigma->0) =     -100.67703661


--------------------------------------------------------------------------------------------------------




--------------------------------------- Iteration      1(  14)  ---------------------------------------


    POTLOK:  cpu time    0.0380: real time    0.1120
    SETDIJ:  cpu time    0.2511: real time    0.7609
    EDDIAG:  cpu time    1.5529: real time    4.6642
  RMM-DIIS:  cpu time    4.6062: real time   13.8215
    ORTHCH:  cpu time    0.1694: real time    0.5046
 BZINTS: Fermi energy:  1.221329; 76.000000 electrons
         Band energy:-824.798873;  BLOECHL correction:  0.000000
       DOS:  cpu time    0.0172: real time    0.0458
    CHARGE:  cpu time    0.1984: real time    0.6007
    MIXING:  cpu time    0.0046: real time    0.0161
    --------------------------------------------
      LOOP:  cpu time    6.8378: real time   20.5258

 eigenvalue-minimisations  : 13941
 total energy-change (2. order) :-0.7189435E-04  (-0.1514284E-03)
 number of electron      76.0000018 magnetization      -0.0000000
 augmentation part       10.0977743 magnetization      -0.0000015

 Broyden mixing:
  rms(total) = 0.14053E-02    rms(broyden)= 0.13746E-02
  rms(prec ) = 0.15995E-02
  weight for this iteration     100.00

 eigenvalues of (default mixing * dielectric matrix)
  average eigenvalue GAMMA=   1.7085
  3.9809  2.9939  2.4281  1.5926  1.0133  1.0133  0.9082  0.8190  0.6275

 Free energy of the ion-electron system (eV)
  ---------------------------------------------------
  alpha Z        PSCENC =       128.10636827
  Ewald energy   TEWEN  =     -3198.54727903
  -Hartree energ DENC   =     -1455.52862386
  -exchange      EXHF   =         0.00000000
  -V(xc)+E(xc)   XCENC  =       316.84728874
  PAW double counting   =      8850.91040637    -8945.25126247
  entropy T*S    EENTRO =         0.00000000
  eigenvalues    EBANDS =      -824.79887323
  atomic energy  EATOM  =      5027.58486670
  Solvation  Ediel_sol  =         0.00000000
  ---------------------------------------------------
  free energy    TOTEN  =      -100.67710851 eV

  energy without entropy =     -100.67710851  energy(sigma->0) =     -100.67710851


--------------------------------------------------------------------------------------------------------




--------------------------------------- Iteration      1(  15)  ---------------------------------------


    POTLOK:  cpu time    0.0399: real time    0.1173
    SETDIJ:  cpu time    0.2555: real time    0.7795
    EDDIAG:  cpu time    2.5726: real time    7.7116
  RMM-DIIS:  cpu time    4.3869: real time   13.1791
    ORTHCH:  cpu time    0.1282: real time    0.3757
 BZINTS: Fermi energy:  1.217381; 76.000000 electrons
         Band energy:-824.789351;  BLOECHL correction:  0.000000
       DOS:  cpu time    0.0171: real time    0.0498
    CHARGE:  cpu time    0.1918: real time    0.5755
    MIXING:  cpu time    0.0046: real time    0.0212
    --------------------------------------------
      LOOP:  cpu time    7.5966: real time   22.8099

 eigenvalue-minimisations  : 13428
 total energy-change (2. order) :-0.6652293E-04  (-0.7209281E-04)
 number of electron      76.0000018 magnetization       0.0000000
 augmentation part       10.0954648 magnetization      -0.0000031

 Broyden mixing:
  rms(total) = 0.11575E-02    rms(broyden)= 0.11330E-02
  rms(prec ) = 0.16812E-02
  weight for this iteration     100.00

 eigenvalues of (default mixing * dielectric matrix)
  average eigenvalue GAMMA=   1.6458
  4.1791  2.8836  2.4464  1.6119  1.0163  1.0163  1.0127  1.0127  0.6240  0.6548

 Free energy of the ion-electron system (eV)
  ---------------------------------------------------
  alpha Z        PSCENC =       128.10636827
  Ewald energy   TEWEN  =     -3198.54727903
  -Hartree energ DENC   =     -1455.55229489
  -exchange      EXHF   =         0.00000000
  -V(xc)+E(xc)   XCENC  =       316.84932244
  PAW double counting   =      8848.09249988    -8942.42130714
  entropy T*S    EENTRO =         0.00000000
  eigenvalues    EBANDS =      -824.78935126
  atomic energy  EATOM  =      5027.58486670
  Solvation  Ediel_sol  =         0.00000000
  ---------------------------------------------------
  free energy    TOTEN  =      -100.67717503 eV

  energy without entropy =     -100.67717503  energy(sigma->0) =     -100.67717503


--------------------------------------------------------------------------------------------------------




--------------------------------------- Iteration      1(  16)  ---------------------------------------


    POTLOK:  cpu time    0.0392: real time    0.1097
    SETDIJ:  cpu time    0.2565: real time    0.7817
    EDDIAG:  cpu time    2.8438: real time    8.5275
  RMM-DIIS:  cpu time    3.4138: real time   10.2561
    ORTHCH:  cpu time    0.1733: real time    0.5084
 BZINTS: Fermi energy:  1.213095; 76.000000 electrons
         Band energy:-824.809882;  BLOECHL correction:  0.000000
       DOS:  cpu time    0.0171: real time    0.0437
    CHARGE:  cpu time    0.1978: real time    0.6006
    MIXING:  cpu time    0.0044: real time    0.0152
    --------------------------------------------
      LOOP:  cpu time    6.9458: real time   20.8430

 eigenvalue-minimisations  : 10754
 total energy-change (2. order) :-0.9804292E-05  (-0.1373668E-04)
 number of electron      76.0000018 magnetization       0.0000000
 augmentation part       10.0949921 magnetization       0.0000088

 Broyden mixing:
  rms(total) = 0.89847E-03    rms(broyden)= 0.89205E-03
  rms(prec ) = 0.13089E-02
  weight for this iteration     100.00

 eigenvalues of (default mixing * dielectric matrix)
  average eigenvalue GAMMA=   1.6028
  4.5095  2.8853  2.4447  1.7166  1.2130  1.0373  1.0373  1.0003  0.6536  0.6207
  0.5120

 Free energy of the ion-electron system (eV)
  ---------------------------------------------------
  alpha Z        PSCENC =       128.10636827
  Ewald energy   TEWEN  =     -3198.54727903
  -Hartree energ DENC   =     -1455.53725454
  -exchange      EXHF   =         0.00000000
  -V(xc)+E(xc)   XCENC  =       316.84876810
  PAW double counting   =      8848.08659556    -8942.40936832
  entropy T*S    EENTRO =         0.00000000
  eigenvalues    EBANDS =      -824.80988158
  atomic energy  EATOM  =      5027.58486670
  Solvation  Ediel_sol  =         0.00000000
  ---------------------------------------------------
  free energy    TOTEN  =      -100.67718483 eV

  energy without entropy =     -100.67718483  energy(sigma->0) =     -100.67718483


--------------------------------------------------------------------------------------------------------




--------------------------------------- Iteration      1(  17)  ---------------------------------------


    POTLOK:  cpu time    0.0401: real time    0.1187
    SETDIJ:  cpu time    0.2568: real time    0.7843
    EDDIAG:  cpu time    2.5516: real time    7.6543
WARNING in EDDRMM: call to ZHEGV failed, returncode =   6  3      4
  RMM-DIIS:  cpu time    2.4677: real time    7.4042
    ORTHCH:  cpu time    0.1183: real time    0.3510
 BZINTS: Fermi energy:  1.209317; 76.000000 electrons
         Band energy:-824.818548;  BLOECHL correction:  0.000000
       DOS:  cpu time    0.0171: real time    0.0439
    --------------------------------------------
      LOOP:  cpu time    5.4517: real time   16.3564

 eigenvalue-minimisations  :  8154
 total energy-change (2. order) :-0.2075303E-06  (-0.2757654E-05)
 number of electron      76.0000018 magnetization       0.0000000
 augmentation part       10.0949921 magnetization       0.0000088

 Free energy of the ion-electron system (eV)
  ---------------------------------------------------
  alpha Z        PSCENC =       128.10636827
  Ewald energy   TEWEN  =     -3198.54727903
  -Hartree energ DENC   =     -1455.53159394
  -exchange      EXHF   =         0.00000000
  -V(xc)+E(xc)   XCENC  =       316.84861675
  PAW double counting   =      8848.05100779    -8942.37062309
  entropy T*S    EENTRO =         0.00000000
  eigenvalues    EBANDS =      -824.81854849
  atomic energy  EATOM  =      5027.58486670
  Solvation  Ediel_sol  =         0.00000000
  ---------------------------------------------------
  free energy    TOTEN  =      -100.67718504 eV

  energy without entropy =     -100.67718504  energy(sigma->0) =     -100.67718504


--------------------------------------------------------------------------------------------------------




 average (electrostatic) potential at core
  the test charge radii are     0.7079  0.9587  0.7215
  (the norm of the test charge is              1.0000)
       1 -60.4328       2 -60.4328       3 -60.0997       4 -60.0997       5 -60.0997
       6 -60.0997       7 -87.0995       8 -87.0995       9 -72.0283      10 -72.0291
      11 -71.9754      12 -71.9754      13 -72.0283      14 -72.0283      15 -72.0291
      16 -72.0283
 
 
 
 E-fermi :   1.2093     XC(G=0):  -9.4875     alpha+bet :-12.0368


 spin component 1

 k-point     1 :       0.0000    0.0000    0.0000
  band No.  band energies     occupation 
      1     -41.3485      1.00000
      2     -41.3479      1.00000
      3     -41.0228      1.00000
      4     -41.0151      1.00000
      5     -41.0149      1.00000
      6     -41.0071      1.00000
      7     -18.4977      1.00000
      8     -18.3083      1.00000
      9     -15.9432      1.00000
     10     -15.9314      1.00000
     11     -15.8761      1.00000
     12     -15.8601      1.00000
     13     -15.8362      1.00000
     14     -15.7978      1.00000
     15      -5.7013      1.00000
     16      -5.5227      1.00000
     17      -3.6699      1.00000
     18      -3.6254      1.00000
     19      -3.4539      1.00000
     20      -3.3343      1.00000
     21      -3.2148      1.00000
     22      -3.1054      1.00000
     23      -1.2805      1.00000
     24      -1.2263      1.00000
     25      -1.1361      1.00000
     26      -0.9653      1.00000
     27      -0.7762      1.00000
     28      -0.7447      1.00000
     29      -0.6407      1.00000
     30       0.0433      1.00000
     31       0.0456      1.00000
     32       0.1720      1.00000
     33       0.5527      1.00000
     34       0.6578      1.00000
     35       0.6736      1.00000
     36       0.8073      1.00000
     37       0.9622      1.00000
     38       1.0723      1.00000
     39       7.0138      0.00000
     40       9.3877      0.00000
     41       9.9988      0.00000
     42      10.1364      0.00000
     43      10.4570      0.00000
     44      10.5020      0.00000
     45      10.5197      0.00000
     46      11.3476      0.00000
     47      12.0585      0.00000
     48      12.4824      0.00000

 k-point     2 :       0.1429    0.0000    0.0000
  band No.  band energies     occupation 
      1     -41.3484      1.00000
      2     -41.3479      1.00000
      3     -41.0224      1.00000
      4     -41.0153      1.00000
      5     -41.0147      1.00000
      6     -41.0074      1.00000
      7     -18.4819      1.00000
      8     -18.3099      1.00000
      9     -15.9385      1.00000
     10     -15.9365      1.00000
     11     -15.8805      1.00000
     12     -15.8637      1.00000
     13     -15.8423      1.00000
     14     -15.8170      1.00000
     15      -5.7113      1.00000
     16      -5.5234      1.00000
     17      -3.5670      1.00000
     18      -3.5567      1.00000
     19      -3.4147      1.00000
     20      -3.3107      1.00000
     21      -3.1991      1.00000
     22      -3.1042      1.00000
     23      -1.3158      1.00000
     24      -1.2865      1.00000
     25      -1.1820      1.00000
     26      -1.0349      1.00000
     27      -0.7785      1.00000
     28      -0.6941      1.00000
     29      -0.5777      1.00000
     30      -0.0211      1.00000
     31       0.0068      1.00000
     32       0.0134      1.00000
     33       0.5961      1.00000
     34       0.6856      1.00000
     35       0.7364      1.00000
     36       0.8215      1.00000
     37       0.9405      1.00000
     38       1.0826      1.00000
     39       7.2088      0.00000
     40       9.3498      0.00000
     41       9.5823      0.00000
     42       9.9567      0.00000
     43      10.5173      0.00000
     44      10.5720      0.00000
     45      10.8513      0.00000
     46      11.2762      0.00000
     47      11.9275      0.00000
     48      12.3534      0.00000

 k-point     3 :       0.2857    0.0000    0.0000
  band No.  band energies     occupation 
      1     -41.3483      1.00000
      2     -41.3479      1.00000
      3     -41.0214      1.00000
      4     -41.0165      1.00000
      5     -41.0135      1.00000
      6     -41.0085      1.00000
      7     -18.4405      1.00000
      8     -18.3194      1.00000
      9     -15.9493      1.00000
     10     -15.9253      1.00000
     11     -15.8845      1.00000
     12     -15.8812      1.00000
     13     -15.8587      1.00000
     14     -15.8557      1.00000
     15      -5.7152      1.00000
     16      -5.5482      1.00000
     17      -3.4564      1.00000
     18      -3.3788      1.00000
     19      -3.2500      1.00000
     20      -3.2371      1.00000
[...]
     25      -1.1146      1.00000
     26      -0.9956      1.00000
     27      -0.6173      1.00000
     28      -0.5034      1.00000
     29      -0.2412      1.00000
     30      -0.1486      1.00000
     31      -0.0982      1.00000
     32      -0.0377      1.00000
     33       0.5696      1.00000
     34       0.5920      1.00000
     35       0.8428      1.00000
     36       1.0124      1.00000
     37       1.0231      1.00000
     38       1.0548      1.00000
     39       9.0898      0.00000
     40       9.1152      0.00000
     41       9.7118      0.00000
     42      10.0645      0.00000
     43      10.6424      0.00000
     44      10.7405      0.00000
     45      11.3762      0.00000
     46      11.5271      0.00000
     47      11.6155      0.00000
     48      11.6369      0.00000

 k-point    46 :       0.1429    0.5000    0.4000
  band No.  band energies     occupation 
      1     -41.1858      1.00000
      2     -41.1857      1.00000
      3     -40.8606      1.00000
      4     -40.8580      1.00000
      5     -40.8528      1.00000
      6     -40.8503      1.00000
      7     -18.3258      1.00000
      8     -18.2941      1.00000
      9     -15.9094      1.00000
     10     -15.8943      1.00000
     11     -15.8083      1.00000
     12     -15.7851      1.00000
     13     -15.7484      1.00000
     14     -15.7460      1.00000
     15      -5.4479      1.00000
     16      -5.4352      1.00000
     17      -3.4513      1.00000
     18      -3.3985      1.00000
     19      -3.2604      1.00000
     20      -3.2398      1.00000
     21      -3.0121      1.00000
     22      -2.9999      1.00000
     23      -1.4575      1.00000
     24      -1.3785      1.00000
     25      -1.1493      1.00000
     26      -1.0504      1.00000
     27      -0.6323      1.00000
     28      -0.5190      1.00000
     29      -0.2978      1.00000
     30      -0.1887      1.00000
     31      -0.1821      1.00000
     32      -0.0582      1.00000
     33       0.6118      1.00000
     34       0.6330      1.00000
     35       0.8590      1.00000
     36       1.0005      1.00000
     37       1.0297      1.00000
     38       1.0824      1.00000
     39       9.0823      0.00000
     40       9.1182      0.00000
     41       9.7234      0.00000
     42       9.9770      0.00000
     43      10.6402      0.00000
     44      10.7957      0.00000
     45      11.1565      0.00000
     46      11.2802      0.00000
     47      11.6014      0.00000
     48      11.6646      0.00000

 k-point    47 :       0.2857    0.5000    0.4000
  band No.  band energies     occupation 
      1     -41.1858      1.00000
      2     -41.1857      1.00000
      3     -40.8595      1.00000
      4     -40.8568      1.00000
      5     -40.8541      1.00000
      6     -40.8515      1.00000
      7     -18.3027      1.00000
      8     -18.2804      1.00000
      9     -15.8888      1.00000
     10     -15.8804      1.00000
     11     -15.8433      1.00000
     12     -15.8190      1.00000
     13     -15.7746      1.00000
     14     -15.7707      1.00000
     15      -5.4614      1.00000
     16      -5.4573      1.00000
     17      -3.2884      1.00000
     18      -3.2686      1.00000
     19      -3.0872      1.00000
     20      -3.0688      1.00000
     21      -2.9930      1.00000
     22      -2.9690      1.00000
     23      -1.4650      1.00000
     24      -1.3942      1.00000
     25      -1.2387      1.00000
     26      -1.1905      1.00000
     27      -0.6780      1.00000
     28      -0.6047      1.00000
     29      -0.4248      1.00000
     30      -0.3820      1.00000
     31      -0.2331      1.00000
     32      -0.1261      1.00000
     33       0.7100      1.00000
     34       0.7371      1.00000
     35       0.9003      1.00000
     36       0.9610      1.00000
     37       1.0606      1.00000
     38       1.1148      1.00000
     39       9.1382      0.00000
     40       9.2159      0.00000
     41       9.7499      0.00000
     42       9.9036      0.00000
     43      10.5148      0.00000
     44      10.5714      0.00000
     45      10.7433      0.00000
     46      10.8156      0.00000
     47      11.7009      0.00000
     48      11.7794      0.00000

 k-point    48 :       0.4286    0.5000    0.4000
  band No.  band energies     occupation 
      1     -41.1857      1.00000
      2     -41.1857      1.00000
      3     -40.8578      1.00000
      4     -40.8559      1.00000
      5     -40.8550      1.00000
      6     -40.8532      1.00000
      7     -18.2805      1.00000
      8     -18.2724      1.00000
      9     -15.8762      1.00000
     10     -15.8754      1.00000
     11     -15.8536      1.00000
     12     -15.8343      1.00000
     13     -15.8071      1.00000
     14     -15.7991      1.00000
     15      -5.4721      1.00000
     16      -5.4718      1.00000
     17      -3.2394      1.00000
     18      -3.2389      1.00000
     19      -2.9979      1.00000
     20      -2.9914      1.00000
     21      -2.7656      1.00000
     22      -2.7655      1.00000
     23      -1.4614      1.00000
     24      -1.4268      1.00000
     25      -1.3340      1.00000
     26      -1.3291      1.00000
     27      -0.7869      1.00000
     28      -0.7791      1.00000
     29      -0.4806      1.00000
     30      -0.4696      1.00000
     31      -0.2527      1.00000
     32      -0.2068      1.00000
     33       0.7892      1.00000
     34       0.8156      1.00000
     35       0.9581      1.00000
     36       0.9711      1.00000
     37       1.0619      1.00000
     38       1.0976      1.00000
     39       9.3616      0.00000
     40       9.5017      0.00000
     41       9.6721      0.00000
     42       9.8740      0.00000
     43      10.1632      0.00000
     44      10.2610      0.00000
     45      10.4121      0.00000
     46      10.5202      0.00000
     47      11.8321      0.00000
     48      11.8782      0.00000


--------------------------------------------------------------------------------------------------------


 soft charge-density along one line, spin component           1
         0         1         2         3         4         5         6         7         8         9
 total charge-density along one line
 
 soft charge-density along one line, spin component           2
         0         1         2         3         4         5         6         7         8         9
 total charge-density along one line
 
 pseudopotential strength for first ion, spin component:           1
-38.227   3.593   0.002  -0.000  -0.000
  3.593 -10.006   0.009  -0.000  -0.001
  0.002   0.009   0.169  -0.000  -0.001
 -0.000  -0.000  -0.000   0.168   0.000
 -0.000  -0.001  -0.001   0.000   0.169
 pseudopotential strength for first ion, spin component:           2
-38.227   3.593   0.002  -0.000  -0.000
  3.593 -10.006   0.009  -0.000  -0.001
  0.002   0.009   0.169  -0.000  -0.001
 -0.000  -0.000  -0.000   0.168   0.000
 -0.000  -0.001  -0.001   0.000   0.169
 total augmentation occupancy for first ion, spin component:           1
  2.000  -0.005  -0.006   0.000   0.001
 -0.005   0.687   0.019   0.000  -0.003
 -0.006   0.019   0.022   0.000   0.002
  0.000   0.000   0.000   0.026   0.000
  0.001  -0.003   0.002   0.000   0.024
 total augmentation occupancy for first ion, spin component:           2
  0.000   0.000   0.000   0.000   0.000
  0.000   0.000  -0.000   0.000   0.000
  0.000  -0.000   0.000   0.000   0.000
  0.000   0.000   0.000   0.000   0.000
  0.000   0.000   0.000   0.000   0.000


------------------------ aborting loop because EDIFF is reached ----------------------------------------


 


 total charge     
 
# of ion       s       p       d       tot
------------------------------------------
    1        2.019   0.052   0.000   2.071
    2        2.019   0.052   0.000   2.071
    3        2.024   0.059   0.000   2.084
    4        2.024   0.060   0.000   2.084
    5        2.024   0.060   0.000   2.084
    6        2.024   0.060   0.000   2.084
    7        0.913   1.491   0.000   2.404
    8        0.913   1.491   0.000   2.404
    9        1.558   3.600   0.000   5.158
   10        1.558   3.604   0.000   5.162
   11        1.559   3.616   0.000   5.175
   12        1.559   3.618   0.000   5.177
   13        1.558   3.600   0.000   5.158
   14        1.558   3.600   0.000   5.158
   15        1.558   3.605   0.000   5.163
   16        1.558   3.599   0.000   5.157
--------------------------------------------------
tot         26.429  32.164   0.000  58.594
 


 magnetization (x)
 
# of ion       s       p       d       tot
------------------------------------------
    1        0.000  -0.000   0.000  -0.000
    2        0.000  -0.000   0.000  -0.000
    3        0.000  -0.000   0.000   0.000
    4        0.000  -0.000   0.000   0.000
    5        0.000  -0.000   0.000   0.000
    6        0.000  -0.000   0.000   0.000
    7        0.000   0.000   0.000   0.000
    8        0.000   0.000   0.000   0.000
    9       -0.000  -0.000   0.000  -0.000
   10        0.000  -0.000   0.000  -0.000
   11        0.000  -0.000   0.000  -0.000
   12        0.000  -0.000   0.000  -0.000
   13       -0.000  -0.000   0.000  -0.000
   14       -0.000  -0.000   0.000  -0.000
   15        0.000  -0.000   0.000  -0.000
   16       -0.000  -0.000   0.000  -0.000
--------------------------------------------------
tot          0.000  -0.000   0.000  -0.000
 
    CHARGE:  cpu time    0.1752: real time    0.3478
    FORLOC:  cpu time    0.0033: real time    0.0066
    FORNL :  cpu time    0.7530: real time    1.5096
    STRESS:  cpu time    2.4814: real time    4.9597
    FORCOR:  cpu time    0.0370: real time    0.0724
    FORHAR:  cpu time    0.0066: real time    0.0129
    MIXING:  cpu time    0.0017: real time    0.0078
    OFIELD:  cpu time    0.0001: real time    0.0001

  FORCE on cell =-STRESS in cart. coord.  units (eV):
  Direction    XX          YY          ZZ          XY          YZ          ZX
  --------------------------------------------------------------------------------------
  Alpha Z   129.96264   129.96264   129.96264
  Ewald   -1023.04017 -1129.77123 -1070.35218     0.00000    -0.00000     0.00000
  Hartree   520.51288   436.10982   483.19148    -0.00000    -0.00000    -0.00000
  E(xc)    -363.33755  -363.38498  -363.35276     0.00000    -0.00000     0.00000
  Local    -629.25089  -437.12581  -544.55770     0.00000     0.00000    -0.00000
  n-local  -199.52284  -200.16656  -200.16369     0.05094     0.00083     0.01484
  augment   142.29703   142.25907   142.31464    -0.00000     0.00000    -0.00000
  Kinetic  1422.34054  1422.17582  1423.04175    -0.30613    -0.01728    -0.04594
  Fock        0.00000     0.00000     0.00000     0.00000     0.00000     0.00000
  -------------------------------------------------------------------------------------
  Total      -0.03835     0.05876     0.08417     0.00000     0.00000     0.00000
  in kB      -0.38710     0.59318     0.84964     0.00000     0.00000     0.00000
  external pressure =        0.35 kB  Pullay stress =        0.00 kB


 VOLUME and BASIS-vectors are now :
 -----------------------------------------------------------------------------
  energy-cutoff  :      520.00
  volume of cell :      158.72
      direct lattice vectors                 reciprocal lattice vectors
     4.898553297  0.000000000  0.000000000     0.204141905  0.000000000  0.000000000
     0.000000000  5.271135641  0.000000000     0.000000000  0.189712439  0.000000000
     0.000000000  0.000000000  6.146941705     0.000000000  0.000000000  0.162682525

  length of vectors
     4.898553297  5.271135641  6.146941705     0.204141905  0.189712439  0.162682525


 FORCES acting on ions
    electron-ion (+dipol)            ewald-force                    non-local-force                 convergence-correction
 -----------------------------------------------------------------------------------------------
   0.413E+00 0.292E+02 0.401E-05   -.550E+00 -.283E+02 -.711E-14   0.139E+00 -.861E+00 0.000E+00   -.298E-03 -.715E-03 0.148E-12
   0.413E+00 -.292E+02 0.970E-06   -.550E+00 0.283E+02 0.711E-14   0.139E+00 0.861E+00 0.000E+00   -.298E-03 0.715E-03 -.946E-13
   0.276E+01 -.153E+02 -.535E+01   -.269E+01 0.151E+02 0.505E+01   -.678E-01 0.253E+00 0.296E+00   -.366E-03 0.570E-03 0.237E-03
   0.276E+01 0.153E+02 0.535E+01   -.269E+01 -.151E+02 -.505E+01   -.678E-01 -.253E+00 -.296E+00   -.366E-03 -.570E-03 -.237E-03
   0.276E+01 0.153E+02 -.535E+01   -.269E+01 -.151E+02 0.505E+01   -.678E-01 -.253E+00 0.296E+00   -.366E-03 -.570E-03 0.237E-03
   0.276E+01 -.153E+02 0.535E+01   -.269E+01 0.151E+02 -.505E+01   -.678E-01 0.253E+00 -.296E+00   -.366E-03 0.570E-03 -.237E-03
   -.404E+01 0.108E+02 -.117E-06   0.362E+01 -.108E+02 -.284E-13   0.415E+00 0.222E-02 0.000E+00   0.880E-03 -.610E-03 -.201E-12
   -.404E+01 -.108E+02 -.299E-06   0.362E+01 0.108E+02 -.355E-14   0.415E+00 -.222E-02 0.000E+00   0.880E-03 0.610E-03 0.164E-12
   -.358E+02 -.706E+02 0.100E+03   0.462E+02 0.851E+02 -.126E+03   -.104E+02 -.146E+02 0.257E+02   0.132E-02 0.229E-02 -.258E-02
   -.369E+02 -.120E+03 0.107E-05   0.471E+02 0.150E+03 0.000E+00   -.102E+02 -.296E+02 0.000E+00   0.134E-02 0.345E-02 -.245E-12
   0.106E+03 0.217E+02 -.412E-06   -.137E+03 -.224E+02 -.711E-14   0.313E+02 0.795E+00 0.000E+00   -.202E-02 -.505E-03 -.210E-12
   0.106E+03 -.217E+02 -.611E-06   -.137E+03 0.224E+02 -.142E-13   0.313E+02 -.795E+00 0.000E+00   -.202E-02 0.505E-03 0.350E-12
   -.358E+02 0.706E+02 0.100E+03   0.462E+02 -.851E+02 -.126E+03   -.104E+02 0.146E+02 0.257E+02   0.132E-02 -.229E-02 -.258E-02
   -.358E+02 -.706E+02 -.100E+03   0.462E+02 0.851E+02 0.126E+03   -.104E+02 -.146E+02 -.257E+02   0.132E-02 0.229E-02 0.258E-02
   -.369E+02 0.120E+03 -.470E-06   0.471E+02 -.150E+03 -.711E-14   -.102E+02 0.296E+02 0.000E+00   0.134E-02 -.345E-02 0.222E-12
   -.358E+02 0.706E+02 -.100E+03   0.462E+02 -.851E+02 0.126E+03   -.104E+02 0.146E+02 -.257E+02   0.132E-02 -.229E-02 0.258E-02
 -----------------------------------------------------------------------------------------------
   -.143E+01 0.958E-11 0.120E-04   0.000E+00 0.142E-13 -.284E-13   0.145E+01 0.178E-14 0.355E-14   0.362E-02 0.587E-13 0.204E-13
 
 
 POSITION                                       TOTAL-FORCE (eV/Angst)
 -----------------------------------------------------------------------------------
      2.49536      4.45443      0.00000         0.000415     -0.013033      0.000000
      0.04609      0.81670      3.07347         0.000415      0.013033      0.000000
      2.49116      1.71994      1.55311         0.002673      0.011239      0.001624
      0.04188      3.55120      1.52036         0.002673     -0.011239     -0.001624
      0.04188      3.55120      4.62658         0.002673     -0.011239      0.001624
      2.49116      1.71994      4.59383         0.002673      0.011239     -0.001624
      2.45585      4.34481      3.07347         0.003301     -0.001313      0.000000
      0.00657      0.92633      0.00000         0.003301      0.001313      0.000000
      0.52656      1.65625      4.86810        -0.011695     -0.011403     -0.006104
      2.95235      0.55282      3.07347        -0.007071     -0.011637      0.000000
      0.89821      4.31464      3.07347         0.021399      0.010683      0.000000
      3.34748      0.95649      0.00000         0.021399     -0.010683      0.000000
      2.97584      3.61488      1.79463        -0.011695      0.011403     -0.006104
      0.52656      1.65625      1.27884        -0.011695     -0.011403      0.006104
      0.50308      4.71832      0.00000        -0.007071      0.011637      0.000000
      2.97584      3.61488      4.35231        -0.011695      0.011403      0.006104
 -----------------------------------------------------------------------------------
    total drift:                                0.023448      0.000000      0.000012


--------------------------------------------------------------------------------------------------------



  FREE ENERGIE OF THE ION-ELECTRON SYSTEM (eV)
  ---------------------------------------------------
  free  energy   TOTEN  =      -100.68419886 eV

  energy  without entropy=     -100.68419886  energy(sigma->0) =     -100.68419886
 
 d Force = 0.2566832E-02[-0.856E-04, 0.522E-02]  d Energy = 0.3309645E-02-0.743E-03
 d Force =-0.9107595E+00[-0.931E+00,-0.890E+00]  d Ewald  =-0.3382763E+01 0.247E+01


--------------------------------------------------------------------------------------------------------


    POTLOK:  cpu time    0.2787: real time    0.5613


--------------------------------------------------------------------------------------------------------




--------------------------------------------------------------------------------------------------------


  
 reached required accuracy - stopping structural energy minimisation
     LOOP+:  cpu time   27.8785: real time   55.8005
    4ORBIT:  cpu time    0.0000: real time    0.0000
 


 total charge     
 
# of ion       s       p       d       tot
------------------------------------------
    1        2.019   0.052   0.000   2.071
    2        2.019   0.052   0.000   2.071
    3        2.024   0.059   0.000   2.084
    4        2.024   0.060   0.000   2.084
    5        2.024   0.060   0.000   2.084
    6        2.024   0.060   0.000   2.084
    7        0.913   1.491   0.000   2.404
    8        0.913   1.491   0.000   2.404
    9        1.558   3.600   0.000   5.158
   10        1.558   3.604   0.000   5.162
   11        1.559   3.616   0.000   5.175
   12        1.559   3.618   0.000   5.177
   13        1.558   3.600   0.000   5.158
   14        1.558   3.600   0.000   5.158
   15        1.558   3.605   0.000   5.163
   16        1.558   3.599   0.000   5.157
--------------------------------------------------
tot         26.429  32.164   0.000  58.594
 


 magnetization (x)
 
# of ion       s       p       d       tot
------------------------------------------
    1        0.000  -0.000   0.000  -0.000
    2        0.000  -0.000   0.000  -0.000
    3        0.000  -0.000   0.000   0.000
    4        0.000  -0.000   0.000   0.000
    5        0.000  -0.000   0.000   0.000
    6        0.000  -0.000   0.000   0.000
    7        0.000   0.000   0.000   0.000
    8        0.000   0.000   0.000   0.000
    9       -0.000  -0.000   0.000  -0.000
   10        0.000  -0.000   0.000  -0.000
   11        0.000  -0.000   0.000  -0.000
   12        0.000  -0.000   0.000  -0.000
   13       -0.000  -0.000   0.000  -0.000
   14       -0.000  -0.000   0.000  -0.000
   15        0.000  -0.000   0.000  -0.000
   16       -0.000  -0.000   0.000  -0.000
--------------------------------------------------
tot          0.000  -0.000   0.000  -0.000
 
 BZINTS: Fermi energy:  1.306954; 76.000000 electrons
         Band energy:-818.123959;  BLOECHL correction:  0.000000

 total amount of memory used by VASP MPI-rank0    50766. kBytes
=======================================================================

   base      :      30000. kBytes
   nonlr-proj:       1498. kBytes
   fftplans  :       1409. kBytes
   grid      :       3833. kBytes
   one-center:         18. kBytes
   wavefun   :      14008. kBytes
 
  
  
 General timing and accounting informations for this job:
 ========================================================
  
                  Total CPU time used (sec):      309.667
                            User time (sec):      289.672
                          System time (sec):       19.995
                         Elapsed time (sec):      848.199
  
                   Maximum memory used (kb):      114112.
                   Average memory used (kb):           0.
  
                          Minor page faults:        82075
                          Major page faults:            0
                 Voluntary context switches:        63356
