    4    4    1    2
  0.1112090E+02  0.3277257E-09  0.3277257E-09  0.4954933E-09  0.5000000E-15
  1.000000000000000E-004
  CAR 
 unknown system                          
     18    234     16
 
  0.0000000E+00  0.0000000E+00  0.0000000E+00  0.1180638E-02
    1      -43.109598    -43.109059   1.000000   1.000000
    2      -21.788529    -21.788572   1.000000   1.000000
    3      -17.405592    -17.405647   1.000000   1.000000
    4       -6.638828     -6.638889   1.000000   1.000000
    5       -5.130388     -5.130437   1.000000   1.000000
    6       -5.065273     -5.065323   1.000000   1.000000
    7       -3.534249     -3.534323   1.000000   1.000000
    8        0.753782      0.753686   1.000000   1.000000
    9        0.827232      0.827132   1.000000   1.000000
   10        6.536866      6.536824   0.000000   0.000000
   11        6.540982      6.540986   0.000000   0.000000
   12        6.917771      6.917712   0.000000   0.000000
   13       10.339093     10.339235   0.000000   0.000000
   14       11.883289     11.883288   0.000000   0.000000
   15       14.623193     14.623286   0.000000   0.000000
   16       14.811027     14.811213   0.000000   0.000000
 
  0.9090909E-01 -0.9461909E-17 -0.3730615E-17  0.4722550E-02
    1      -43.109122    -43.108582   1.000000   1.000000
    2      -21.771799    -21.771842   1.000000   1.000000
    3      -17.396300    -17.396355   1.000000   1.000000
    4       -6.601752     -6.601814   1.000000   1.000000
    5       -5.226863     -5.226913   1.000000   1.000000
    6       -5.098444     -5.098494   1.000000   1.000000
    7       -3.538204     -3.538279   1.000000   1.000000
    8        0.639661      0.639569   1.000000   1.000000
    9        0.739195      0.739099   1.000000   1.000000
   10        6.418808      6.418794   0.000000   0.000000
   11        6.676485      6.676446   0.000000   0.000000
   12        7.023505      7.023462   0.000000   0.000000
   13       10.547542     10.547682   0.000000   0.000000
   14       11.916373     11.916373   0.000000   0.000000
   15       14.533981     14.533786   0.000000   0.000000
   16       14.737457     14.732818   0.000000   0.000000
 
  0.1818182E+00 -0.2581533E-16  0.3048891E-17  0.4722550E-02
    1      -43.107881    -43.107342   1.000000   1.000000
    2      -21.726696    -21.726739   1.000000   1.000000
    3      -17.371362    -17.371417   1.000000   1.000000
    4       -6.507665     -6.507724   1.000000   1.000000
    5       -5.488333     -5.488387   1.000000   1.000000
    6       -5.158686     -5.158736   1.000000   1.000000
    7       -3.551641     -3.551718   1.000000   1.000000
    8        0.248909      0.248828   1.000000   1.000000
    9        0.611109      0.611017   1.000000   1.000000
   10        6.181353      6.181343   0.000000   0.000000
   11        6.668094      6.668042   0.000000   0.000000
   12        7.583476      7.583451   0.000000   0.000000
   13       11.090521     11.090657   0.000000   0.000000
   14       11.998847     11.999255   0.000000   0.000000
   15       13.710131     13.704590   0.000000   0.000000
   16       14.672369     14.657742   0.000000   0.000000
 
  0.2727273E+00 -0.8498632E-16 -0.8255123E-17  0.4722550E-02
    1      -43.106246    -43.105707   1.000000   1.000000
    2      -21.666494    -21.666537   1.000000   1.000000
    3      -17.338540    -17.338595   1.000000   1.000000
    4       -6.429888     -6.429940   1.000000   1.000000
    5       -5.747481     -5.747545   1.000000   1.000000
    6       -5.231295     -5.231346   1.000000   1.000000
    7       -3.579392     -3.579473   1.000000   1.000000
    8       -0.231922     -0.231989   1.000000   1.000000
    9        0.457805      0.457718   1.000000   1.000000
   10        5.776808      5.776804   0.000000   0.000000
   11        6.691141      6.691085   0.000000   0.000000
   12        8.323394      8.323374   0.000000   0.000000
   13       11.659090     11.659190   0.000000   0.000000
   14       12.123176     12.120651   0.000000   0.000000
   15       13.044746     13.038506   0.000000   0.000000
   16       14.546746     14.515383   0.000000   0.000000
 
  0.3636364E+00 -0.8173142E-16 -0.1955914E-16  0.4722550E-02
    1      -43.104743    -43.104203   1.000000   1.000000
    2      -21.610154    -21.610198   1.000000   1.000000
    3      -17.308119    -17.308175   1.000000   1.000000
    4       -6.494373     -6.494417   1.000000   1.000000
    5       -5.806035     -5.806111   1.000000   1.000000
    6       -5.296394     -5.296445   1.000000   1.000000
    7       -3.623069     -3.623153   1.000000   1.000000
    8       -0.640611     -0.640668   1.000000   1.000000
    9        0.323864      0.323781   1.000000   1.000000
   10        5.388068      5.388071   0.000000   0.000000
   11        6.713753      6.713696   0.000000   0.000000
   12        8.878682      8.878601   0.000000   0.000000
   13       11.883445     11.883546   0.000000   0.000000
   14       12.201129     12.197386   0.000000   0.000000
   15       13.279417     13.276408   0.000000   0.000000
   16       14.401862     14.376260   0.000000   0.000000
 
  0.4545455E+00 -0.5301684E-16  0.3001675E-17  0.4722550E-02
    1      -43.103863    -43.103323   1.000000   1.000000
    2      -21.576246    -21.576290   1.000000   1.000000
    3      -17.290042    -17.290099   1.000000   1.000000
    4       -6.603085     -6.603128   1.000000   1.000000
    5       -5.747572     -5.747655   1.000000   1.000000
    6       -5.335012     -5.335063   1.000000   1.000000
    7       -3.662779     -3.662865   1.000000   1.000000
    8       -0.869516     -0.869567   1.000000   1.000000
    9        0.247570      0.247490   1.000000   1.000000
   10        5.155056      5.155064   0.000000   0.000000
   11        6.724379      6.724321   0.000000   0.000000
   12        9.082074      9.082088   0.000000   0.000000
   13       11.894287     11.894353   0.000000   0.000000
   14       12.415677     12.415155   0.000000   0.000000
   15       13.646648     13.647782   0.000000   0.000000
   16       14.278680     14.278548   0.000000   0.000000
 
  0.9090909E-01  0.9090909E-01 -0.7461229E-17  0.2361275E-02
    1      -43.109095    -43.108556   1.000000   1.000000
    2      -21.769834    -21.769877   1.000000   1.000000
    3      -17.397857    -17.397912   1.000000   1.000000
    4       -6.582037     -6.582099   1.000000   1.000000
    5       -5.176883     -5.176934   1.000000   1.000000
    6       -5.165158     -5.165208   1.000000   1.000000
    7       -3.561245     -3.561320   1.000000   1.000000
    8        0.578366      0.578276   1.000000   1.000000
    9        0.821921      0.821822   1.000000   1.000000
   10        6.360953      6.360945   0.000000   0.000000
   11        6.817680      6.817623   0.000000   0.000000
   12        6.986497      6.986464   0.000000   0.000000
   13       10.498333     10.498469   0.000000   0.000000
   14       11.848699     11.848709   0.000000   0.000000
   15       14.622177     14.622470   0.000000   0.000000
   16       14.859718     14.859868   0.000000   0.000000
 
  0.1818182E+00  0.9090909E-01  0.5622664E-17  0.4722550E-02
    1      -43.108183    -43.107643   1.000000   1.000000
    2      -21.737130    -21.737173   1.000000   1.000000
    3      -17.382171    -17.382226   1.000000   1.000000
    4       -6.496568     -6.496630   1.000000   1.000000
    5       -5.392408     -5.392460   1.000000   1.000000
    6       -5.189070     -5.189120   1.000000   1.000000
    7       -3.592174     -3.592251   1.000000   1.000000
    8        0.322333      0.322250   1.000000   1.000000
    9        0.737448      0.737353   1.000000   1.000000
   10        6.277759      6.277751   0.000000   0.000000
   11        6.691595      6.691541   0.000000   0.000000
   12        7.436326      7.436293   0.000000   0.000000
   13       10.849768     10.849876   0.000000   0.000000
   14       11.854062     11.854297   0.000000   0.000000
   15       14.029109     14.028783   0.000000   0.000000
   16       14.621273     14.617317   0.000000   0.000000
 
  0.2727273E+00  0.9090909E-01 -0.3597495E-16  0.4722550E-02
    1      -43.106728    -43.106188   1.000000   1.000000
    2      -21.683338    -21.683381   1.000000   1.000000
    3      -17.354117    -17.354172   1.000000   1.000000
    4       -6.390541     -6.390599   1.000000   1.000000
    5       -5.662128     -5.662187   1.000000   1.000000
    6       -5.256584     -5.256634   1.000000   1.000000
    7       -3.630900     -3.630980   1.000000   1.000000
    8       -0.062271     -0.062343   1.000000   1.000000
    9        0.559894      0.559805   1.000000   1.000000
   10        5.958635      5.958628   0.000000   0.000000
   11        6.656717      6.656666   0.000000   0.000000
   12        8.139524      8.139509   0.000000   0.000000
   13       11.394740     11.394845   0.000000   0.000000
   14       11.960503     11.960721   0.000000   0.000000
   15       13.156124     13.155054   0.000000   0.000000
   16       14.584418     14.579462   0.000000   0.000000
 
  0.3636364E+00  0.9090909E-01 -0.2265525E-16  0.4722550E-02
    1      -43.105159    -43.104619   1.000000   1.000000
    2      -21.625136    -21.625179   1.000000   1.000000
    3      -17.322530    -17.322586   1.000000   1.000000
    4       -6.392392     -6.392440   1.000000   1.000000
    5       -5.792979     -5.793052   1.000000   1.000000
    6       -5.333601     -5.333652   1.000000   1.000000
    7       -3.678186     -3.678268   1.000000   1.000000
    8       -0.456387     -0.456449   1.000000   1.000000
    9        0.371297      0.371214   1.000000   1.000000
   10        5.549328      5.549327   0.000000   0.000000
   11        6.647525      6.647474   0.000000   0.000000
   12        8.866547      8.866513   0.000000   0.000000
   13       11.709906     11.709205   0.000000   0.000000
   14       12.096168     12.094938   0.000000   0.000000
   15       13.047259     13.046657   0.000000   0.000000
   16       14.499117     14.495691   0.000000   0.000000
 
  0.4545455E+00  0.9090909E-01 -0.5170484E-17  0.4722550E-02
    1      -43.103980    -43.103440   1.000000   1.000000
    2      -21.581121    -21.581164   1.000000   1.000000
    3      -17.297270    -17.297326   1.000000   1.000000
    4       -6.517629     -6.517672   1.000000   1.000000
    5       -5.749327     -5.749406   1.000000   1.000000
    6       -5.381771     -5.381823   1.000000   1.000000
    7       -3.720662     -3.720747   1.000000   1.000000
    8       -0.741841     -0.741895   1.000000   1.000000
    9        0.225682      0.225603   1.000000   1.000000
   10        5.236981      5.236986   0.000000   0.000000
   11        6.625197      6.625147   0.000000   0.000000
   12        9.283375      9.283364   0.000000   0.000000
   13       11.922609     11.922436   0.000000   0.000000
   14       12.166922     12.166303   0.000000   0.000000
   15       13.407606     13.408005   0.000000   0.000000
   16       14.389619     14.388816   0.000000   0.000000
 
 -0.4545455E+00  0.9090909E-01 -0.7176104E-16  0.4722550E-02
    1      -43.103588    -43.103049   1.000000   1.000000
    2      -21.566195    -21.566239   1.000000   1.000000
    3      -17.286649    -17.286705   1.000000   1.000000
    4       -6.586069     -6.586112   1.000000   1.000000
    5       -5.720088     -5.720166   1.000000   1.000000
    6       -5.389758     -5.389813   1.000000   1.000000
    7       -3.720612     -3.720698   1.000000   1.000000
    8       -0.848030     -0.848082   1.000000   1.000000
    9        0.157851      0.157773   1.000000   1.000000
   10        5.127877      5.127883   0.000000   0.000000
   11        6.600703      6.600655   0.000000   0.000000
   12        9.385557      9.385575   0.000000   0.000000
   13       11.944953     11.945001   0.000000   0.000000
   14       12.414112     12.413888   0.000000   0.000000
   15       13.500051     13.500743   0.000000   0.000000
   16       14.296225     14.296076   0.000000   0.000000
 
 -0.3636364E+00  0.9090909E-01 -0.1323674E-16  0.4722550E-02
    1      -43.104081    -43.103541   1.000000   1.000000
    2      -21.585403    -21.585447   1.000000   1.000000
    3      -17.294037    -17.294094   1.000000   1.000000
    4       -6.544314     -6.544359   1.000000   1.000000
    5       -5.744542     -5.744620   1.000000   1.000000
    6       -5.378884     -5.378938   1.000000   1.000000
    7       -3.661541     -3.661626   1.000000   1.000000
    8       -0.752374     -0.752427   1.000000   1.000000
    9        0.186518      0.186439   1.000000   1.000000
   10        5.251780      5.251784   0.000000   0.000000
   11        6.583866      6.583819   0.000000   0.000000
   12        9.287844      9.287802   0.000000   0.000000
   13       11.932499     11.932427   0.000000   0.000000
   14       12.380425     12.378247   0.000000   0.000000
   15       13.324675     13.325122   0.000000   0.000000
   16       14.246904     14.246696   0.000000   0.000000
 
 -0.2727273E+00  0.9090909E-01 -0.3588052E-16  0.4722550E-02
    1      -43.105314    -43.104774   1.000000   1.000000
    2      -21.632147    -21.632189   1.000000   1.000000
    3      -17.317141    -17.317197   1.000000   1.000000
    4       -6.465799     -6.465845   1.000000   1.000000
    5       -5.747483     -5.747554   1.000000   1.000000
    6       -5.331174     -5.331224   1.000000   1.000000
    7       -3.586897     -3.586980   1.000000   1.000000
    8       -0.468267     -0.468327   1.000000   1.000000
    9        0.305894      0.305811   1.000000   1.000000
   10        5.563247      5.563245   0.000000   0.000000
   11        6.571676      6.571629   0.000000   0.000000
   12        8.864857      8.864230   0.000000   0.000000
   13       11.895134     11.895151   0.000000   0.000000
   14       12.315019     12.305446   0.000000   0.000000
   15       12.946736     12.946658   0.000000   0.000000
   16       14.293592     14.245245   0.000000   0.000000
 
 -0.1818182E+00  0.9090909E-01 -0.1342148E-16  0.4722550E-02
    1      -43.106884    -43.106344   1.000000   1.000000
    2      -21.690819    -21.690858   1.000000   1.000000
    3      -17.348433    -17.348489   1.000000   1.000000
    4       -6.479209     -6.479264   1.000000   1.000000
    5       -5.606604     -5.606663   1.000000   1.000000
    6       -5.243670     -5.243720   1.000000   1.000000
    7       -3.540732     -3.540813   1.000000   1.000000
    8       -0.055564     -0.055635   1.000000   1.000000
    9        0.476114      0.476027   1.000000   1.000000
   10        5.963943      5.963934   0.000000   0.000000
   11        6.555373      6.555328   0.000000   0.000000
   12        8.139394      8.139240   0.000000   0.000000
   13       11.526033     11.526085   0.000000   0.000000
   14       12.234289     12.231194   0.000000   0.000000
   15       13.166120     13.161892   0.000000   0.000000
   16       14.410870     14.277076   0.000000   0.000000
 
 -0.9090909E-01  0.9090909E-01 -0.4370415E-16  0.2361275E-02
    1      -43.108312    -43.107772   1.000000   1.000000
    2      -21.742663    -21.742704   1.000000   1.000000
    3      -17.377932    -17.377988   1.000000   1.000000
    4       -6.554888     -6.554945   1.000000   1.000000
    5       -5.386310     -5.386362   1.000000   1.000000
    6       -5.147706     -5.147755   1.000000   1.000000
    7       -3.528327     -3.528403   1.000000   1.000000
    8        0.372416      0.372332   1.000000   1.000000
    9        0.630705      0.630613   1.000000   1.000000
   10        6.329000      6.328987   0.000000   0.000000
   11        6.540255      6.540213   0.000000   0.000000
   12        7.435094      7.435218   0.000000   0.000000
   13       10.950605     10.950804   0.000000   0.000000
   14       12.054269     12.054653   0.000000   0.000000
   15       14.298202     14.152263   0.000000   0.000000
   16       14.841436     14.461937   0.000000   0.000000
 
  0.1818182E+00  0.1818182E+00 -0.2673384E-16  0.2361275E-02
    1      -43.107747    -43.107208   1.000000   1.000000
    2      -21.719032    -21.719075   1.000000   1.000000
    3      -17.377666    -17.377722   1.000000   1.000000
    4       -6.431225     -6.431286   1.000000   1.000000
    5       -5.441023     -5.441077   1.000000   1.000000
    6       -5.256959     -5.257008   1.000000   1.000000
    7       -3.648928     -3.649006   1.000000   1.000000
    8        0.138188      0.138111   1.000000   1.000000
    9        0.810633      0.810535   1.000000   1.000000
   10        6.301162      6.301156   0.000000   0.000000
   11        6.552207      6.552156   0.000000   0.000000
   12        7.682939      7.682901   0.000000   0.000000
   13       10.914255     10.914178   0.000000   0.000000
   14       11.831400     11.832323   0.000000   0.000000
   15       13.893616     13.900067   0.000000   0.000000
   16       14.563958     14.563847   0.000000   0.000000
 
  0.2727273E+00  0.1818182E+00 -0.3236798E-16  0.4722550E-02
    1      -43.106605    -43.106066   1.000000   1.000000
    2      -21.677490    -21.677533   1.000000   1.000000
    3      -17.359242    -17.359298   1.000000   1.000000
    4       -6.341903     -6.341961   1.000000   1.000000
    5       -5.604609     -5.604669   1.000000   1.000000
    6       -5.329380     -5.329430   1.000000   1.000000
    7       -3.715250     -3.715329   1.000000   1.000000
    8       -0.149014     -0.149082   1.000000   1.000000
    9        0.719282      0.719188   1.000000   1.000000
   10        6.092419      6.092407   0.000000   0.000000
   11        6.467974      6.467934   0.000000   0.000000
   12        8.237068      8.237007   0.000000   0.000000
   13       11.189396     11.189424   0.000000   0.000000
   14       11.984336     11.984350   0.000000   0.000000
   15       13.233638     13.235257   0.000000   0.000000
   16       14.473861     14.473863   0.000000   0.000000
 
  0.3636364E+00  0.1818182E+00 -0.2785001E-16  0.4722550E-02
    1      -43.105193    -43.104653   1.000000   1.000000
    2      -21.625393    -21.625436   1.000000   1.000000
    3      -17.332660    -17.332716   1.000000   1.000000
    4       -6.318704     -6.318754   1.000000   1.000000
    5       -5.697446     -5.697516   1.000000   1.000000
    6       -5.430812     -5.430863   1.000000   1.000000
    7       -3.790381     -3.790463   1.000000   1.000000
    8       -0.432580     -0.432641   1.000000   1.000000
    9        0.497339      0.497253   1.000000   1.000000
   10        5.710797      5.710790   0.000000   0.000000
   11        6.432129      6.432091   0.000000   0.000000
   12        9.027845      9.027747   0.000000   0.000000
   13       11.387592     11.387709   0.000000   0.000000
   14       12.199579     12.199430   0.000000   0.000000
   15       12.949617     12.949669   0.000000   0.000000
   16       14.385296     14.385468   0.000000   0.000000
 
  0.4545455E+00  0.1818182E+00  0.2500440E-16  0.4722550E-02
    1      -43.103958    -43.103419   1.000000   1.000000
    2      -21.579164    -21.579208   1.000000   1.000000
    3      -17.306229    -17.306286   1.000000   1.000000
    4       -6.394087     -6.394132   1.000000   1.000000
    5       -5.730944     -5.731009   1.000000   1.000000
    6       -5.453164     -5.453229   1.000000   1.000000
    7       -3.862210     -3.862294   1.000000   1.000000
    8       -0.633476     -0.633533   1.000000   1.000000
    9        0.233347      0.233270   1.000000   1.000000
   10        5.363871      5.363871   0.000000   0.000000
   11        6.380061      6.380027   0.000000   0.000000
   12        9.757795      9.757778   0.000000   0.000000
   13       11.607560     11.607258   0.000000   0.000000
   14       12.143195     12.143215   0.000000   0.000000
   15       13.179269     13.179376   0.000000   0.000000
   16       14.285115     14.285585   0.000000   0.000000
 
 -0.4545455E+00  0.1818182E+00 -0.2457650E-16  0.4722550E-02
    1      -43.103296    -43.102756   1.000000   1.000000
    2      -21.554051    -21.554094   1.000000   1.000000
    3      -17.288377    -17.288433   1.000000   1.000000
    4       -6.468513     -6.468557   1.000000   1.000000
    5       -5.782917     -5.782975   1.000000   1.000000
    6       -5.403225     -5.403301   1.000000   1.000000
    7       -3.884447     -3.884531   1.000000   1.000000
    8       -0.713090     -0.713144   1.000000   1.000000
    9        0.018250      0.018178   1.000000   1.000000
   10        5.166072      5.166076   0.000000   0.000000
   11        6.344804      6.344772   0.000000   0.000000
   12       10.060143     10.060147   0.000000   0.000000
   13       11.997209     11.997018   0.000000   0.000000
   14       12.187938     12.187890   0.000000   0.000000
   15       13.181753     13.181901   0.000000   0.000000
   16       14.193457     14.193628   0.000000   0.000000
 
 -0.3636364E+00  0.1818182E+00 -0.1276162E-16  0.4722550E-02
    1      -43.103385    -43.102846   1.000000   1.000000
    2      -21.558394    -21.558437   1.000000   1.000000
    3      -17.284837    -17.284893   1.000000   1.000000
    4       -6.492653     -6.492698   1.000000   1.000000
    5       -5.763046     -5.763106   1.000000   1.000000
    6       -5.434451     -5.434528   1.000000   1.000000
    7       -3.810416     -3.810501   1.000000   1.000000
    8       -0.687101     -0.687155   1.000000   1.000000
    9       -0.060419     -0.060491   1.000000   1.000000
   10        5.168956      5.168959   0.000000   0.000000
   11        6.350835      6.350803   0.000000   0.000000
   12       10.023832     10.023819   0.000000   0.000000
   13       11.952406     11.952200   0.000000   0.000000
   14       12.439757     12.439211   0.000000   0.000000
   15       13.116713     13.116724   0.000000   0.000000
   16       14.146896     14.146763   0.000000   0.000000
 
 -0.2727273E+00  0.1818182E+00 -0.1395421E-16  0.4722550E-02
    1      -43.104228    -43.103688   1.000000   1.000000
    2      -21.590767    -21.590811   1.000000   1.000000
    3      -17.296886    -17.296942   1.000000   1.000000
    4       -6.475995     -6.476039   1.000000   1.000000
    5       -5.665375     -5.665442   1.000000   1.000000
    6       -5.515119     -5.515181   1.000000   1.000000
    7       -3.681092     -3.681177   1.000000   1.000000
    8       -0.580566     -0.580622   1.000000   1.000000
    9        0.043745      0.043671   1.000000   1.000000
   10        5.354853      5.354852   0.000000   0.000000
   11        6.396765      6.396730   0.000000   0.000000
   12        9.646981      9.646802   0.000000   0.000000
   13       11.873827     11.873481   0.000000   0.000000
   14       12.532081     12.527673   0.000000   0.000000
   15       12.898434     12.897022   0.000000   0.000000
   16       14.143033     14.129141   0.000000   0.000000
 
 -0.1818182E+00  0.1818182E+00 -0.2634087E-16  0.2361275E-02
    1      -43.105537    -43.104998   1.000000   1.000000
    2      -21.640282    -21.640329   1.000000   1.000000
    3      -17.320643    -17.320699   1.000000   1.000000
    4       -6.459405     -6.459454   1.000000   1.000000
    5       -5.653814     -5.653883   1.000000   1.000000
    6       -5.411197     -5.411247   1.000000   1.000000
    7       -3.579783     -3.579867   1.000000   1.000000
    8       -0.367747     -0.367809   1.000000   1.000000
    9        0.262906      0.262825   1.000000   1.000000
   10        5.652916      5.652910   0.000000   0.000000
   11        6.466160      6.466122   0.000000   0.000000
   12        8.920043      8.918533   0.000000   0.000000
   13       11.898221     11.898354   0.000000   0.000000
   14       12.515626     12.505902   0.000000   0.000000
   15       12.649437     12.649485   0.000000   0.000000
   16       14.183440     14.130119   0.000000   0.000000
 
  0.2727273E+00  0.2727273E+00  0.4407696E-16  0.2361275E-02
    1      -43.105909    -43.105370   1.000000   1.000000
    2      -21.650637    -21.650681   1.000000   1.000000
    3      -17.352306    -17.352362   1.000000   1.000000
    4       -6.310813     -6.310866   1.000000   1.000000
    5       -5.623127     -5.623193   1.000000   1.000000
    6       -5.374195     -5.374245   1.000000   1.000000
    7       -3.817984     -3.818066   1.000000   1.000000
    8       -0.381090     -0.381150   1.000000   1.000000
    9        0.802288      0.802192   1.000000   1.000000
   10        6.135406      6.135401   0.000000   0.000000
   11        6.210422      6.210379   0.000000   0.000000
   12        8.555626      8.555534   0.000000   0.000000
   13       11.099687     11.099174   0.000000   0.000000
   14       12.200971     12.200612   0.000000   0.000000
   15       13.114146     13.108847   0.000000   0.000000
   16       14.307294     14.304961   0.000000   0.000000
 
  0.3636364E+00  0.2727273E+00 -0.1453030E-16  0.4722550E-02
    1      -43.104881    -43.104341   1.000000   1.000000
    2      -21.610962    -21.611005   1.000000   1.000000
    3      -17.335590    -17.335646   1.000000   1.000000
    4       -6.339561     -6.339608   1.000000   1.000000
    5       -5.573430     -5.573503   1.000000   1.000000
    6       -5.468366     -5.468417   1.000000   1.000000
    7       -3.933389     -3.933472   1.000000   1.000000
    8       -0.607089     -0.607143   1.000000   1.000000
    9        0.703959      0.703867   1.000000   1.000000
   10        5.839615      5.839600   0.000000   0.000000
   11        6.158913      6.158886   0.000000   0.000000
   12        9.153939      9.153859   0.000000   0.000000
   13       11.133969     11.133972   0.000000   0.000000
   14       12.378042     12.378223   0.000000   0.000000
   15       12.981688     12.979108   0.000000   0.000000
   16       14.150007     14.148480   0.000000   0.000000
 
  0.4545455E+00  0.2727273E+00 -0.2733914E-16  0.4722550E-02
    1      -43.103824    -43.103285   1.000000   1.000000
    2      -21.570927    -21.570970   1.000000   1.000000
    3      -17.314145    -17.314201   1.000000   1.000000
    4       -6.374983     -6.375029   1.000000   1.000000
    5       -5.690132     -5.690184   1.000000   1.000000
    6       -5.392605     -5.392685   1.000000   1.000000
    7       -4.049190     -4.049273   1.000000   1.000000
    8       -0.736256     -0.736307   1.000000   1.000000
    9        0.443201      0.443117   1.000000   1.000000
   10        5.518206      5.518198   0.000000   0.000000
   11        6.096055      6.096034   0.000000   0.000000
   12       10.024321     10.024310   0.000000   0.000000
   13       11.221885     11.221914   0.000000   0.000000
   14       12.303920     12.304043   0.000000   0.000000
   15       13.024779     13.024832   0.000000   0.000000
   16       14.086004     14.085176   0.000000   0.000000
 
 -0.4545455E+00  0.2727273E+00 -0.2640360E-16  0.4722550E-02
    1      -43.103070    -43.102530   1.000000   1.000000
    2      -21.543486    -21.543529   1.000000   1.000000
    3      -17.294727    -17.294784   1.000000   1.000000
    4       -6.350377     -6.350422   1.000000   1.000000
    5       -5.910746     -5.910796   1.000000   1.000000
    6       -5.265630     -5.265717   1.000000   1.000000
    7       -4.111623     -4.111704   1.000000   1.000000
    8       -0.722829     -0.722882   1.000000   1.000000
    9        0.099901      0.099827   1.000000   1.000000
   10        5.276353      5.276350   0.000000   0.000000
   11        6.062468      6.062450   0.000000   0.000000
   12       10.822428     10.822420   0.000000   0.000000
   13       11.458401     11.458391   0.000000   0.000000
   14       12.288405     12.288493   0.000000   0.000000
   15       12.798844     12.798903   0.000000   0.000000
   16       14.069418     14.069317   0.000000   0.000000
 
 -0.3636364E+00  0.2727273E+00 -0.1048476E-16  0.4722550E-02
    1      -43.102889    -43.102349   1.000000   1.000000
    2      -21.537777    -21.537821   1.000000   1.000000
    3      -17.283574    -17.283631   1.000000   1.000000
    4       -6.332848     -6.332894   1.000000   1.000000
    5       -6.001203     -6.001252   1.000000   1.000000
    6       -5.282269     -5.282357   1.000000   1.000000
    7       -4.037471     -4.037552   1.000000   1.000000
    8       -0.569040     -0.569097   1.000000   1.000000
    9       -0.229571     -0.229635   1.000000   1.000000
   10        5.168522      5.168523   0.000000   0.000000
   11        6.105892      6.105873   0.000000   0.000000
   12       10.876189     10.876180   0.000000   0.000000
   13       11.907912     11.907793   0.000000   0.000000
   14       12.363559     12.363595   0.000000   0.000000
   15       12.689039     12.689070   0.000000   0.000000
   16       14.035278     14.035205   0.000000   0.000000
 
 -0.2727273E+00  0.2727273E+00  0.1955590E-16  0.2361275E-02
    1      -43.103324    -43.102785   1.000000   1.000000
    2      -21.555550    -21.555593   1.000000   1.000000
    3      -17.284349    -17.284406   1.000000   1.000000
    4       -6.422505     -6.422551   1.000000   1.000000
    5       -5.832334     -5.832382   1.000000   1.000000
    6       -5.428351     -5.428437   1.000000   1.000000
    7       -3.855512     -3.855596   1.000000   1.000000
    8       -0.512816     -0.512873   1.000000   1.000000
    9       -0.257580     -0.257646   1.000000   1.000000
   10        5.205581      5.205582   0.000000   0.000000
   11        6.227740      6.227715   0.000000   0.000000
   12       10.436212     10.436186   0.000000   0.000000
   13       11.778400     11.778457   0.000000   0.000000
   14       12.665918     12.666004   0.000000   0.000000
   15       12.797221     12.796733   0.000000   0.000000
   16       14.042096     14.041612   0.000000   0.000000
 
  0.3636364E+00  0.3636364E+00 -0.3911828E-16  0.2361275E-02