 running on    8 total cores
 distrk:  each k-point on    8 cores,    1 groups
 distr:  one band on    1 cores,    8 groups
 using from now: INCAR     
 vasp.6.1.2 22Jul20 (build Mar 20 2021 11:25:07) complex                        
  
 POSCAR found type information on POSCAR LiN 
 POSCAR found :  2 types and       4 ions
 scaLAPACK will be used
 -----------------------------------------------------------------------------
|                                                                             |
|           W    W    AA    RRRRR   N    N  II  N    N   GGGG   !!!           |
|           W    W   A  A   R    R  NN   N  II  NN   N  G    G  !!!           |
|           W    W  A    A  R    R  N N  N  II  N N  N  G       !!!           |
|           W WW W  AAAAAA  RRRRR   N  N N  II  N  N N  G  GGG   !            |
|           WW  WW  A    A  R   R   N   NN  II  N   NN  G    G                |
|           W    W  A    A  R    R  N    N  II  N    N   GGGG   !!!           |
|                                                                             |
|     The value NCORE = 6 specified in the INCAR file was overwritten,        |
|     because it was not compatible with the 8 processes available:           |
|     NCORE = 1                                                               |
|     was used instead, please check that this makes sense for your           |
|     machine.                                                                |
|                                                                             |
 -----------------------------------------------------------------------------

 -----------------------------------------------------------------------------
|                                                                             |
|           W    W    AA    RRRRR   N    N  II  N    N   GGGG   !!!           |
|           W    W   A  A   R    R  NN   N  II  NN   N  G    G  !!!           |
|           W    W  A    A  R    R  N N  N  II  N N  N  G       !!!           |
|           W WW W  AAAAAA  RRRRR   N  N N  II  N  N N  G  GGG   !            |
|           WW  WW  A    A  R   R   N   NN  II  N   NN  G    G                |
|           W    W  A    A  R    R  N    N  II  N    N   GGGG   !!!           |
|                                                                             |
|     For optimal performance we recommend to set                             |
|       NCORE = 4 - approx SQRT(number of cores).                             |
|     NCORE specifies how many cores store one orbital (NPAR=cpu/NCORE).      |
|     This setting can greatly improve the performance of VASP for DFT.       |
|     The default, NCORE=1 might be grossly inefficient on modern             |
|     multi-core architectures or massively parallel machines. Do your        |
|     own testing!!!!                                                         |
|     Unfortunately you need to use the default for GW and RPA                |
|     calculations (for HF NCORE is supported but not extensively tested      |
|     yet).                                                                   |
|                                                                             |
 -----------------------------------------------------------------------------

 -----------------------------------------------------------------------------
|                                                                             |
|               ----> ADVICE to this user running VASP <----                  |
|                                                                             |
|     You have a (more or less) 'small supercell' and for smaller cells       |
|     it is recommended to use the reciprocal-space projection scheme!        |
|     The real-space optimization is not efficient for small cells and it     |
|     is also less accurate ...                                               |
|     Therefore, set LREAL=.FALSE. in the INCAR file.                         |
|                                                                             |
 -----------------------------------------------------------------------------

 LDA part: xc-table for Pade appr. of Perdew
 generate k-points for:   11   11    7
 POSCAR, INCAR and KPOINTS ok, starting setup
 FFT: planning ...
 WAVECAR not read
 entering main loop
       N       E                     dE             d eps       ncg     rms          rms(c)
DAV:   1     0.802410752507E+02    0.80241E+02   -0.83695E+03 14976   0.104E+03
DAV:   2    -0.236932725075E+02   -0.10393E+03   -0.10030E+03 20128   0.247E+02
DAV:   3    -0.285937305588E+02   -0.49005E+01   -0.48815E+01 21856   0.559E+01
DAV:   4    -0.287510854802E+02   -0.15735E+00   -0.15730E+00 20664   0.870E+00
DAV:   5    -0.287528126650E+02   -0.17272E-02   -0.17272E-02 20672   0.866E-01    0.129E+01
RMM:   6    -0.275420642982E+02    0.12107E+01   -0.31429E+00 16505   0.110E+01    0.593E+00
RMM:   7    -0.274677224414E+02    0.74342E-01   -0.46862E-01 18656   0.584E+00    0.341E+00
RMM:   8    -0.274398123084E+02    0.27910E-01   -0.19926E-01 19725   0.332E+00    0.169E+00
RMM:   9    -0.274497434498E+02   -0.99311E-02   -0.41655E-02 21386   0.167E+00    0.637E-01
RMM:  10    -0.274507493597E+02   -0.10059E-02   -0.11506E-02 22817   0.799E-01    0.151E-01
RMM:  11    -0.274513921958E+02   -0.64284E-03   -0.26684E-03 23536   0.407E-01    0.795E-02
RMM:  12    -0.274516828945E+02   -0.29070E-03   -0.12897E-03 24973   0.242E-01    0.416E-02
RMM:  13    -0.274517665776E+02   -0.83683E-04   -0.45514E-04 24471   0.141E-01    0.142E-02
RMM:  14    -0.274518037614E+02   -0.37184E-04   -0.23033E-04 23736   0.961E-02    0.760E-03
RMM:  15    -0.274518174566E+02   -0.13695E-04   -0.10245E-04 21355   0.608E-02    0.423E-03
RMM:  16    -0.274518237469E+02   -0.62903E-05   -0.45435E-05 18700   0.419E-02
   1 F= -.27451824E+02 E0= -.27451824E+02  d E =0.000000E+00  mag=    -0.0000
