 running on   12 total cores
 distrk:  each k-point on   12 cores,    1 groups
 distr:  one band on    6 cores,    2 groups
 using from now: INCAR     
 vasp.6.1.2 22Jul20 (build Mar 20 2021 11:25:07) complex                        
  
 POSCAR found type information on POSCAR LiP O 
 POSCAR found :  3 types and      26 ions
 scaLAPACK will be used
 LDA part: xc-table for Pade appr. of Perdew
 generate k-points for:    7    5    4
 POSCAR, INCAR and KPOINTS ok, starting setup
 FFT: planning ...
 WAVECAR not read
 entering main loop
       N       E                     dE             d eps       ncg     rms          rms(c)
DAV:   1     0.113440531598E+04    0.11344E+04   -0.63025E+04 24432   0.154E+03
DAV:   2    -0.650448517623E+02   -0.11995E+04   -0.11289E+04 29104   0.403E+02
DAV:   3    -0.173467721688E+03   -0.10842E+03   -0.10777E+03 31428   0.124E+02
DAV:   4    -0.183550235040E+03   -0.10083E+02   -0.10040E+02 46584   0.297E+01
DAV:   5    -0.184963535719E+03   -0.14133E+01   -0.14129E+01 33376   0.652E+00    0.569E+01
DAV:   6    -0.163425608801E+03    0.21538E+02   -0.88585E+01 30414   0.325E+01    0.301E+01
DAV:   7    -0.165388833317E+03   -0.19632E+01   -0.78767E+00 32392   0.925E+00    0.985E+00
DAV:   8    -0.165674395348E+03   -0.28556E+00   -0.89377E-01 32736   0.376E+00    0.489E+00
DAV:   9    -0.165802839588E+03   -0.12844E+00   -0.16224E-01 33224   0.173E+00    0.214E+00
DAV:  10    -0.165826533901E+03   -0.23694E-01   -0.56357E-02 29968   0.117E+00    0.636E-01
DAV:  11    -0.165837019176E+03   -0.10485E-01   -0.12382E-02 30648   0.479E-01    0.339E-01
DAV:  12    -0.165839672876E+03   -0.26537E-02   -0.19628E-03 30056   0.205E-01    0.167E-01
DAV:  13    -0.165840636838E+03   -0.96396E-03   -0.91832E-04 29080   0.125E-01    0.485E-02
DAV:  14    -0.165840778989E+03   -0.14215E-03   -0.15797E-04 35680   0.573E-02    0.280E-02
DAV:  15    -0.165840838557E+03   -0.59569E-04   -0.51637E-05 25472   0.312E-02    0.177E-02
DAV:  16    -0.165840848868E+03   -0.10311E-04   -0.80956E-06 20200   0.139E-02    0.103E-02
DAV:  17    -0.165840852336E+03   -0.34680E-05   -0.55682E-06 17440   0.942E-03
   1 F= -.16584085E+03 E0= -.16584085E+03  d E =0.000000E+00  mag=    -0.0009
