    8    8    1    2
  0.1386361E+02  0.4153222E-09  0.4153222E-09  0.7424470E-09  0.5000000E-15
  1.000000000000000E-004
  CAR 
 unknown system                          
     28     36     24
 
  0.0000000E+00  0.0000000E+00  0.0000000E+00  0.3086420E-02
    1      -42.516953    -42.516532   1.000000   1.000000
    2      -42.485509    -42.485086   1.000000   1.000000
    3      -42.480822    -42.480399   1.000000   1.000000
    4      -42.450269    -42.449843   1.000000   1.000000
    5      -42.149584    -42.149009   1.000000   1.000000
    6      -42.149334    -42.148759   1.000000   1.000000
    7       -6.521800     -6.521934   1.000000   1.000000
    8       -6.110078     -6.110163   1.000000   1.000000
    9       -0.544661     -0.544710   1.000000   1.000000
   10        2.307185      2.307105   1.000000   1.000000
   11        2.477095      2.476986   1.000000   1.000000
   12        2.477114      2.477004   1.000000   1.000000
   13        2.915165      2.915099   1.000000   1.000000
   14        2.915167      2.915100   1.000000   1.000000
   15        5.498747      5.498679   0.000000   0.000000
   16        6.860047      6.859964   0.000000   0.000000
   17        6.860051      6.859977   0.000000   0.000000
   18        6.895465      6.895155   0.000000   0.000000
   19        7.219137      7.219051   0.000000   0.000000
   20        7.219165      7.219092   0.000000   0.000000
   21        7.538753      7.538408   0.000000   0.000000
   22        8.736936      8.736709   0.000000   0.000000
   23        8.736958      8.736720   0.000000   0.000000
   24        9.010768      9.010736   0.000000   0.000000
 
  0.1111111E+00 -0.3161210E-17  0.0000000E+00  0.1851852E-01
    1      -42.515724    -42.515303   1.000000   1.000000
    2      -42.484551    -42.484128   1.000000   1.000000
    3      -42.481599    -42.481175   1.000000   1.000000
    4      -42.451121    -42.450696   1.000000   1.000000
    5      -42.149717    -42.149142   1.000000   1.000000
    6      -42.149525    -42.148950   1.000000   1.000000
    7       -6.470041     -6.470176   1.000000   1.000000
    8       -6.073910     -6.074033   1.000000   1.000000
    9       -0.452848     -0.452898   1.000000   1.000000
   10        1.970342      1.970245   1.000000   1.000000
   11        2.205990      2.205892   1.000000   1.000000
   12        2.289757      2.289676   1.000000   1.000000
   13        2.476178      2.476092   1.000000   1.000000
   14        2.822633      2.822558   1.000000   1.000000
   15        5.620375      5.620294   0.000000   0.000000
   16        6.764081      6.763902   0.000000   0.000000
   17        7.114707      7.114551   0.000000   0.000000
   18        7.237238      7.237159   0.000000   0.000000
   19        7.696996      7.696899   0.000000   0.000000
   20        7.833133      7.832991   0.000000   0.000000
   21        7.839359      7.834486   0.000000   0.000000
   22        8.102165      8.101880   0.000000   0.000000
   23        8.302377      8.302186   0.000000   0.000000
   24        8.908811      8.906743   0.000000   0.000000
 
  0.2222222E+00  0.1449754E-16  0.0000000E+00  0.1851852E-01
    1      -42.512342    -42.511921   1.000000   1.000000
    2      -42.483721    -42.483298   1.000000   1.000000
    3      -42.481785    -42.481362   1.000000   1.000000
    4      -42.453648    -42.453222   1.000000   1.000000
    5      -42.150136    -42.149561   1.000000   1.000000
    6      -42.149842    -42.149266   1.000000   1.000000
    7       -6.327301     -6.327440   1.000000   1.000000
    8       -5.980649     -5.980799   1.000000   1.000000
    9       -0.180945     -0.181001   1.000000   1.000000
   10        1.016011      1.015923   1.000000   1.000000
   11        1.625568      1.625465   1.000000   1.000000
   12        1.731984      1.731898   1.000000   1.000000
   13        2.203722      2.203636   1.000000   1.000000
   14        2.531377      2.531302   1.000000   1.000000
   15        5.690480      5.690380   0.000000   0.000000
   16        6.473033      6.465845   0.000000   0.000000
   17        7.039202      7.039022   0.000000   0.000000
   18        7.282640      7.282480   0.000000   0.000000
   19        7.636759      7.636597   0.000000   0.000000
   20        8.339984      8.339902   0.000000   0.000000
   21        8.806068      8.805937   0.000000   0.000000
   22        8.971429      8.970173   0.000000   0.000000
   23        9.025729      9.025529   0.000000   0.000000
   24        9.487418      9.487149   0.000000   0.000000
 
  0.3333333E+00  0.4131636E-17  0.0000000E+00  0.1851852E-01
    1      -42.507730    -42.507309   1.000000   1.000000
    2      -42.486995    -42.486572   1.000000   1.000000
    3      -42.477838    -42.477415   1.000000   1.000000
    4      -42.457406    -42.456981   1.000000   1.000000
    5      -42.150667    -42.150091   1.000000   1.000000
    6      -42.150268    -42.149693   1.000000   1.000000
    7       -6.135076     -6.135220   1.000000   1.000000
    8       -5.877160     -5.877317   1.000000   1.000000
    9        0.185119      0.185040   1.000000   1.000000
   10        0.255058      0.254994   1.000000   1.000000
   11        0.856543      0.856433   1.000000   1.000000
   12        1.341128      1.341045   1.000000   1.000000
   13        1.955421      1.955335   1.000000   1.000000
   14        2.227992      2.227919   1.000000   1.000000
   15        5.479108      5.478807   0.000000   0.000000
   16        5.756222      5.756113   0.000000   0.000000
   17        7.136521      7.136371   0.000000   0.000000
   18        7.187089      7.186914   0.000000   0.000000
   19        7.676923      7.676740   0.000000   0.000000
   20        8.917291      8.917075   0.000000   0.000000
   21        9.791496      9.790569   0.000000   0.000000
   22        9.957549      9.957468   0.000000   0.000000
   23       10.155260     10.155045   0.000000   0.000000
   24       11.074265     11.079963   0.000000   0.000000
 
  0.4444444E+00  0.2899507E-16  0.0000000E+00  0.1851852E-01
    1      -42.503517    -42.503096   1.000000   1.000000
    2      -42.490311    -42.489889   1.000000   1.000000
    3      -42.474161    -42.473737   1.000000   1.000000
    4      -42.461045    -42.460620   1.000000   1.000000
    5      -42.151026    -42.150450   1.000000   1.000000
    6      -42.150571    -42.149996   1.000000   1.000000
    7       -5.973173     -5.973325   1.000000   1.000000
    8       -5.826620     -5.826777   1.000000   1.000000
    9       -0.285836     -0.285910   1.000000   1.000000
   10        0.411881      0.411770   1.000000   1.000000
   11        0.797018      0.796939   1.000000   1.000000
   12        1.130365      1.130285   1.000000   1.000000
   13        1.501124      1.501047   1.000000   1.000000
   14        2.051407      2.051335   1.000000   1.000000
   15        5.004208      5.004117   0.000000   0.000000
   16        5.814167      5.814055   0.000000   0.000000
   17        6.877691      6.877544   0.000000   0.000000
   18        7.273279      7.273108   0.000000   0.000000
   19        8.035610      8.035393   0.000000   0.000000
   20        8.789672      8.789545   0.000000   0.000000
   21        9.510687      9.510548   0.000000   0.000000
   22       11.207999     11.207663   0.000000   0.000000
   23       11.927630     11.927484   0.000000   0.000000
   24       11.941152     11.939907   0.000000   0.000000
 
  0.1111111E+00  0.1111111E+00  0.0000000E+00  0.1851852E-01
    1      -42.513425    -42.513004   1.000000   1.000000
    2      -42.483034    -42.482611   1.000000   1.000000
    3      -42.482696    -42.482273   1.000000   1.000000
    4      -42.452858    -42.452432   1.000000   1.000000
    5      -42.150046    -42.149470   1.000000   1.000000
    6      -42.149744    -42.149169   1.000000   1.000000
    7       -6.372594     -6.372732   1.000000   1.000000
    8       -6.008911     -6.009054   1.000000   1.000000
    9       -0.270883     -0.270937   1.000000   1.000000
   10        1.424084      1.423975   1.000000   1.000000
   11        1.528759      1.528689   1.000000   1.000000
   12        2.073507      2.073399   1.000000   1.000000
   13        2.241476      2.241392   1.000000   1.000000
   14        2.542529      2.542461   1.000000   1.000000
   15        5.789830      5.789736   0.000000   0.000000
   16        6.733047      6.731839   0.000000   0.000000
   17        7.137929      7.137735   0.000000   0.000000
   18        7.154321      7.154169   0.000000   0.000000
   19        7.853466      7.853362   0.000000   0.000000
   20        7.887411      7.887259   0.000000   0.000000
   21        8.138990      8.138875   0.000000   0.000000
   22        8.898153      8.897969   0.000000   0.000000
   23        9.053246      9.050650   0.000000   0.000000
   24        9.154381      9.154129   0.000000   0.000000
 
  0.2222222E+00  0.1111111E+00  0.0000000E+00  0.3703704E-01
    1      -42.509410    -42.508989   1.000000   1.000000
    2      -42.485787    -42.485365   1.000000   1.000000
    3      -42.479282    -42.478859   1.000000   1.000000
    4      -42.456048    -42.455623   1.000000   1.000000
    5      -42.150528    -42.149952   1.000000   1.000000
    6      -42.150127    -42.149551   1.000000   1.000000
    7       -6.203460     -6.203603   1.000000   1.000000
    8       -5.908923     -5.909079   1.000000   1.000000
    9        0.084200      0.084139   1.000000   1.000000
   10        0.583700      0.583614   1.000000   1.000000
   11        0.953091      0.952995   1.000000   1.000000
   12        1.457399      1.457299   1.000000   1.000000
   13        2.094911      2.094823   1.000000   1.000000
   14        2.198721      2.198654   1.000000   1.000000
   15        5.548269      5.548336   0.000000   0.000000
   16        6.042392      6.042287   0.000000   0.000000
   17        7.470534      7.470347   0.000000   0.000000
   18        7.531032      7.530858   0.000000   0.000000
   19        7.548779      7.548642   0.000000   0.000000
   20        8.745146      8.745034   0.000000   0.000000
   21        9.092828      9.092654   0.000000   0.000000
   22        9.136327      9.135733   0.000000   0.000000
   23       10.061537     10.058031   0.000000   0.000000
   24       10.848720     10.842202   0.000000   0.000000
 
  0.3333333E+00  0.1111111E+00  0.0000000E+00  0.3703704E-01
    1      -42.504683    -42.504262   1.000000   1.000000
    2      -42.489362    -42.488939   1.000000   1.000000
    3      -42.475170    -42.474747   1.000000   1.000000
    4      -42.460030    -42.459606   1.000000   1.000000
    5      -42.150947    -42.150371   1.000000   1.000000
    6      -42.150497    -42.149921   1.000000   1.000000
    7       -6.020137     -6.020286   1.000000   1.000000
    8       -5.830939     -5.831096   1.000000   1.000000
    9       -0.062131     -0.062207   1.000000   1.000000
   10        0.522179      0.522067   1.000000   1.000000
   11        0.581441      0.581369   1.000000   1.000000
   12        1.019078      1.018993   1.000000   1.000000
   13        1.766527      1.766441   1.000000   1.000000
   14        1.949669      1.949602   1.000000   1.000000
   15        4.764350      4.764325   0.000000   0.000000
   16        6.216371      6.216259   0.000000   0.000000
   17        7.376441      7.376313   0.000000   0.000000
   18        7.648034      7.647857   0.000000   0.000000
   19        7.946522      7.946320   0.000000   0.000000
   20        8.952213      8.952078   0.000000   0.000000
   21        9.633633      9.633505   0.000000   0.000000
   22       10.136855     10.136562   0.000000   0.000000
   23       10.699538     10.714145   0.000000   0.000000
   24       11.154512     11.157575   0.000000   0.000000
 
  0.4444444E+00  0.1111111E+00  0.0000000E+00  0.1851852E-01
    1      -42.501976    -42.501555   1.000000   1.000000
    2      -42.491603    -42.491181   1.000000   1.000000
    3      -42.472734    -42.472310   1.000000   1.000000
    4      -42.462406    -42.461981   1.000000   1.000000
    5      -42.151103    -42.150527   1.000000   1.000000
    6      -42.150635    -42.150059   1.000000   1.000000
    7       -5.924416     -5.924570   1.000000   1.000000
    8       -5.815825     -5.815982   1.000000   1.000000
    9       -0.297769     -0.297841   1.000000   1.000000
   10        0.345899      0.345784   1.000000   1.000000
   11        0.878765      0.878684   1.000000   1.000000
   12        1.024434      1.024343   1.000000   1.000000
   13        1.377911      1.377842   1.000000   1.000000
   14        1.860188      1.860121   1.000000   1.000000
   15        4.502507      4.502493   0.000000   0.000000
   16        6.282305      6.282190   0.000000   0.000000
   17        7.336082      7.335978   0.000000   0.000000
   18        7.708089      7.707913   0.000000   0.000000
   19        8.166423      8.166162   0.000000   0.000000
   20        8.811546      8.811423   0.000000   0.000000
   21        9.458727      9.458583   0.000000   0.000000
   22       10.810975     10.809365   0.000000   0.000000
   23       11.237617     11.241621   0.000000   0.000000
   24       11.711540     11.713504   0.000000   0.000000
 
  0.2222222E+00  0.2222222E+00  0.0000000E+00  0.1851852E-01
    1      -42.505157    -42.504736   1.000000   1.000000
    2      -42.489035    -42.488613   1.000000   1.000000
    3      -42.475540    -42.475116   1.000000   1.000000
    4      -42.459676    -42.459251   1.000000   1.000000
    5      -42.150932    -42.150356   1.000000   1.000000
    6      -42.150491    -42.149915   1.000000   1.000000
    7       -6.038964     -6.039112   1.000000   1.000000
    8       -5.832120     -5.832278   1.000000   1.000000
    9        0.263095      0.263037   1.000000   1.000000
   10        0.350749      0.350631   1.000000   1.000000
   11        0.504345      0.504275   1.000000   1.000000
   12        0.964572      0.964466   1.000000   1.000000
   13        1.807186      1.807128   1.000000   1.000000
   14        1.905905      1.905814   1.000000   1.000000
   15        4.537702      4.537683   0.000000   0.000000
   16        6.767476      6.767364   0.000000   0.000000
   17        7.749033      7.748905   0.000000   0.000000
   18        7.975420      7.975218   0.000000   0.000000
   19        8.274535      8.274336   0.000000   0.000000
   20        8.943679      8.943560   0.000000   0.000000
   21        9.351594      9.351406   0.000000   0.000000
   22        9.421342      9.421202   0.000000   0.000000
   23       10.276385     10.277210   0.000000   0.000000
   24       10.602013     10.603999   0.000000   0.000000
 
  0.3333333E+00  0.2222222E+00  0.0000000E+00  0.3703704E-01
    1      -42.500768    -42.500346   1.000000   1.000000
    2      -42.492663    -42.492241   1.000000   1.000000
    3      -42.471578    -42.471154   1.000000   1.000000
    4      -42.463525    -42.463101   1.000000   1.000000
    5      -42.151176    -42.150600   1.000000   1.000000
    6      -42.150667    -42.150091   1.000000   1.000000
    7       -5.899758     -5.899912   1.000000   1.000000
    8       -5.800861     -5.801019   1.000000   1.000000
    9       -0.100150     -0.100216   1.000000   1.000000
   10        0.273809      0.273693   1.000000   1.000000
   11        0.536168      0.536071   1.000000   1.000000
   12        1.007686      1.007602   1.000000   1.000000
   13        1.590731      1.590676   1.000000   1.000000
   14        1.591772      1.591684   1.000000   1.000000
   15        3.913127      3.913119   0.000000   0.000000
   16        7.307695      7.307578   0.000000   0.000000
   17        8.074397      8.074269   0.000000   0.000000
   18        8.325196      8.324993   0.000000   0.000000
   19        8.717834      8.717655   0.000000   0.000000
   20        9.050707      9.050576   0.000000   0.000000
   21        9.481417      9.481374   0.000000   0.000000
   22        9.631043      9.630729   0.000000   0.000000
   23       10.077013     10.077083   0.000000   0.000000
   24       10.695089     10.699527   0.000000   0.000000
 
  0.3333333E+00  0.3333333E+00  0.0000000E+00  0.6172840E-02
    1      -42.496611    -42.496190   1.000000   1.000000
    2      -42.496604    -42.496182   1.000000   1.000000
    3      -42.467508    -42.467084   1.000000   1.000000
    4      -42.467501    -42.467077   1.000000   1.000000
    5      -42.151224    -42.150648   1.000000   1.000000
    6      -42.150771    -42.150195   1.000000   1.000000
    7       -5.819331     -5.819488   1.000000   1.000000
    8       -5.819326     -5.819484   1.000000   1.000000
    9        0.007222      0.007198   1.000000   1.000000
   10        0.205983      0.205855   1.000000   1.000000
   11        0.205989      0.205861   1.000000   1.000000
   12        1.381284      1.381192   1.000000   1.000000
   13        1.381300      1.381207   1.000000   1.000000
   14        1.437598      1.437549   1.000000   1.000000
   15        3.525084      3.525088   0.000000   0.000000
   16        8.553906      8.553790   0.000000   0.000000
   17        8.568590      8.568313   0.000000   0.000000
   18        8.569191      8.569446   0.000000   0.000000
   19        8.844525      8.844393   0.000000   0.000000
   20        8.844552      8.844412   0.000000   0.000000
   21        9.448405      9.449039   0.000000   0.000000
   22        9.881489      9.881187   0.000000   0.000000
   23        9.890567      9.892379   0.000000   0.000000
   24       10.128422     10.128256   0.000000   0.000000
 
  0.0000000E+00  0.0000000E+00  0.2500000E+00  0.6172840E-02
    1      -42.514328    -42.513907   1.000000   1.000000
    2      -42.496174    -42.495752   1.000000   1.000000
    3      -42.470303    -42.469879   1.000000   1.000000
    4      -42.452676    -42.452251   1.000000   1.000000
    5      -42.149526    -42.148951   1.000000   1.000000
    6      -42.149358    -42.148783   1.000000   1.000000
    7       -6.469005     -6.469141   1.000000   1.000000
    8       -6.179437     -6.179541   1.000000   1.000000
    9       -0.252264     -0.252318   1.000000   1.000000
   10        1.625653      1.625579   1.000000   1.000000
   11        2.539697      2.539593   1.000000   1.000000
   12        2.539714      2.539609   1.000000   1.000000
   13        2.850775      2.850699   1.000000   1.000000
   14        2.850778      2.850704   1.000000   1.000000
   15        6.249935      6.249837   0.000000   0.000000
   16        6.760031      6.759940   0.000000   0.000000
   17        6.760039      6.759959   0.000000   0.000000
   18        7.039188      7.039106   0.000000   0.000000
   19        7.039212      7.039143   0.000000   0.000000
   20        7.126150      7.125843   0.000000   0.000000
   21        7.349228      7.348917   0.000000   0.000000
   22        8.936501      8.935915   0.000000   0.000000
   23        9.331127      9.330894   0.000000   0.000000
   24        9.331153      9.330902   0.000000   0.000000
 
  0.1111111E+00 -0.3161210E-17  0.2500000E+00  0.3703704E-01
    1      -42.513236    -42.512815   1.000000   1.000000
    2      -42.495544    -42.495121   1.000000   1.000000
    3      -42.470718    -42.470294   1.000000   1.000000
    4      -42.453535    -42.453110   1.000000   1.000000
    5      -42.149710    -42.149135   1.000000   1.000000
    6      -42.149552    -42.148976   1.000000   1.000000
    7       -6.418981     -6.419118   1.000000   1.000000
    8       -6.140188     -6.140310   1.000000   1.000000
    9       -0.171645     -0.171700   1.000000   1.000000
   10        1.604692      1.604619   1.000000   1.000000
   11        2.066703      2.066601   1.000000   1.000000
   12        2.285627      2.285533   1.000000   1.000000
   13        2.448731      2.448642   1.000000   1.000000
   14        2.720139      2.720061   1.000000   1.000000
   15        6.124592      6.124519   0.000000   0.000000
   16        6.796663      6.796485   0.000000   0.000000
   17        7.089977      7.089877   0.000000   0.000000
   18        7.125887      7.125799   0.000000   0.000000
   19        7.505384      7.505293   0.000000   0.000000
   20        7.566079      7.565865   0.000000   0.000000
   21        7.885620      7.885433   0.000000   0.000000
   22        8.618676      8.618523   0.000000   0.000000
   23        8.946609      8.946449   0.000000   0.000000
   24        9.258771      9.258467   0.000000   0.000000
 
  0.2222222E+00  0.1449754E-16  0.2500000E+00  0.3703704E-01
    1      -42.510096    -42.509674   1.000000   1.000000
    2      -42.494056    -42.493634   1.000000   1.000000
    3      -42.471543    -42.471119   1.000000   1.000000
    4      -42.455875    -42.455450   1.000000   1.000000
    5      -42.150122    -42.149546   1.000000   1.000000
    6      -42.149902    -42.149326   1.000000   1.000000
    7       -6.281781     -6.281921   1.000000   1.000000
    8       -6.037484     -6.037628   1.000000   1.000000
    9        0.050250      0.050191   1.000000   1.000000
   10        1.055582      1.055501   1.000000   1.000000
   11        1.428767      1.428666   1.000000   1.000000
   12        1.827536      1.827451   1.000000   1.000000
   13        1.924807      1.924712   1.000000   1.000000
   14        2.385811      2.385734   1.000000   1.000000
   15        5.742148      5.742066   0.000000   0.000000
   16        6.415603      6.415427   0.000000   0.000000
   17        7.323386      7.323224   0.000000   0.000000
   18        7.580953      7.580829   0.000000   0.000000
   19        7.783802      7.783662   0.000000   0.000000
   20        8.577687      8.577563   0.000000   0.000000
   21        8.709943      8.709738   0.000000   0.000000
   22        8.767298      8.767193   0.000000   0.000000
   23        9.377352      9.377137   0.000000   0.000000
   24        9.831778      9.831668   0.000000   0.000000
 
  0.3333333E+00  0.4131636E-17  0.2500000E+00  0.3703704E-01
    1      -42.505840    -42.505419   1.000000   1.000000
    2      -42.492948    -42.492526   1.000000   1.000000
    3      -42.471941    -42.471517   1.000000   1.000000
    4      -42.459270    -42.458845   1.000000   1.000000
    5      -42.150615    -42.150040   1.000000   1.000000
    6      -42.150336    -42.149760   1.000000   1.000000
    7       -6.099950     -6.100096   1.000000   1.000000
    8       -5.917852     -5.918003   1.000000   1.000000
    9        0.121117      0.121044   1.000000   1.000000
   10        0.436791      0.436719   1.000000   1.000000
   11        0.853329      0.853225   1.000000   1.000000
   12        1.443958      1.443876   1.000000   1.000000
   13        1.827314      1.827223   1.000000   1.000000
   14        2.060609      2.060533   1.000000   1.000000
   15        5.212823      5.212774   0.000000   0.000000
   16        5.826887      5.826788   0.000000   0.000000
   17        7.305983      7.305817   0.000000   0.000000
   18        7.561519      7.561368   0.000000   0.000000
   19        7.902430      7.902297   0.000000   0.000000
   20        8.692094      8.691911   0.000000   0.000000
   21        9.693075      9.692898   0.000000   0.000000
   22       10.124619     10.124603   0.000000   0.000000
   23       10.332936     10.332563   0.000000   0.000000
   24       11.204852     11.258226   0.000000   0.000000
 
  0.4444444E+00  0.2899507E-16  0.2500000E+00  0.3703704E-01
    1      -42.502139    -42.501718   1.000000   1.000000
    2      -42.493272    -42.492850   1.000000   1.000000
    3      -42.471219    -42.470795   1.000000   1.000000
    4      -42.462405    -42.461980   1.000000   1.000000
    5      -42.150955    -42.150379   1.000000   1.000000
    6      -42.150644    -42.150068   1.000000   1.000000
    7       -5.952096     -5.952248   1.000000   1.000000
    8       -5.848460     -5.848616   1.000000   1.000000
    9       -0.270009     -0.270083   1.000000   1.000000
   10        0.164125      0.164033   1.000000   1.000000
   11        1.060380      1.060289   1.000000   1.000000
   12        1.235991      1.235911   1.000000   1.000000
   13        1.617940      1.617851   1.000000   1.000000
   14        1.875309      1.875235   1.000000   1.000000
   15        4.812188      4.812159   0.000000   0.000000
   16        5.554403      5.554308   0.000000   0.000000
   17        7.340462      7.340314   0.000000   0.000000
   18        7.358134      7.357971   0.000000   0.000000
   19        7.906589      7.906465   0.000000   0.000000
   20        8.623143      8.622941   0.000000   0.000000
   21       10.100029     10.099834   0.000000   0.000000
   22       10.885679     10.885114   0.000000   0.000000
   23       11.052058     11.051879   0.000000   0.000000
   24       12.061858     12.063870   0.000000   0.000000
 
  0.1111111E+00  0.1111111E+00  0.2500000E+00  0.3703704E-01
    1      -42.511086    -42.510665   1.000000   1.000000
    2      -42.494480    -42.494058   1.000000   1.000000
    3      -42.471314    -42.470890   1.000000   1.000000
    4      -42.455126    -42.454701   1.000000   1.000000
    5      -42.149993    -42.149418   1.000000   1.000000
    6      -42.149794    -42.149218   1.000000   1.000000
    7       -6.325143     -6.325282   1.000000   1.000000
    8       -6.068957     -6.069100   1.000000   1.000000
    9       -0.018452     -0.018510   1.000000   1.000000
   10        1.376888      1.376819   1.000000   1.000000
   11        1.506627      1.506517   1.000000   1.000000
   12        1.891957      1.891871   1.000000   1.000000
   13        2.084788      2.084683   1.000000   1.000000
   14        2.399419      2.399350   1.000000   1.000000
   15        6.063660      6.063581   0.000000   0.000000
   16        6.749250      6.749200   0.000000   0.000000
   17        7.112622      7.112427   0.000000   0.000000
   18        7.169169      7.169008   0.000000   0.000000
   19        7.955686      7.955554   0.000000   0.000000
   20        8.049567      8.049470   0.000000   0.000000
   21        8.602283      8.602128   0.000000   0.000000
   22        8.760199      8.760003   0.000000   0.000000
   23        9.244547      9.244333   0.000000   0.000000
   24        9.468105      9.467933   0.000000   0.000000
 
  0.2222222E+00  0.1111111E+00  0.2500000E+00  0.7407407E-01
    1      -42.507360    -42.506938   1.000000   1.000000
    2      -42.493196    -42.492774   1.000000   1.000000
    3      -42.471932    -42.471508   1.000000   1.000000
    4      -42.458039    -42.457614   1.000000   1.000000
    5      -42.150457    -42.149882   1.000000   1.000000
    6      -42.150201    -42.149625   1.000000   1.000000
    7       -6.163963     -6.164107   1.000000   1.000000
    8       -5.956173     -5.956326   1.000000   1.000000
    9        0.211038      0.210974   1.000000   1.000000
   10        0.659438      0.659363   1.000000   1.000000
   11        0.965191      0.965083   1.000000   1.000000
   12        1.468153      1.468066   1.000000   1.000000
   13        1.873194      1.873102   1.000000   1.000000
   14        2.015549      2.015479   1.000000   1.000000
   15        5.654666      5.654617   0.000000   0.000000
   16        6.093506      6.093410   0.000000   0.000000
   17        7.306205      7.306029   0.000000   0.000000
   18        7.520246      7.520068   0.000000   0.000000
   19        8.398989      8.398830   0.000000   0.000000
   20        8.580978      8.580847   0.000000   0.000000
   21        8.945486      8.945355   0.000000   0.000000
   22        9.191850      9.192169   0.000000   0.000000
   23        9.953986      9.954344   0.000000   0.000000
   24       10.931602     10.930264   0.000000   0.000000
 
  0.3333333E+00  0.1111111E+00  0.2500000E+00  0.7407407E-01
    1      -42.503160    -42.502738   1.000000   1.000000
    2      -42.493038    -42.492616   1.000000   1.000000
    3      -42.471539    -42.471115   1.000000   1.000000
    4      -42.461550    -42.461126   1.000000   1.000000
    5      -42.150887    -42.150311   1.000000   1.000000
    6      -42.150577    -42.150001   1.000000   1.000000
    7       -5.993580     -5.993730   1.000000   1.000000
    8       -5.859848     -5.860004   1.000000   1.000000
    9       -0.060821     -0.060899   1.000000   1.000000
   10        0.294249      0.294159   1.000000   1.000000
   11        0.918860      0.918769   1.000000   1.000000
   12        1.098622      1.098542   1.000000   1.000000
   13        1.731720      1.731642   1.000000   1.000000
   14        1.763687      1.763602   1.000000   1.000000
   15        4.925493      4.925449   0.000000   0.000000
   16        5.940013      5.939922   0.000000   0.000000
   17        7.255001      7.254836   0.000000   0.000000
   18        7.705001      7.704833   0.000000   0.000000
   19        8.234349      8.234211   0.000000   0.000000
   20        8.935672      8.935487   0.000000   0.000000
   21        9.274042      9.273894   0.000000   0.000000
   22       10.233978     10.233826   0.000000   0.000000
   23       10.843160     10.843133   0.000000   0.000000
   24       11.069559     11.068181   0.000000   0.000000
 
  0.4444444E+00  0.1111111E+00  0.2500000E+00  0.3703704E-01
    1      -42.500820    -42.500399   1.000000   1.000000
    2      -42.493715    -42.493293   1.000000   1.000000
    3      -42.470651    -42.470227   1.000000   1.000000
    4      -42.463570    -42.463146   1.000000   1.000000
    5      -42.151048    -42.150472   1.000000   1.000000
    6      -42.150715    -42.150139   1.000000   1.000000
    7       -5.908419     -5.908573   1.000000   1.000000
    8       -5.831602     -5.831758   1.000000   1.000000
    9       -0.276554     -0.276629   1.000000   1.000000
   10        0.135251      0.135153   1.000000   1.000000
   11        0.961041      0.960966   1.000000   1.000000