       N       E                     dE             d eps       ncg     rms          rms(c)
DAV:   1     0.627113153421E+03    0.62711E+03   -0.36809E+04  9984   0.153E+03
DAV:   2    -0.416612906569E+02   -0.66877E+03   -0.63464E+03 11652   0.396E+02
DAV:   3    -0.102806545668E+03   -0.61145E+02   -0.60826E+02 13784   0.114E+02
DAV:   4    -0.108450464861E+03   -0.56439E+01   -0.56187E+01 17936   0.290E+01
DAV:   5    -0.109005675070E+03   -0.55521E+00   -0.55509E+00 14200   0.582E+00    0.365E+01
RMM:   6    -0.991457177512E+02    0.98600E+01   -0.42825E+01 10978   0.242E+01    0.147E+01
RMM:   7    -0.100257311676E+03   -0.11116E+01   -0.46346E+00 14413   0.854E+00    0.773E+00
RMM:   8    -0.100474776572E+03   -0.21746E+00   -0.10916E+00 16341   0.449E+00    0.386E+00
RMM:   9    -0.100546878227E+03   -0.72102E-01   -0.39805E-01 16340   0.323E+00    0.968E-01
RMM:  10    -0.100582109859E+03   -0.35232E-01   -0.28011E-01 18632   0.190E+00    0.375E-01
RMM:  11    -0.100599554102E+03   -0.17444E-01   -0.13634E-01 19168   0.120E+00    0.307E-01
RMM:  12    -0.100606769068E+03   -0.72150E-02   -0.52040E-02 19363   0.749E-01    0.203E-01
RMM:  13    -0.100609346365E+03   -0.25773E-02   -0.19585E-02 18901   0.513E-01    0.972E-02
RMM:  14    -0.100610655160E+03   -0.13088E-02   -0.10794E-02 19060   0.368E-01    0.321E-02
RMM:  15    -0.100611180325E+03   -0.52516E-03   -0.49072E-03 18734   0.232E-01    0.335E-02
RMM:  16    -0.100611403671E+03   -0.22335E-03   -0.22267E-03 18372   0.154E-01    0.239E-02
RMM:  17    -0.100611484244E+03   -0.80573E-04   -0.87402E-04 18069   0.108E-01    0.116E-02
RMM:  18    -0.100611535734E+03   -0.51490E-04   -0.50902E-04 17784   0.744E-02    0.915E-03
RMM:  19    -0.100611556314E+03   -0.20580E-04   -0.19656E-04 16912   0.511E-02    0.996E-03
RMM:  20    -0.100611567630E+03   -0.11315E-04   -0.82532E-05 14920   0.385E-02    0.236E-02
RMM:  21    -0.100611565940E+03    0.16902E-05   -0.23461E-05 12384   0.317E-02
   1 F= -.10061157E+03 E0= -.10061157E+03  d E =0.000000E+00  mag=     0.0000
