       N       E                     dE             d eps       ncg     rms          rms(c)
DAV:   1     0.111926967490E+04    0.11193E+04   -0.62184E+04 24432   0.153E+03
DAV:   2    -0.637385878606E+02   -0.11830E+04   -0.11121E+04 29216   0.396E+02
DAV:   3    -0.174558408900E+03   -0.11082E+03   -0.11013E+03 31600   0.124E+02
DAV:   4    -0.184304779628E+03   -0.97464E+01   -0.97052E+01 46168   0.296E+01
DAV:   5    -0.185832418883E+03   -0.15276E+01   -0.15272E+01 34120   0.677E+00    0.518E+01
DAV:   6    -0.165664622933E+03    0.20168E+02   -0.89168E+01 30576   0.320E+01    0.260E+01
DAV:   7    -0.167685929465E+03   -0.20213E+01   -0.74127E+00 32280   0.899E+00    0.912E+00
DAV:   8    -0.167969234780E+03   -0.28331E+00   -0.79839E-01 32714   0.355E+00    0.454E+00
DAV:   9    -0.168104831302E+03   -0.13560E+00   -0.14266E-01 33376   0.162E+00    0.177E+00
DAV:  10    -0.168129582099E+03   -0.24751E-01   -0.50745E-02 30136   0.110E+00    0.536E-01
DAV:  11    -0.168140384644E+03   -0.10803E-01   -0.11875E-02 30536   0.452E-01    0.312E-01
DAV:  12    -0.168143027984E+03   -0.26433E-02   -0.19234E-03 31728   0.202E-01    0.159E-01
DAV:  13    -0.168144200499E+03   -0.11725E-02   -0.10723E-03 29024   0.127E-01    0.452E-02
DAV:  14    -0.168144357211E+03   -0.15671E-03   -0.14745E-04 33368   0.607E-02    0.230E-02
DAV:  15    -0.168144414920E+03   -0.57709E-04   -0.62953E-05 25704   0.350E-02    0.139E-02
DAV:  16    -0.168144422069E+03   -0.71487E-05   -0.78400E-06 20800   0.144E-02
   1 F= -.16814442E+03 E0= -.16814442E+03  d E =0.000000E+00  mag=    -0.0014
