       N       E                     dE             d eps       ncg     rms          rms(c)
DAV:   1     0.466417278317E+03    0.46642E+03   -0.40746E+04 13440   0.132E+03
DAV:   2    -0.103807471940E+03   -0.57022E+03   -0.54552E+03 17072   0.308E+02
DAV:   3    -0.137907106748E+03   -0.34100E+02   -0.33840E+02 16848   0.797E+01
DAV:   4    -0.138468494277E+03   -0.56139E+00   -0.55927E+00 17336   0.108E+01
DAV:   5    -0.138482671231E+03   -0.14177E-01   -0.14164E-01 16416   0.161E+00    0.513E+01
DAV:   6    -0.117639774531E+03    0.20843E+02   -0.64487E+01 15896   0.314E+01    0.260E+01
DAV:   7    -0.119003930903E+03   -0.13642E+01   -0.10072E+01 16336   0.115E+01    0.810E+00
DAV:   8    -0.118935281106E+03    0.68650E-01   -0.58190E-01 15896   0.341E+00    0.494E+00
DAV:   9    -0.118933721231E+03    0.15599E-02   -0.67667E-02 16528   0.123E+00    0.232E+00
DAV:  10    -0.118932489548E+03    0.12317E-02   -0.27491E-02 15592   0.804E-01    0.486E-01
DAV:  11    -0.118935461960E+03   -0.29724E-02   -0.48632E-03 15488   0.362E-01    0.248E-01
DAV:  12    -0.118936037062E+03   -0.57510E-03   -0.43426E-04 16360   0.118E-01    0.138E-01
DAV:  13    -0.118936372288E+03   -0.33523E-03   -0.30139E-04 15936   0.833E-02    0.557E-02
DAV:  14    -0.118936440502E+03   -0.68214E-04   -0.39613E-05 14160   0.332E-02    0.181E-02
DAV:  15    -0.118936458435E+03   -0.17933E-04   -0.16378E-05 11368   0.194E-02    0.867E-03
DAV:  16    -0.118936462681E+03   -0.42455E-05   -0.45105E-06 11328   0.104E-02
   1 F= -.11893646E+03 E0= -.11893646E+03  d E =0.000000E+00  mag=    -0.0005
