    9    9    1    2
  0.1032551E+02  0.4889254E-09  0.4968038E-09  0.4968037E-09  0.5000000E-15
  1.000000000000000E-004
  CAR 
 unknown system                          
     51    116     40
 
  0.0000000E+00  0.0000000E+00  0.0000000E+00  0.2551020E-02
    1      -43.381404    -43.380677   1.000000   1.000000
    2      -26.417653    -26.417421   1.000000   1.000000
    3      -25.232345    -25.231165   1.000000   1.000000
    4      -25.224118    -25.225617   1.000000   1.000000
    5      -24.555205    -24.553503   1.000000   1.000000
    6      -13.797612    -13.797456   1.000000   1.000000
    7      -12.998625    -13.000682   1.000000   1.000000
    8      -12.938300    -12.934224   1.000000   1.000000
    9      -11.878107    -11.877733   1.000000   1.000000
   10       -8.228486     -8.228459   1.000000   1.000000
   11       -7.838250     -7.837719   1.000000   1.000000
   12       -7.559238     -7.559153   1.000000   1.000000
   13       -7.176593     -7.176560   1.000000   1.000000
   14       -6.455487     -6.453962   1.000000   1.000000
   15       -5.755292     -5.753730   1.000000   1.000000
   16       -5.641021     -5.642045   1.000000   1.000000
   17       -5.603213     -5.602569   1.000000   1.000000
   18       -3.814317     -3.811747   1.000000   1.000000
   19       -3.772651     -3.773135   1.000000   1.000000
   20       -3.638233     -3.637225   1.000000   1.000000
   21       -3.477056     -3.477107   1.000000   1.000000
   22       -0.933085     -0.932996   1.000000   1.000000
   23       -0.829584     -0.828491   1.000000   1.000000
   24       -0.132274     -0.132373   1.000000   1.000000
   25        0.745628      0.747397   1.000000   1.000000
   26        2.573254      2.576342   0.000000   0.000000
   27        2.659818      2.660983   0.000000   0.000000
   28        2.716377      2.716016   0.000000   0.000000
   29        3.011068      3.010771   0.000000   0.000000
   30        9.186941      9.186005   0.000000   0.000000
   31        9.368791      9.370765   0.000000   0.000000
   32       10.204756     10.205367   0.000000   0.000000
   33       11.297563     11.296687   0.000000   0.000000
   34       11.643346     11.644446   0.000000   0.000000
   35       12.817588     12.817536   0.000000   0.000000
   36       13.437557     13.437133   0.000000   0.000000
   37       14.062786     14.063432   0.000000   0.000000
   38       14.353280     14.353427   0.000000   0.000000
   39       14.851695     14.849898   0.000000   0.000000
   40       15.403318     15.406993   0.000000   0.000000
 
  0.1250000E+00  0.9053711E-17  0.5153235E-14  0.5102041E-02
    1      -43.381369    -43.380642   1.000000   1.000000
    2      -26.414728    -26.414496   1.000000   1.000000
    3      -25.233410    -25.232225   1.000000   1.000000
    4      -25.226918    -25.228417   1.000000   1.000000
    5      -24.555431    -24.553734   1.000000   1.000000
    6      -13.878278    -13.878081   1.000000   1.000000
    7      -12.952825    -12.954891   1.000000   1.000000
    8      -12.901845    -12.897820   1.000000   1.000000
    9      -11.877638    -11.877239   1.000000   1.000000
   10       -8.215014     -8.214999   1.000000   1.000000
   11       -7.859979     -7.859443   1.000000   1.000000
   12       -7.429276     -7.429211   1.000000   1.000000
   13       -7.163893     -7.163831   1.000000   1.000000
   14       -6.470418     -6.469002   1.000000   1.000000
   15       -5.903459     -5.901979   1.000000   1.000000
   16       -5.698889     -5.699789   1.000000   1.000000
   17       -5.520223     -5.519516   1.000000   1.000000
   18       -3.814463     -3.811914   1.000000   1.000000
   19       -3.769971     -3.770445   1.000000   1.000000
   20       -3.633187     -3.632177   1.000000   1.000000
   21       -3.473913     -3.473959   1.000000   1.000000
   22       -0.930488     -0.930396   1.000000   1.000000
   23       -0.793601     -0.792533   1.000000   1.000000
   24       -0.137673     -0.137751   1.000000   1.000000
   25        0.696476      0.698220   1.000000   1.000000
   26        2.569476      2.572622   0.000000   0.000000
   27        2.644621      2.645566   0.000000   0.000000
   28        2.723749      2.723568   0.000000   0.000000
   29        3.006182      3.005902   0.000000   0.000000
   30        9.450632      9.452175   0.000000   0.000000
   31        9.471467      9.470525   0.000000   0.000000
   32        9.749291      9.750112   0.000000   0.000000
   33       11.219921     11.219543   0.000000   0.000000
   34       11.581162     11.581993   0.000000   0.000000
   35       12.887758     12.887641   0.000000   0.000000
   36       13.472310     13.472223   0.000000   0.000000
   37       13.603099     13.603747   0.000000   0.000000
   38       14.452103     14.452333   0.000000   0.000000
   39       14.943562     14.948397   0.000000   0.000000
   40       15.589269     15.590866   0.000000   0.000000
 
  0.2500000E+00  0.2913143E-16 -0.4246716E-14  0.5102041E-02
    1      -43.381281    -43.380554   1.000000   1.000000
    2      -26.407675    -26.407441   1.000000   1.000000
    3      -25.235893    -25.235182   1.000000   1.000000
    4      -25.233683    -25.234695   1.000000   1.000000
    5      -24.555644    -24.553963   1.000000   1.000000
    6      -14.061311    -14.061054   1.000000   1.000000
    7      -12.838549    -12.840639   1.000000   1.000000
    8      -12.805280    -12.801310   1.000000   1.000000
    9      -11.885939    -11.885512   1.000000   1.000000
   10       -8.201704     -8.201702   1.000000   1.000000
   11       -7.905173     -7.904630   1.000000   1.000000
   12       -7.261404     -7.261425   1.000000   1.000000
   13       -6.954540     -6.954396   1.000000   1.000000
   14       -6.532960     -6.531912   1.000000   1.000000
   15       -6.119403     -6.117812   1.000000   1.000000
   16       -5.828211     -5.828698   1.000000   1.000000
   17       -5.484268     -5.483711   1.000000   1.000000
   18       -3.814320     -3.811820   1.000000   1.000000
   19       -3.761881     -3.762340   1.000000   1.000000
   20       -3.621279     -3.620260   1.000000   1.000000
   21       -3.466672     -3.466704   1.000000   1.000000
   22       -0.913379     -0.913275   1.000000   1.000000
   23       -0.686600     -0.685614   1.000000   1.000000
   24       -0.146895     -0.146922   1.000000   1.000000
   25        0.580065      0.581775   1.000000   1.000000
   26        2.562295      2.565591   0.000000   0.000000
   27        2.622893      2.623723   0.000000   0.000000
   28        2.726354      2.726183   0.000000   0.000000
   29        2.992669      2.992409   0.000000   0.000000
   30        8.502970      8.503449   0.000000   0.000000
   31       10.036081     10.037584   0.000000   0.000000
   32       10.166740     10.165794   0.000000   0.000000
   33       10.913885     10.914248   0.000000   0.000000
   34       11.813936     11.814369   0.000000   0.000000
   35       12.888747     12.888385   0.000000   0.000000
   36       12.936300     12.936834   0.000000   0.000000
   37       13.635888     13.635660   0.000000   0.000000
   38       14.156967     14.157503   0.000000   0.000000
   39       15.240164     15.281108   0.000000   0.000000
   40       15.444693     15.453057   0.000000   0.000000
 
  0.3750000E+00  0.1827489E-16  0.8824879E-15  0.5102041E-02
    1      -43.381186    -43.380459   1.000000   1.000000
    2      -26.400485    -26.400250   1.000000   1.000000
    3      -25.240522    -25.242021   1.000000   1.000000
    4      -25.238344    -25.237134   1.000000   1.000000
    5      -24.555969    -24.554302   1.000000   1.000000
    6      -14.230151    -14.229860   1.000000   1.000000
    7      -12.718413    -12.720530   1.000000   1.000000
    8      -12.691523    -12.687496   1.000000   1.000000
    9      -11.913367    -11.912994   1.000000   1.000000
   10       -8.194454     -8.194459   1.000000   1.000000
   11       -7.937504     -7.936960   1.000000   1.000000
   12       -7.227328     -7.227350   1.000000   1.000000
   13       -6.651207     -6.650642   1.000000   1.000000
   14       -6.579127     -6.579080   1.000000   1.000000
   15       -6.296190     -6.294419   1.000000   1.000000
   16       -5.925418     -5.925365   1.000000   1.000000
   17       -5.519264     -5.518842   1.000000   1.000000
   18       -3.813463     -3.811006   1.000000   1.000000
   19       -3.752042     -3.752493   1.000000   1.000000
   20       -3.609561     -3.608527   1.000000   1.000000
   21       -3.459875     -3.459895   1.000000   1.000000
   22       -0.883225     -0.883107   1.000000   1.000000
   23       -0.555350     -0.554486   1.000000   1.000000
   24       -0.151351     -0.151324   1.000000   1.000000
   25        0.467065      0.468783   1.000000   1.000000
   26        2.558374      2.561846   0.000000   0.000000
   27        2.611670      2.612540   0.000000   0.000000
   28        2.718681      2.718356   0.000000   0.000000
   29        2.976730      2.976461   0.000000   0.000000
   30        7.590651      7.591070   0.000000   0.000000
   31       10.409199     10.409794   0.000000   0.000000
   32       10.748727     10.747924   0.000000   0.000000
   33       10.897195     10.898377   0.000000   0.000000
   34       11.882577     11.883256   0.000000   0.000000
   35       12.750138     12.750305   0.000000   0.000000
   36       12.828095     12.828349   0.000000   0.000000
   37       13.778330     13.777641   0.000000   0.000000
   38       14.061621     14.063446   0.000000   0.000000
   39       14.789598     14.790957   0.000000   0.000000
   40       15.385591     15.437873   0.000000   0.000000
 
  0.5000000E+00  0.6551206E-16  0.6034115E-14  0.2551020E-02
    1      -43.381133    -43.380406   1.000000   1.000000
    2      -26.397514    -26.397278   1.000000   1.000000
    3      -25.243327    -25.244826   1.000000   1.000000
    4      -25.239400    -25.238186   1.000000   1.000000
    5      -24.556235    -24.554573   1.000000   1.000000
    6      -14.296578    -14.296278   1.000000   1.000000
    7      -12.666758    -12.668887   1.000000   1.000000
    8      -12.636772    -12.632666   1.000000   1.000000
    9      -11.933229    -11.932928   1.000000   1.000000
   10       -8.190165     -8.190173   1.000000   1.000000
   11       -7.945823     -7.945281   1.000000   1.000000
   12       -7.214362     -7.214386   1.000000   1.000000
   13       -6.720397     -6.720024   1.000000   1.000000
   14       -6.429119     -6.429167   1.000000   1.000000
   15       -6.350358     -6.348461   1.000000   1.000000
   16       -5.953203     -5.952931   1.000000   1.000000
   17       -5.546864     -5.546495   1.000000   1.000000
   18       -3.812913     -3.810472   1.000000   1.000000
   19       -3.747625     -3.748075   1.000000   1.000000
   20       -3.604722     -3.603679   1.000000   1.000000
   21       -3.457192     -3.457207   1.000000   1.000000
   22       -0.867299     -0.867175   1.000000   1.000000
   23       -0.495073     -0.494276   1.000000   1.000000
   24       -0.152416     -0.152363   1.000000   1.000000
   25        0.421538      0.423275   1.000000   1.000000
   26        2.557800      2.561359   0.000000   0.000000
   27        2.609336      2.610258   0.000000   0.000000
   28        2.713396      2.712967   0.000000   0.000000
   29        2.969339      2.969056   0.000000   0.000000
   30        7.244451      7.244858   0.000000   0.000000
   31       10.433579     10.433894   0.000000   0.000000
   32       10.855120     10.854493   0.000000   0.000000
   33       11.194728     11.195953   0.000000   0.000000
   34       11.668823     11.669757   0.000000   0.000000
   35       12.750333     12.750583   0.000000   0.000000
   36       13.280028     13.279964   0.000000   0.000000
   37       13.653761     13.653799   0.000000   0.000000
   38       14.152939     14.153197   0.000000   0.000000
   39       14.358523     14.360107   0.000000   0.000000
   40       15.035372     15.054167   0.000000   0.000000
 
 -0.6717190E-20  0.1428571E+00  0.3386598E-14  0.1020408E-01
    1      -43.381374    -43.380647   1.000000   1.000000
    2      -26.401880    -26.401640   1.000000   1.000000
    3      -25.279020    -25.279402   1.000000   1.000000
    4      -25.187675    -25.187609   1.000000   1.000000
    5      -24.567098    -24.565407   1.000000   1.000000
    6      -13.789871    -13.789744   1.000000   1.000000
    7      -13.021413    -13.022093   1.000000   1.000000
    8      -12.922788    -12.920041   1.000000   1.000000
    9      -11.892823    -11.892470   1.000000   1.000000
   10       -8.178981     -8.178943   1.000000   1.000000
   11       -7.802126     -7.801656   1.000000   1.000000
   12       -7.482565     -7.482481   1.000000   1.000000
   13       -7.107315     -7.107257   1.000000   1.000000
   14       -6.490053     -6.488568   1.000000   1.000000
   15       -5.807453     -5.806400   1.000000   1.000000
   16       -5.657459     -5.657887   1.000000   1.000000
   17       -5.581848     -5.581284   1.000000   1.000000
   18       -3.949919     -3.947811   1.000000   1.000000
   19       -3.825717     -3.825465   1.000000   1.000000
   20       -3.658111     -3.657501   1.000000   1.000000
   21       -3.501446     -3.501321   1.000000   1.000000
   22       -0.896332     -0.896071   1.000000   1.000000
   23       -0.721366     -0.720525   1.000000   1.000000
   24       -0.056550     -0.056620   1.000000   1.000000
   25        0.689206      0.690879   1.000000   1.000000
   26        2.439338      2.442134   0.000000   0.000000
   27        2.614974      2.616199   0.000000   0.000000
   28        2.720051      2.720012   0.000000   0.000000
   29        2.971213      2.970994   0.000000   0.000000
   30        9.241573      9.240719   0.000000   0.000000
   31        9.352948      9.354904   0.000000   0.000000
   32       10.241319     10.241811   0.000000   0.000000
   33       11.219105     11.218407   0.000000   0.000000
   34       11.678609     11.679569   0.000000   0.000000
   35       12.924971     12.924818   0.000000   0.000000
   36       13.528749     13.528684   0.000000   0.000000
   37       13.880050     13.880563   0.000000   0.000000
   38       14.387272     14.387340   0.000000   0.000000
   39       14.917562     14.916948   0.000000   0.000000
   40       15.477804     15.486590   0.000000   0.000000
 
  0.1250000E+00  0.1428571E+00 -0.6006806E-14  0.1020408E-01
    1      -43.381375    -43.380647   1.000000   1.000000
    2      -26.401413    -26.401173   1.000000   1.000000
    3      -25.278761    -25.279123   1.000000   1.000000
    4      -25.188306    -25.188258   1.000000   1.000000
    5      -24.567727    -24.566038   1.000000   1.000000
    6      -13.804656    -13.804491   1.000000   1.000000
    7      -13.039968    -13.040700   1.000000   1.000000
    8      -12.896078    -12.893303   1.000000   1.000000
    9      -11.884245    -11.883898   1.000000   1.000000
   10       -8.173504     -8.173472   1.000000   1.000000
   11       -7.795849     -7.795386   1.000000   1.000000
   12       -7.467010     -7.466910   1.000000   1.000000
   13       -7.124181     -7.124132   1.000000   1.000000
   14       -6.487029     -6.485524   1.000000   1.000000
   15       -5.831358     -5.830181   1.000000   1.000000
   16       -5.662576     -5.663262   1.000000   1.000000
   17       -5.564784     -5.564115   1.000000   1.000000
   18       -3.960160     -3.958102   1.000000   1.000000
   19       -3.813996     -3.813751   1.000000   1.000000
   20       -3.657957     -3.657259   1.000000   1.000000
   21       -3.504196     -3.504093   1.000000   1.000000
   22       -0.879595     -0.879322   1.000000   1.000000
   23       -0.710454     -0.709614   1.000000   1.000000
   24       -0.069448     -0.069496   1.000000   1.000000
   25        0.678702      0.680427   1.000000   1.000000
   26        2.452613      2.455343   0.000000   0.000000
   27        2.586553      2.587629   0.000000   0.000000
   28        2.728776      2.728792   0.000000   0.000000
   29        2.972186      2.972004   0.000000   0.000000
   30        9.121942      9.121655   0.000000   0.000000
   31        9.493748      9.495130   0.000000   0.000000
   32       10.069997     10.070461   0.000000   0.000000
   33       11.370824     11.370095   0.000000   0.000000
   34       11.638507     11.639622   0.000000   0.000000
   35       12.962283     12.962109   0.000000   0.000000
   36       13.512144     13.511785   0.000000   0.000000
   37       13.932943     13.933422   0.000000   0.000000
   38       14.445854     14.446001   0.000000   0.000000
   39       14.748746     14.750939   0.000000   0.000000
   40       15.423712     15.423411   0.000000   0.000000
 
  0.2500000E+00  0.1428571E+00 -0.8575796E-15  0.1020408E-01
    1      -43.381291    -43.380564   1.000000   1.000000
    2      -26.395953    -26.395712   1.000000   1.000000
    3      -25.281314    -25.281707   1.000000   1.000000
    4      -25.192647    -25.192557   1.000000   1.000000
    5      -24.568204    -24.566528   1.000000   1.000000
    6      -13.949624    -13.949383   1.000000   1.000000
    7      -12.983044    -12.983578   1.000000   1.000000
    8      -12.799205    -12.796703   1.000000   1.000000
    9      -11.885197    -11.884839   1.000000   1.000000
   10       -8.152599     -8.152579   1.000000   1.000000
   11       -7.822437     -7.821974   1.000000   1.000000
   12       -7.274086     -7.274047   1.000000   1.000000
   13       -7.056523     -7.056393   1.000000   1.000000
   14       -6.514453     -6.513135   1.000000   1.000000
   15       -6.020520     -6.019142   1.000000   1.000000
   16       -5.766397     -5.767089   1.000000   1.000000
   17       -5.511478     -5.510838   1.000000   1.000000
   18       -3.967000     -3.964984   1.000000   1.000000
   19       -3.799153     -3.798913   1.000000   1.000000
   20       -3.650128     -3.649377   1.000000   1.000000
   21       -3.500443     -3.500346   1.000000   1.000000
   22       -0.842751     -0.842559   1.000000   1.000000
   23       -0.648640     -0.647774   1.000000   1.000000
   24       -0.085764     -0.085751   1.000000   1.000000
   25        0.587945      0.589681   1.000000   1.000000
   26        2.453509      2.456185   0.000000   0.000000
   27        2.556235      2.557268   0.000000   0.000000
   28        2.731642      2.731674   0.000000   0.000000
   29        2.964570      2.964433   0.000000   0.000000
   30        9.021582      9.022032   0.000000   0.000000
   31        9.456170      9.456356   0.000000   0.000000
   32       10.069117     10.069828   0.000000   0.000000
   33       11.229011     11.229114   0.000000   0.000000
   34       11.736552     11.737063   0.000000   0.000000
   35       12.970724     12.970415   0.000000   0.000000
   36       13.310250     13.310835   0.000000   0.000000
   37       13.653576     13.653597   0.000000   0.000000
   38       14.280736     14.281032   0.000000   0.000000
   39       15.117295     15.147009   0.000000   0.000000
   40       15.494844     15.685975   0.000000   0.000000
 
  0.3750000E+00  0.1428571E+00  0.4272428E-14  0.1020408E-01
    1      -43.381218    -43.380491   1.000000   1.000000
    2      -26.388818    -26.388575   1.000000   1.000000
    3      -25.285230    -25.285690   1.000000   1.000000
    4      -25.198185    -25.198015   1.000000   1.000000
    5      -24.568465    -24.566804   1.000000   1.000000
    6      -14.130071    -14.129788   1.000000   1.000000
    7      -12.867936    -12.868361   1.000000   1.000000
    8      -12.681833    -12.679422   1.000000   1.000000
    9      -11.910020    -11.909711   1.000000   1.000000
   10       -8.143973     -8.143956   1.000000   1.000000
   11       -7.860382     -7.859918   1.000000   1.000000
   12       -7.212666     -7.212655   1.000000   1.000000
   13       -6.703007     -6.702867   1.000000   1.000000
   14       -6.597501     -6.596609   1.000000   1.000000
   15       -6.208796     -6.207272   1.000000   1.000000
   16       -5.907155     -5.907354   1.000000   1.000000
   17       -5.522686     -5.522238   1.000000   1.000000
   18       -3.965428     -3.963429   1.000000   1.000000
   19       -3.789413     -3.789164   1.000000   1.000000
   20       -3.638766     -3.638035   1.000000   1.000000
   21       -3.492831     -3.492717   1.000000   1.000000
   22       -0.802579     -0.802430   1.000000   1.000000
   23       -0.540257     -0.539473   1.000000   1.000000
   24       -0.089625     -0.089548   1.000000   1.000000
   25        0.472171      0.473921   1.000000   1.000000
   26        2.444062      2.446734   0.000000   0.000000
   27        2.542129      2.543233   0.000000   0.000000
   28        2.725405      2.725419   0.000000   0.000000
   29        2.949973      2.949841   0.000000   0.000000
   30        7.994121      7.994540   0.000000   0.000000
   31       10.010179     10.010483   0.000000   0.000000
   32       10.675554     10.675624   0.000000   0.000000
   33       11.039035     11.039847   0.000000   0.000000
   34       11.890242     11.890707   0.000000   0.000000
   35       12.717748     12.717018   0.000000   0.000000
   36       12.978441     12.978925   0.000000   0.000000
   37       13.973397     13.973004   0.000000   0.000000
   38       14.116341     14.117216   0.000000   0.000000
   39       14.985011     14.994129   0.000000   0.000000
   40       15.502366     15.489250   0.000000   0.000000
 
  0.5000000E+00  0.1428571E+00 -0.5103492E-14  0.1020408E-01
    1      -43.381147    -43.380420   1.000000   1.000000
    2      -26.384132    -26.383887   1.000000   1.000000
    3      -25.288277    -25.288799   1.000000   1.000000
    4      -25.201409    -25.201169   1.000000   1.000000
    5      -24.568231    -24.566579   1.000000   1.000000
    6      -14.243295    -14.243002   1.000000   1.000000
    7      -12.758087    -12.758546   1.000000   1.000000
    8      -12.618043    -12.615523   1.000000   1.000000
    9      -11.939846    -11.939623   1.000000   1.000000
   10       -8.139228     -8.139216   1.000000   1.000000
   11       -7.891983     -7.891511   1.000000   1.000000
   12       -7.173834     -7.173831   1.000000   1.000000
   13       -6.702240     -6.701730   1.000000   1.000000
   14       -6.429166     -6.429246   1.000000   1.000000
   15       -6.332827     -6.331038   1.000000   1.000000
   16       -5.979940     -5.979693   1.000000   1.000000
   17       -5.540944     -5.540593   1.000000   1.000000
   18       -3.956566     -3.954551   1.000000   1.000000
   19       -3.790048     -3.789790   1.000000   1.000000
   20       -3.631819     -3.631152   1.000000   1.000000
   21       -3.485787     -3.485645   1.000000   1.000000
   22       -0.783531     -0.783390   1.000000   1.000000
   23       -0.457252     -0.456589   1.000000   1.000000
   24       -0.079644     -0.079519   1.000000   1.000000
   25        0.400174      0.401934   1.000000   1.000000
   26        2.431155      2.433930   0.000000   0.000000
   27        2.550896      2.552063   0.000000   0.000000
   28        2.715188      2.715182   0.000000   0.000000
   29        2.936514      2.936339   0.000000   0.000000
   30        7.393626      7.394039   0.000000   0.000000
   31       10.452779     10.453022   0.000000   0.000000
   32       10.759731     10.759523   0.000000   0.000000
   33       11.242301     11.243343   0.000000   0.000000
   34       11.669637     11.670371   0.000000   0.000000
   35       12.793626     12.793684   0.000000   0.000000
   36       13.187757     13.187678   0.000000   0.000000
   37       13.832670     13.832452   0.000000   0.000000
   38       14.192692     14.192136   0.000000   0.000000
   39       14.531407     14.534558   0.000000   0.000000
   40       15.241775     15.177876   0.000000   0.000000
 
 -0.3750000E+00  0.1428571E+00  0.1205750E-14  0.1020408E-01
    1      -43.381169    -43.380442   1.000000   1.000000
    2      -26.384713    -26.384469   1.000000   1.000000
    3      -25.288703    -25.289242   1.000000   1.000000
    4      -25.200660    -25.200407   1.000000   1.000000
    5      -24.567667    -24.566012   1.000000   1.000000
    6      -14.232985    -14.232702   1.000000   1.000000
    7      -12.740555    -12.740585   1.000000   1.000000
    8      -12.649250    -12.647228   1.000000   1.000000
    9      -11.936360    -11.936065   1.000000   1.000000
   10       -8.143355     -8.143346   1.000000   1.000000
   11       -7.909798     -7.909313   1.000000   1.000000
   12       -7.151237     -7.151246   1.000000   1.000000
   13       -6.703882     -6.703402   1.000000   1.000000
   14       -6.456475     -6.456511   1.000000   1.000000
   15       -6.334543     -6.332797   1.000000   1.000000
   16       -5.975763     -5.975494   1.000000   1.000000
   17       -5.516563     -5.516190   1.000000   1.000000
   18       -3.946643     -3.944584   1.000000   1.000000
   19       -3.800899     -3.800644   1.000000   1.000000
   20       -3.633790     -3.633191   1.000000   1.000000
   21       -3.482996     -3.482835   1.000000   1.000000
   22       -0.803628     -0.803497   1.000000   1.000000
   23       -0.470703     -0.470029   1.000000   1.000000
   24       -0.067443     -0.067324   1.000000   1.000000
   25        0.410650      0.412350   1.000000   1.000000
   26        2.419843      2.422715   0.000000   0.000000
   27        2.576726      2.577959   0.000000   0.000000
   28        2.708531      2.708500   0.000000   0.000000
   29        2.935137      2.934922   0.000000   0.000000
   30        7.443744      7.444166   0.000000   0.000000
   31       10.447350     10.447937   0.000000   0.000000
   32       10.867948     10.867962   0.000000   0.000000
   33       11.063518     11.063708   0.000000   0.000000
   34       11.888541     11.889529   0.000000   0.000000
   35       12.721291     12.721365   0.000000   0.000000
   36       12.913589     12.913711   0.000000   0.000000
   37       13.790168     13.790009   0.000000   0.000000
   38       14.187951     14.188426   0.000000   0.000000
   39       14.668150     14.672411   0.000000   0.000000
   40       15.302509     15.367916   0.000000   0.000000
 
 -0.2500000E+00  0.1428571E+00 -0.7749909E-15  0.1020408E-01
    1      -43.381253    -43.380526   1.000000   1.000000
    2      -26.390230    -26.389987   1.000000   1.000000
    3      -25.286097    -25.286602   1.000000   1.000000
    4      -25.196405    -25.196196   1.000000   1.000000
    5      -24.567013    -24.565346   1.000000   1.000000
    6      -14.103055    -14.102805   1.000000   1.000000
    7      -12.832468    -12.831790   1.000000   1.000000
    8      -12.742789    -12.741558   1.000000   1.000000
    9      -11.913502    -11.913102   1.000000   1.000000
   10       -8.152567     -8.152551   1.000000   1.000000
   11       -7.894068     -7.893579   1.000000   1.000000
   12       -7.160772     -7.160796   1.000000   1.000000
   13       -6.757867     -6.757730   1.000000   1.000000
   14       -6.606557     -6.605749   1.000000   1.000000
   15       -6.212427     -6.210896   1.000000   1.000000
   16       -5.900035     -5.900151   1.000000   1.000000
   17       -5.473239     -5.472758   1.000000   1.000000
   18       -3.941450     -3.939344   1.000000   1.000000
   19       -3.816527     -3.816276   1.000000   1.000000
   20       -3.641992     -3.641438   1.000000   1.000000
   21       -3.486194     -3.486032   1.000000   1.000000
   22       -0.848781     -0.848651   1.000000   1.000000
   23       -0.571402     -0.570607   1.000000   1.000000
   24       -0.060178     -0.060129   1.000000   1.000000
   25        0.497670      0.499288   1.000000   1.000000
   26        2.415406      2.418293   0.000000   0.000000
   27        2.605596      2.606925   0.000000   0.000000
   28        2.707843      2.707768   0.000000   0.000000
   29        2.947058      2.946834   0.000000   0.000000
   30        8.134323      8.134793   0.000000   0.000000
   31       10.028676     10.029650   0.000000   0.000000
   32       10.773288     10.772542   0.000000   0.000000
   33       11.004858     11.005252   0.000000   0.000000
   34       11.809592     11.810155   0.000000   0.000000
   35       12.481807     12.482306   0.000000   0.000000
   36       13.013894     13.014004   0.000000   0.000000
   37       13.761210     13.761522   0.000000   0.000000
   38       14.120310     14.121009   0.000000   0.000000
   39       15.307617     15.359748   0.000000   0.000000
   40       15.507756     15.584214   0.000000   0.000000
 
 -0.1250000E+00  0.1428571E+00 -0.3060723E-14  0.1020408E-01
    1      -43.381341    -43.380614   1.000000   1.000000
    2      -26.397327    -26.397086   1.000000   1.000000
    3      -25.282067    -25.282507   1.000000   1.000000
    4      -25.191099    -25.190968   1.000000   1.000000
    5      -24.566841    -24.565159   1.000000   1.000000
    6      -13.918463    -13.918277   1.000000   1.000000
    7      -12.943323    -12.943163   1.000000   1.000000
    8      -12.859409    -12.857598   1.000000   1.000000
    9      -11.900164    -11.899769   1.000000   1.000000
   10       -8.161683     -8.161657   1.000000   1.000000
   11       -7.845306     -7.844823   1.000000   1.000000
   12       -7.271116     -7.271107   1.000000   1.000000
   13       -7.059094     -7.058960   1.000000   1.000000
   14       -6.523197     -6.521947   1.000000   1.000000
   15       -6.007876     -6.006544   1.000000   1.000000
   16       -5.765231     -5.765770   1.000000   1.000000
   17       -5.486697     -5.486065   1.000000   1.000000
   18       -3.942692     -3.940563   1.000000   1.000000
   19       -3.827137     -3.826884   1.000000   1.000000