 vasp.5.4.4.18Apr17-6-g9f103f2a35 (build Aug 12 2020 11:57:02) complex          
  
 executed on             LinuxIFC date 2021.02.02  18:27:48
 running on   24 total cores
 distrk:  each k-point on   24 cores,    1 groups
 distr:  one band on NCORES_PER_BAND=   6 cores,    4 groups


--------------------------------------------------------------------------------------------------------


 INCAR:
 POTCAR:    PAW_PBE Li_sv 10Sep2004               
 POTCAR:    PAW_PBE Li_sv 10Sep2004               
   VRHFIN =Li: 1s2s2p                                                           
   LEXCH  = PE                                                                  
   EATOM  =   202.7858 eV,   14.9043 Ry                                         
                                                                                
   TITEL  = PAW_PBE Li_sv 10Sep2004                                             
   LULTRA =        F    use ultrasoft PP ?                                      
   IUNSCR =        0    unscreen: 0-lin 1-nonlin 2-no                           
   RPACOR =    0.000    partial core radius                                     
   POMASS =    7.010; ZVAL   =    3.000    mass and valenz                      
   RCORE  =    1.700    outmost cutoff radius                                   
   RWIGS  =    2.050; RWIGS  =    1.085    wigner-seitz radius (au A)           
   ENMAX  =  499.034; ENMIN  =  374.276 eV                                      
   ICORE  =        2    local potential                                         
   LCOR   =        T    correct aug charges                                     
   LPAW   =        T    paw PP                                                  
   EAUG   =  628.945                                                            
   RMAX   =    1.732    core radius for proj-oper                               
   RAUG   =    1.300    factor for augmentation sphere                          
   RDEP   =    1.728    radius for radial grids                                 
   RDEPT  =    1.329    core radius for aug-charge                              
                                                                                
   Atomic configuration                                                         
    4 entries                                                                   
     n  l   j            E        occ.                                          
     1  0  0.50       -51.8549   2.0000                                         
     2  0  0.50        -2.8742   1.0000                                         
     2  1  0.50        -1.3606   0.0000                                         
     3  2  1.50        -1.3606   0.0000                                         
   Description                                                                  
     l       E           TYP  RCUT    TYP  RCUT                                 
     0    -51.8548813     23  1.400                                             
     0     -2.8742052     23  1.700                                             
     1     -1.3605826     23  1.400                                             
     2     -1.3605826     23  1.400                                             
  local pseudopotential read in
  atomic valenz-charges read in
  non local Contribution for L=           0  read in
    real space projection operators read in
  non local Contribution for L=           0  read in
    real space projection operators read in
  non local Contribution for L=           1  read in
    real space projection operators read in
    PAW grid and wavefunctions read in
 
   number of l-projection  operators is LMAX  =           3
   number of lm-projection operators is LMMAX =           5
 

 ----------------------------------------------------------------------------- 
|                                                                             |
|  ADVICE TO THIS USER RUNNING 'VASP/VAMP'   (HEAR YOUR MASTER'S VOICE ...):  |
|                                                                             |
|      You have a (more or less) 'small supercell' and for smaller cells      |
|      it is recommended  to use the reciprocal-space projection scheme!      |
|      The real space optimization is not  efficient for small cells and it   |
|      is also less accurate ...                                              |
|      Therefore set LREAL=.FALSE. in the  INCAR file                         |
|                                                                             |
 ----------------------------------------------------------------------------- 

 Optimization of the real space projectors (new method)

 maximal supplied QI-value         = 22.11
 optimisation between [QCUT,QGAM] = [ 11.50, 23.22] = [ 37.02,150.92] Ry 
 Optimized for a Real-space Cutoff    1.08 Angstroem

   l    n(q)    QCUT    max X(q) W(low)/X(q) W(high)/X(q)  e(spline) 
   0      7    11.497    10.506    0.36E-04    0.62E-04    0.14E-07
   0      7    11.497     8.367    0.65E-04    0.14E-03    0.28E-07
   1      7    11.497     8.983    0.21E-03    0.43E-03    0.90E-07
  PAW_PBE Li_sv 10Sep2004               :
 energy of atom  1       EATOM= -202.7858
 kinetic energy error for atom=    0.0130 (will be added to EATOM!!)
 
 
 POSCAR: Li1                                     
  positions in direct lattice
  No initial velocities read in
 exchange correlation table for  LEXCH =        8
   RHO(1)=    0.500       N(1)  =     2000
   RHO(2)=  100.500       N(2)  =     4000
 


--------------------------------------------------------------------------------------------------------


 ion  position               nearest neighbor table
   1  0.000  0.000  0.000-
 
  LATTYP: Found a body centered cubic cell.
 ALAT       =     3.4268180000
  
  Lattice vectors:
  
 A1 = (  -1.7134090000,   1.7134090000,   1.7134090000)
 A2 = (   1.7134090000,  -1.7134090000,   1.7134090000)
 A3 = (   1.7134090000,   1.7134090000,  -1.7134090000)


Analysis of symmetry for initial positions (statically):
=====================================================================
 Subroutine PRICEL returns:
 Original cell was already a primitive cell.
 

 Routine SETGRP: Setting up the symmetry group for a 
 body centered cubic supercell.


 Subroutine GETGRP returns: Found 48 space group operations
 (whereof 48 operations were pure point group operations)
 out of a pool of 48 trial point group operations.


The static configuration has the point symmetry O_h .


Analysis of symmetry for dynamics (positions and initial velocities):
=====================================================================
 Subroutine PRICEL returns:
 Original cell was already a primitive cell.
 

 Routine SETGRP: Setting up the symmetry group for a 
 body centered cubic supercell.


 Subroutine GETGRP returns: Found 48 space group operations
 (whereof 48 operations were pure point group operations)
 out of a pool of 48 trial point group operations.


The dynamic configuration has the point symmetry O_h .


Analysis of structural, dynamic, and magnetic symmetry:
=====================================================================
 Subroutine PRICEL returns:
 Original cell was already a primitive cell.
 

 Routine SETGRP: Setting up the symmetry group for a 
 body centered cubic supercell.


 Subroutine GETGRP returns: Found 48 space group operations
 (whereof 48 operations were pure point group operations)
 out of a pool of 48 trial point group operations.


The magnetic configuration has the point symmetry O_h .


 Subroutine INISYM returns: Found 48 space group operations
 (whereof 48 operations are pure point group operations),
 and found     1 'primitive' translations

 
 
 KPOINTS: Fully automatic kpoint scheme           

Automatic generation of k-mesh.
 generate k-points for:   13   13   13
Space group operators:
 irot       det(A)        alpha          n_x          n_y          n_z        tau_x        tau_y        tau_z
    1     1.000000     0.000000     1.000000     0.000000     0.000000     0.000000     0.000000     0.000000
    2    -1.000000     0.000000     1.000000     0.000000     0.000000     0.000000     0.000000     0.000000
    3     1.000000   120.000000    -0.577350    -0.577350    -0.577350     0.000000     0.000000     0.000000
    4    -1.000000   120.000000    -0.577350    -0.577350    -0.577350     0.000000     0.000000     0.000000
    5     1.000000   120.000000     0.577350     0.577350     0.577350     0.000000     0.000000     0.000000
    6    -1.000000   120.000000     0.577350     0.577350     0.577350     0.000000     0.000000     0.000000
    7     1.000000    90.000000     0.000000     0.000000    -1.000000     0.000000     0.000000     0.000000
    8    -1.000000    90.000000     0.000000     0.000000    -1.000000     0.000000     0.000000     0.000000
    9     1.000000   180.000000     0.000000     0.707107     0.707107     0.000000     0.000000     0.000000
   10    -1.000000   180.000000     0.000000     0.707107     0.707107     0.000000     0.000000     0.000000
   11     1.000000    90.000000     0.000000     1.000000     0.000000     0.000000     0.000000     0.000000
   12    -1.000000    90.000000     0.000000     1.000000     0.000000     0.000000     0.000000     0.000000
   13     1.000000   180.000000     0.000000     0.000000     1.000000     0.000000     0.000000     0.000000
   14    -1.000000   180.000000     0.000000     0.000000     1.000000     0.000000     0.000000     0.000000
   15     1.000000   120.000000    -0.577350     0.577350     0.577350     0.000000     0.000000     0.000000
   16    -1.000000   120.000000    -0.577350     0.577350     0.577350     0.000000     0.000000     0.000000
   17     1.000000   120.000000    -0.577350     0.577350    -0.577350     0.000000     0.000000     0.000000
   18    -1.000000   120.000000    -0.577350     0.577350    -0.577350     0.000000     0.000000     0.000000
   19     1.000000    90.000000     0.000000     0.000000     1.000000     0.000000     0.000000     0.000000
   20    -1.000000    90.000000     0.000000     0.000000     1.000000     0.000000     0.000000     0.000000
   21     1.000000    90.000000    -1.000000     0.000000     0.000000     0.000000     0.000000     0.000000
   22    -1.000000    90.000000    -1.000000     0.000000     0.000000     0.000000     0.000000     0.000000
   23     1.000000   180.000000     0.707107     0.000000     0.707107     0.000000     0.000000     0.000000
   24    -1.000000   180.000000     0.707107     0.000000     0.707107     0.000000     0.000000     0.000000
   25     1.000000   120.000000     0.577350    -0.577350     0.577350     0.000000     0.000000     0.000000
   26    -1.000000   120.000000     0.577350    -0.577350     0.577350     0.000000     0.000000     0.000000
   27     1.000000   120.000000    -0.577350    -0.577350     0.577350     0.000000     0.000000     0.000000
   28    -1.000000   120.000000    -0.577350    -0.577350     0.577350     0.000000     0.000000     0.000000
   29     1.000000   180.000000     1.000000     0.000000     0.000000     0.000000     0.000000     0.000000
   30    -1.000000   180.000000     1.000000     0.000000     0.000000     0.000000     0.000000     0.000000
   31     1.000000    90.000000     0.000000    -1.000000     0.000000     0.000000     0.000000     0.000000
   32    -1.000000    90.000000     0.000000    -1.000000     0.000000     0.000000     0.000000     0.000000
   33     1.000000   180.000000     0.707107     0.707107     0.000000     0.000000     0.000000     0.000000
   34    -1.000000   180.000000     0.707107     0.707107     0.000000     0.000000     0.000000     0.000000
   35     1.000000    90.000000     1.000000     0.000000     0.000000     0.000000     0.000000     0.000000
   36    -1.000000    90.000000     1.000000     0.000000     0.000000     0.000000     0.000000     0.000000
   37     1.000000   120.000000     0.577350    -0.577350    -0.577350     0.000000     0.000000     0.000000
   38    -1.000000   120.000000     0.577350    -0.577350    -0.577350     0.000000     0.000000     0.000000
   39     1.000000   180.000000     0.000000     1.000000     0.000000     0.000000     0.000000     0.000000
   40    -1.000000   180.000000     0.000000     1.000000     0.000000     0.000000     0.000000     0.000000
   41     1.000000   120.000000     0.577350     0.577350    -0.577350     0.000000     0.000000     0.000000
   42    -1.000000   120.000000     0.577350     0.577350    -0.577350     0.000000     0.000000     0.000000
   43     1.000000   180.000000     0.000000    -0.707107     0.707107     0.000000     0.000000     0.000000
   44    -1.000000   180.000000     0.000000    -0.707107     0.707107     0.000000     0.000000     0.000000
   45     1.000000   180.000000     0.707107    -0.707107     0.000000     0.000000     0.000000     0.000000
   46    -1.000000   180.000000     0.707107    -0.707107     0.000000     0.000000     0.000000     0.000000
   47     1.000000   180.000000     0.707107     0.000000    -0.707107     0.000000     0.000000     0.000000
   48    -1.000000   180.000000     0.707107     0.000000    -0.707107     0.000000     0.000000     0.000000
 
 Subroutine IBZKPT returns following result:
 ===========================================
 
 Found     84 irreducible k-points:
 
 Following reciprocal coordinates:
            Coordinates               Weight
  0.000000  0.000000  0.000000      1.000000
  0.076923  0.000000  0.000000     12.000000
  0.153846  0.000000  0.000000     12.000000
  0.230769  0.000000  0.000000     12.000000
  0.307692  0.000000  0.000000     12.000000
  0.384615  0.000000  0.000000     12.000000
  0.461538  0.000000  0.000000     12.000000
  0.076923  0.076923  0.000000     24.000000
  0.153846  0.076923  0.000000     48.000000
  0.230769  0.076923  0.000000     48.000000
  0.307692  0.076923  0.000000     48.000000
  0.384615  0.076923  0.000000     48.000000
  0.461538  0.076923  0.000000     24.000000
  0.153846  0.153846  0.000000     24.000000
  0.230769  0.153846  0.000000     48.000000
  0.307692  0.153846  0.000000     48.000000
  0.384615  0.153846  0.000000     48.000000
  0.230769  0.230769  0.000000     24.000000
  0.307692  0.230769  0.000000     48.000000
  0.384615  0.230769  0.000000     24.000000
  0.307692  0.307692  0.000000     24.000000
  0.076923  0.076923  0.076923      8.000000
  0.153846  0.076923  0.076923     24.000000
  0.230769  0.076923  0.076923     24.000000
  0.307692  0.076923  0.076923     24.000000
  0.384615  0.076923  0.076923     24.000000
 -0.076923  0.076923  0.076923      6.000000
  0.153846  0.153846  0.076923     24.000000
  0.230769  0.153846  0.076923     48.000000
  0.307692  0.153846  0.076923     48.000000
  0.384615  0.153846  0.076923     24.000000
 -0.153846  0.153846  0.076923     24.000000
  0.230769  0.230769  0.076923     24.000000
  0.307692  0.230769  0.076923     48.000000
 -0.230769  0.230769  0.076923     24.000000
 -0.153846  0.230769  0.076923     24.000000
  0.307692  0.307692  0.076923      8.000000
 -0.307692  0.307692  0.076923     24.000000
 -0.230769  0.307692  0.076923     48.000000
 -0.384615  0.384615  0.076923     24.000000
 -0.307692  0.384615  0.076923     48.000000
 -0.230769  0.384615  0.076923     24.000000
 -0.461538  0.461538  0.076923     24.000000
 -0.384615  0.461538  0.076923     48.000000
 -0.307692  0.461538  0.076923     48.000000
 -0.461538 -0.461538  0.076923     24.000000
 -0.384615 -0.461538  0.076923     48.000000
 -0.307692 -0.461538  0.076923     24.000000
 -0.384615 -0.384615  0.076923     24.000000
  0.153846  0.153846  0.153846      8.000000
  0.230769  0.153846  0.153846     24.000000
  0.307692  0.153846  0.153846     24.000000
 -0.153846  0.153846  0.153846      6.000000
  0.230769  0.230769  0.153846     24.000000
  0.307692  0.230769  0.153846     24.000000
 -0.230769  0.230769  0.153846     24.000000
 -0.307692  0.307692  0.153846     24.000000
 -0.230769  0.307692  0.153846     24.000000
 -0.384615  0.384615  0.153846     24.000000
 -0.307692  0.384615  0.153846     48.000000
 -0.461538  0.461538  0.153846     24.000000
 -0.384615  0.461538  0.153846     48.000000
 -0.307692  0.461538  0.153846     24.000000
 -0.461538 -0.461538  0.153846     24.000000
 -0.384615 -0.461538  0.153846     48.000000
 -0.384615 -0.384615  0.153846      8.000000
  0.230769  0.230769  0.230769      8.000000
 -0.230769  0.230769  0.230769      6.000000
 -0.307692  0.307692  0.230769     24.000000
 -0.384615  0.384615  0.230769     24.000000
 -0.307692  0.384615  0.230769     24.000000
 -0.461538  0.461538  0.230769     24.000000
 -0.384615  0.461538  0.230769     48.000000
 -0.461538 -0.461538  0.230769     24.000000
 -0.384615 -0.461538  0.230769     24.000000
 -0.307692  0.307692  0.307692      6.000000
 -0.384615  0.384615  0.307692     24.000000
 -0.461538  0.461538  0.307692     24.000000
 -0.384615  0.461538  0.307692     24.000000
 -0.461538 -0.461538  0.307692     24.000000
 -0.384615  0.384615  0.384615      6.000000
 -0.461538  0.461538  0.384615     24.000000
 -0.461538 -0.461538  0.384615      8.000000
 -0.461538  0.461538  0.461538      6.000000
 
 Following cartesian coordinates:
            Coordinates               Weight
  0.000000  0.000000  0.000000      1.000000
  0.000000  0.022447  0.022447     12.000000
  0.000000  0.044895  0.044895     12.000000
  0.000000  0.067342  0.067342     12.000000
  0.000000  0.089790  0.089790     12.000000
  0.000000  0.112237  0.112237     12.000000
  0.000000  0.134684  0.134684     12.000000
  0.022447  0.022447  0.044895     24.000000
  0.022447  0.044895  0.067342     48.000000
  0.022447  0.067342  0.089790     48.000000
  0.022447  0.089790  0.112237     48.000000
  0.022447  0.112237  0.134684     48.000000
  0.022447  0.134684  0.157132     24.000000
  0.044895  0.044895  0.089790     24.000000
  0.044895  0.067342  0.112237     48.000000
  0.044895  0.089790  0.134684     48.000000
  0.044895  0.112237  0.157132     48.000000
  0.067342  0.067342  0.134684     24.000000
  0.067342  0.089790  0.157132     48.000000
  0.067342  0.112237  0.179579     24.000000
  0.089790  0.089790  0.179579     24.000000
  0.044895  0.044895  0.044895      8.000000
  0.044895  0.067342  0.067342     24.000000
  0.044895  0.089790  0.089790     24.000000
  0.044895  0.112237  0.112237     24.000000
  0.044895  0.134684  0.134684     24.000000
  0.044895  0.000000  0.000000      6.000000
  0.067342  0.067342  0.089790     24.000000
  0.067342  0.089790  0.112237     48.000000
  0.067342  0.112237  0.134684     48.000000
  0.067342  0.134684  0.157132     24.000000
  0.067342 -0.022447  0.000000     24.000000
  0.089790  0.089790  0.134684     24.000000
  0.089790  0.112237  0.157132     48.000000
  0.089790 -0.044895  0.000000     24.000000
  0.089790 -0.022447  0.022447     24.000000
  0.112237  0.112237  0.179579      8.000000
  0.112237 -0.067342  0.000000     24.000000
  0.112237 -0.044895  0.022447     48.000000
  0.134684 -0.089790  0.000000     24.000000
  0.134684 -0.067342  0.022447     48.000000
  0.134684 -0.044895  0.044895     24.000000
  0.157132 -0.112237  0.000000     24.000000
  0.157132 -0.089790  0.022447     48.000000
  0.157132 -0.067342  0.044895     48.000000
 -0.112237 -0.112237 -0.269369     24.000000
 -0.112237 -0.089790 -0.246921     48.000000
 -0.112237 -0.067342 -0.224474     24.000000
 -0.089790 -0.089790 -0.224474     24.000000
  0.089790  0.089790  0.089790      8.000000
  0.089790  0.112237  0.112237     24.000000
  0.089790  0.134684  0.134684     24.000000
  0.089790  0.000000  0.000000      6.000000
  0.112237  0.112237  0.134684     24.000000
  0.112237  0.134684  0.157132     24.000000
  0.112237 -0.022447  0.000000     24.000000
  0.134684 -0.044895  0.000000     24.000000
  0.134684 -0.022447  0.022447     24.000000
  0.157132 -0.067342  0.000000     24.000000
  0.157132 -0.044895  0.022447     48.000000
  0.179579 -0.089790  0.000000     24.000000
  0.179579 -0.067342  0.022447     48.000000
  0.179579 -0.044895  0.044895     24.000000
 -0.089790 -0.089790 -0.269369     24.000000
 -0.089790 -0.067342 -0.246921     48.000000
 -0.067342 -0.067342 -0.224474      8.000000
  0.134684  0.134684  0.134684      8.000000
  0.134684  0.000000  0.000000      6.000000
  0.157132 -0.022447  0.000000     24.000000
  0.179579 -0.044895  0.000000     24.000000
  0.179579 -0.022447  0.022447     24.000000
  0.202026 -0.067342  0.000000     24.000000
  0.202026 -0.044895  0.022447     48.000000
 -0.067342 -0.067342 -0.269369     24.000000
 -0.067342 -0.044895 -0.246921     24.000000
  0.179579  0.000000  0.000000      6.000000
  0.202026 -0.022447  0.000000     24.000000
  0.224474 -0.044895  0.000000     24.000000
  0.224474 -0.022447  0.022447     24.000000
 -0.044895 -0.044895 -0.269369     24.000000
  0.224474  0.000000  0.000000      6.000000
  0.246921 -0.022447  0.000000     24.000000
 -0.022447 -0.022447 -0.269369      8.000000
  0.269369  0.000000  0.000000      6.000000
 


--------------------------------------------------------------------------------------------------------




 Dimension of arrays:
   k-points           NKPTS =     84   k-points in BZ     NKDIM =     84   number of bands    NBANDS=      8
   number of dos      NEDOS =    301   number of ions     NIONS =      1
   non local maximal  LDIM  =      3   non local SUM 2l+1 LMDIM =      5
   total plane-waves  NPLWV =  13824
   max r-space proj   IRMAX =   3633   max aug-charges    IRDMAX=   8616
   dimension x,y,z NGX =    24 NGY =   24 NGZ =   24
   dimension x,y,z NGXF=    48 NGYF=   48 NGZF=   48
   support grid    NGXF=    48 NGYF=   48 NGZF=   48
   ions per type =               1
   NGX,Y,Z   is equivalent  to a cutoff of  13.44, 13.44, 13.44 a.u.
   NGXF,Y,Z  is equivalent  to a cutoff of  26.89, 26.89, 26.89 a.u.

 SYSTEM =  unknown system                          
 POSCAR =  Li1                                     

 Startparameter for this run:
   NWRITE =      2    write-flag & timer
   PREC   = accura    normal or accurate (medium, high low for compatibility)
   ISTART =      0    job   : 0-new  1-cont  2-samecut
   ICHARG =      2    charge: 1-file 2-atom 10-const
   ISPIN  =      2    spin polarized calculation?
   LNONCOLLINEAR =      F non collinear calculations
   LSORBIT =      F    spin-orbit coupling
   INIWAV =      1    electr: 0-lowe 1-rand  2-diag
   LASPH  =      T    aspherical Exc in radial PAW
   METAGGA=      F    non-selfconsistent MetaGGA calc.

 Electronic Relaxation 1
   ENCUT  =  520.0 eV  38.22 Ry    6.18 a.u.   5.52  5.52  5.52*2*pi/ulx,y,z
   ENINI  =  520.0     initial cutoff
   ENAUG  =  628.9 eV  augmentation charge cutoff
   NELM   =    100;   NELMIN=  2; NELMDL= -5     # of ELM steps 
   EDIFF  = 0.1E-04   stopping-criterion for ELM
   LREAL  =      T    real-space projection
   NLSPLINE    = F    spline interpolate recip. space projectors
   LCOMPAT=      F    compatible to vasp.4.4
   GGA_COMPAT  = T    GGA compatible to vasp.4.4-vasp.4.6
   LMAXPAW     = -100 max onsite density
   LMAXMIX     =    2 max onsite mixed and CHGCAR
   VOSKOWN=      0    Vosko Wilk Nusair interpolation
   ROPT   =   -0.00025
 Ionic relaxation
   EDIFFG = 0.1E-03   stopping-criterion for IOM
   NSW    =     99    number of steps for IOM
   NBLOCK =      1;   KBLOCK =     99    inner block; outer block 
   IBRION =      2    ionic relax: 0-MD 1-quasi-New 2-CG
   NFREE  =      1    steps in history (QN), initial steepest desc. (CG)
   ISIF   =      3    stress and relaxation
   IWAVPR =     11    prediction:  0-non 1-charg 2-wave 3-comb
   ISYM   =      2    0-nonsym 1-usesym 2-fastsym
   LCORR  =      T    Harris-Foulkes like correction to forces

   POTIM  = 0.5000    time-step for ionic-motion
   TEIN   =    0.0    initial temperature
   TEBEG  =    0.0;   TEEND  =   0.0 temperature during run
   SMASS  =  -3.00    Nose mass-parameter (am)
   estimated Nose-frequenzy (Omega)   =  0.10E-29 period in steps =****** mass=  -0.201E-27a.u.
   SCALEE = 1.0000    scale energy and forces
   NPACO  =    256;   APACO  = 16.0  distance and # of slots for P.C.
   PSTRESS=    0.0 pullay stress

  Mass of Ions in am
   POMASS =   7.01
  Ionic Valenz
   ZVAL   =   3.00
  Atomic Wigner-Seitz radii
   RWIGS  =  -1.00
  virtual crystal weights 
   VCA    =   1.00
   NELECT =       3.0000    total number of electrons
   NUPDOWN=      -1.0000    fix difference up-down

 DOS related values:
   EMIN   =  10.00;   EMAX   =-10.00  energy-range for DOS
   EFERMI =   0.00
   ISMEAR =     1;   SIGMA  =   0.20  broadening in eV -4-tet -1-fermi 0-gaus

 Electronic relaxation 2 (details)
   IALGO  =     68    algorithm
   LDIAG  =      T    sub-space diagonalisation (order eigenvalues)
   LSUBROT=      F    optimize rotation matrix (better conditioning)
   TURBO    =      0    0=normal 1=particle mesh
   IRESTART =      0    0=no restart 2=restart with 2 vectors
   NREBOOT  =      0    no. of reboots
   NMIN     =      0    reboot dimension
   EREF     =   0.00    reference energy to select bands
   IMIX   =      4    mixing-type and parameters
     AMIX     =   0.40;   BMIX     =  1.00
     AMIX_MAG =   1.60;   BMIX_MAG =  1.00
     AMIN     =   0.10
     WC   =   100.;   INIMIX=   1;  MIXPRE=   1;  MAXMIX= -45

 Intra band minimization:
   WEIMIN = 0.0010     energy-eigenvalue tresh-hold
   EBREAK =  0.31E-06  absolut break condition
   DEPER  =   0.30     relativ break condition  

   TIME   =   0.40     timestep for ELM

  volume/ion in A,a.u.               =      20.12       135.78
  Fermi-wavevector in a.u.,A,eV,Ry     =   0.868096  1.640463 10.253213  0.753590
  Thomas-Fermi vector in A             =   1.986725
 
 Write flags
   LWAVE        =      F    write WAVECAR
   LDOWNSAMPLE  =      F    k-point downsampling of WAVECAR
   LCHARG       =      F    write CHGCAR
   LVTOT        =      F    write LOCPOT, total local potential
   LVHAR        =      F    write LOCPOT, Hartree potential only
   LELF         =      F    write electronic localiz. function (ELF)
   LORBIT       =     11    0 simple, 1 ext, 2 COOP (PROOUT), +10 PAW based schemes


 Dipole corrections
   LMONO  =      F    monopole corrections only (constant potential shift)
   LDIPOL =      F    correct potential (dipole corrections)
   IDIPOL =      0    1-x, 2-y, 3-z, 4-all directions 
   EPSILON=  1.0000000 bulk dielectric constant

 Exchange correlation treatment:
   GGA     =    --    GGA type
   LEXCH   =     8    internal setting for exchange type
   VOSKOWN=      0    Vosko Wilk Nusair interpolation
   LHFCALC =     F    Hartree Fock is set to
   LHFONE  =     F    Hartree Fock one center treatment
   AEXX    =    0.0000 exact exchange contribution

 Linear response parameters
   LEPSILON=     F    determine dielectric tensor
   LRPA    =     F    only Hartree local field effects (RPA)
   LNABLA  =     F    use nabla operator in PAW spheres
   LVEL    =     F    velocity operator in full k-point grid
   LINTERFAST=   F  fast interpolation
   KINTER  =     0    interpolate to denser k-point grid
   CSHIFT  =0.1000    complex shift for real part using Kramers Kronig
   OMEGAMAX=  -1.0    maximum frequency
   DEG_THRESHOLD= 0.2000000E-02 threshold for treating states as degnerate
   RTIME   =   -0.100 relaxation time in fs
  (WPLASMAI=    0.000 imaginary part of plasma frequency in eV, 0.658/RTIME)
   DFIELD  = 0.0000000 0.0000000 0.0000000 field for delta impulse in time
 
 Orbital magnetization related:
   ORBITALMAG=     F  switch on orbital magnetization
   LCHIMAG   =     F  perturbation theory with respect to B field
   DQ        =  0.001000  dq finite difference perturbation B field
   LLRAUG    =     F  two centre corrections for induced B field



--------------------------------------------------------------------------------------------------------


 conjugate gradient relaxation of ions
 charge density and potential will be updated during run
 spin polarized calculation
 RMM-DIIS sequential band-by-band and
  variant of blocked Davidson during initial phase
 perform sub-space diagonalisation
    before iterative eigenvector-optimisation
 modified Broyden-mixing scheme, WC =      100.0
 initial mixing is a Kerker type mixing with AMIX =  0.4000 and BMIX =      1.0000
 Hartree-type preconditioning will be used
 using additional bands            6
 real space projection scheme for non local part
 calculate Harris-corrections to forces 
   (improved forces if not selfconsistent)
 use gradient corrections 
 use of overlap-Matrix (Vanderbilt PP)
 Methfessel and Paxton  Order N= 1 SIGMA  =   0.20


--------------------------------------------------------------------------------------------------------


  energy-cutoff  :      520.00
  volume of cell :       20.12
      direct lattice vectors                 reciprocal lattice vectors
    -1.713409000  1.713409000  1.713409000     0.000000000  0.291815906  0.291815906
     1.713409000 -1.713409000  1.713409000     0.291815906  0.000000000  0.291815906
     1.713409000  1.713409000 -1.713409000     0.291815906  0.291815906  0.000000000

  length of vectors
     2.967711442  2.967711442  2.967711442     0.412690012  0.412690012  0.412690012


 
 k-points in units of 2pi/SCALE and weight: Fully automatic kpoint scheme           
   0.00000000  0.00000000  0.00000000       0.000
   0.00000000  0.02244738  0.02244738       0.005
   0.00000000  0.04489475  0.04489475       0.005
   0.00000000  0.06734213  0.06734213       0.005
   0.00000000  0.08978951  0.08978951       0.005
   0.00000000  0.11223689  0.11223689       0.005
   0.00000000  0.13468426  0.13468426       0.005
   0.02244738  0.02244738  0.04489475       0.011
   0.02244738  0.04489475  0.06734213       0.022
   0.02244738  0.06734213  0.08978951       0.022
   0.02244738  0.08978951  0.11223689       0.022
   0.02244738  0.11223689  0.13468426       0.022
   0.02244738  0.13468426  0.15713164       0.011
   0.04489475  0.04489475  0.08978951       0.011
   0.04489475  0.06734213  0.11223689       0.022
   0.04489475  0.08978951  0.13468426       0.022
   0.04489475  0.11223689  0.15713164       0.022
   0.06734213  0.06734213  0.13468426       0.011
   0.06734213  0.08978951  0.15713164       0.022
   0.06734213  0.11223689  0.17957902       0.011
   0.08978951  0.08978951  0.17957902       0.011
   0.04489475  0.04489475  0.04489475       0.004
   0.04489475  0.06734213  0.06734213       0.011
   0.04489475  0.08978951  0.08978951       0.011
   0.04489475  0.11223689  0.11223689       0.011
   0.04489475  0.13468426  0.13468426       0.011
   0.04489475  0.00000000  0.00000000       0.003
   0.06734213  0.06734213  0.08978951       0.011
   0.06734213  0.08978951  0.11223689       0.022
   0.06734213  0.11223689  0.13468426       0.022
   0.06734213  0.13468426  0.15713164       0.011
   0.06734213 -0.02244738  0.00000000       0.011
   0.08978951  0.08978951  0.13468426       0.011
   0.08978951  0.11223689  0.15713164       0.022
   0.08978951 -0.04489475  0.00000000       0.011
   0.08978951 -0.02244738  0.02244738       0.011
   0.11223689  0.11223689  0.17957902       0.004
   0.11223689 -0.06734213  0.00000000       0.011
   0.11223689 -0.04489475  0.02244738       0.022
   0.13468426 -0.08978951  0.00000000       0.011
   0.13468426 -0.06734213  0.02244738       0.022
   0.13468426 -0.04489475  0.04489475       0.011
   0.15713164 -0.11223689  0.00000000       0.011
   0.15713164 -0.08978951  0.02244738       0.022
   0.15713164 -0.06734213  0.04489475       0.022
  -0.11223689 -0.11223689 -0.26936853       0.011
  -0.11223689 -0.08978951 -0.24692115       0.022
  -0.11223689 -0.06734213 -0.22447377       0.011
  -0.08978951 -0.08978951 -0.22447377       0.011
   0.08978951  0.08978951  0.08978951       0.004
   0.08978951  0.11223689  0.11223689       0.011
   0.08978951  0.13468426  0.13468426       0.011
   0.08978951  0.00000000  0.00000000       0.003
   0.11223689  0.11223689  0.13468426       0.011
   0.11223689  0.13468426  0.15713164       0.011
   0.11223689 -0.02244738  0.00000000       0.011
   0.13468426 -0.04489475  0.00000000       0.011
   0.13468426 -0.02244738  0.02244738       0.011
   0.15713164 -0.06734213  0.00000000       0.011
   0.15713164 -0.04489475  0.02244738       0.022
   0.17957902 -0.08978951  0.00000000       0.011
   0.17957902 -0.06734213  0.02244738       0.022
   0.17957902 -0.04489475  0.04489475       0.011
  -0.08978951 -0.08978951 -0.26936853       0.011
  -0.08978951 -0.06734213 -0.24692115       0.022
  -0.06734213 -0.06734213 -0.22447377       0.004
   0.13468426  0.13468426  0.13468426       0.004
   0.13468426  0.00000000  0.00000000       0.003
   0.15713164 -0.02244738  0.00000000       0.011
   0.17957902 -0.04489475  0.00000000       0.011
   0.17957902 -0.02244738  0.02244738       0.011
   0.20202640 -0.06734213  0.00000000       0.011
   0.20202640 -0.04489475  0.02244738       0.022
  -0.06734213 -0.06734213 -0.26936853       0.011
  -0.06734213 -0.04489475 -0.24692115       0.011
   0.17957902  0.00000000  0.00000000       0.003
   0.20202640 -0.02244738  0.00000000       0.011
   0.22447377 -0.04489475  0.00000000       0.011
   0.22447377 -0.02244738  0.02244738       0.011
  -0.04489475 -0.04489475 -0.26936853       0.011
   0.22447377  0.00000000  0.00000000       0.003
   0.24692115 -0.02244738  0.00000000       0.011
  -0.02244738 -0.02244738 -0.26936853       0.004
   0.26936853  0.00000000  0.00000000       0.003
 
 k-points in reciprocal lattice and weights: Fully automatic kpoint scheme           
   0.00000000  0.00000000  0.00000000       0.000
   0.07692308  0.00000000  0.00000000       0.005
   0.15384615  0.00000000  0.00000000       0.005
   0.23076923  0.00000000  0.00000000       0.005
   0.30769231  0.00000000  0.00000000       0.005
   0.38461538  0.00000000  0.00000000       0.005
   0.46153846  0.00000000  0.00000000       0.005
   0.07692308  0.07692308  0.00000000       0.011
   0.15384615  0.07692308  0.00000000       0.022
   0.23076923  0.07692308  0.00000000       0.022
   0.30769231  0.07692308  0.00000000       0.022
   0.38461538  0.07692308  0.00000000       0.022
   0.46153846  0.07692308  0.00000000       0.011
   0.15384615  0.15384615  0.00000000       0.011
   0.23076923  0.15384615  0.00000000       0.022
   0.30769231  0.15384615  0.00000000       0.022
   0.38461538  0.15384615  0.00000000       0.022
   0.23076923  0.23076923  0.00000000       0.011
   0.30769231  0.23076923  0.00000000       0.022
   0.38461538  0.23076923  0.00000000       0.011
   0.30769231  0.30769231  0.00000000       0.011
   0.07692308  0.07692308  0.07692308       0.004
   0.15384615  0.07692308  0.07692308       0.011
   0.23076923  0.07692308  0.07692308       0.011
   0.30769231  0.07692308  0.07692308       0.011
   0.38461538  0.07692308  0.07692308       0.011
  -0.07692308  0.07692308  0.07692308       0.003
   0.15384615  0.15384615  0.07692308       0.011
   0.23076923  0.15384615  0.07692308       0.022
   0.30769231  0.15384615  0.07692308       0.022
   0.38461538  0.15384615  0.07692308       0.011
  -0.15384615  0.15384615  0.07692308       0.011
   0.23076923  0.23076923  0.07692308       0.011
   0.30769231  0.23076923  0.07692308       0.022
  -0.23076923  0.23076923  0.07692308       0.011
  -0.15384615  0.23076923  0.07692308       0.011
   0.30769231  0.30769231  0.07692308       0.004
  -0.30769231  0.30769231  0.07692308       0.011
  -0.23076923  0.30769231  0.07692308       0.022
  -0.38461538  0.38461538  0.07692308       0.011
  -0.30769231  0.38461538  0.07692308       0.022
  -0.23076923  0.38461538  0.07692308       0.011
  -0.46153846  0.46153846  0.07692308       0.011
  -0.38461538  0.46153846  0.07692308       0.022
  -0.30769231  0.46153846  0.07692308       0.022
  -0.46153846 -0.46153846  0.07692308       0.011
  -0.38461538 -0.46153846  0.07692308       0.022
  -0.30769231 -0.46153846  0.07692308       0.011
  -0.38461538 -0.38461538  0.07692308       0.011
   0.15384615  0.15384615  0.15384615       0.004
   0.23076923  0.15384615  0.15384615       0.011
   0.30769231  0.15384615  0.15384615       0.011
  -0.15384615  0.15384615  0.15384615       0.003
   0.23076923  0.23076923  0.15384615       0.011
   0.30769231  0.23076923  0.15384615       0.011
  -0.23076923  0.23076923  0.15384615       0.011
  -0.30769231  0.30769231  0.15384615       0.011
  -0.23076923  0.30769231  0.15384615       0.011
  -0.38461538  0.38461538  0.15384615       0.011
  -0.30769231  0.38461538  0.15384615       0.022
  -0.46153846  0.46153846  0.15384615       0.011
  -0.38461538  0.46153846  0.15384615       0.022
  -0.30769231  0.46153846  0.15384615       0.011
  -0.46153846 -0.46153846  0.15384615       0.011
  -0.38461538 -0.46153846  0.15384615       0.022
  -0.38461538 -0.38461538  0.15384615       0.004
   0.23076923  0.23076923  0.23076923       0.004
  -0.23076923  0.23076923  0.23076923       0.003
  -0.30769231  0.30769231  0.23076923       0.011
  -0.38461538  0.38461538  0.23076923       0.011
  -0.30769231  0.38461538  0.23076923       0.011
  -0.46153846  0.46153846  0.23076923       0.011
  -0.38461538  0.46153846  0.23076923       0.022
  -0.46153846 -0.46153846  0.23076923       0.011
  -0.38461538 -0.46153846  0.23076923       0.011
  -0.30769231  0.30769231  0.30769231       0.003
  -0.38461538  0.38461538  0.30769231       0.011
  -0.46153846  0.46153846  0.30769231       0.011
  -0.38461538  0.46153846  0.30769231       0.011
  -0.46153846 -0.46153846  0.30769231       0.011
  -0.38461538  0.38461538  0.38461538       0.003
  -0.46153846  0.46153846  0.38461538       0.011
  -0.46153846 -0.46153846  0.38461538       0.004
  -0.46153846  0.46153846  0.46153846       0.003
 
 position of ions in fractional coordinates (direct lattice) 
   0.00000000  0.00000000  0.00000000
 
 position of ions in cartesian coordinates  (Angst):
   0.00000000  0.00000000  0.00000000
 


--------------------------------------------------------------------------------------------------------


 k-point  1 :   0.0000 0.0000 0.0000  plane waves:     555
 k-point  2 :   0.0769 0.0000 0.0000  plane waves:     547
 k-point  3 :   0.1538 0.0000 0.0000  plane waves:     555
 k-point  4 :   0.2308 0.0000 0.0000  plane waves:     551
 k-point  5 :   0.3077 0.0000 0.0000  plane waves:     545
 k-point  6 :   0.3846 0.0000 0.0000  plane waves:     539
 k-point  7 :   0.4615 0.0000 0.0000  plane waves:     537
 k-point  8 :   0.0769 0.0769 0.0000  plane waves:     555
 k-point  9 :   0.1538 0.0769 0.0000  plane waves:     548
 k-point 10 :   0.2308 0.0769 0.0000  plane waves:     548
 k-point 11 :   0.3077 0.0769 0.0000  plane waves:     548
 k-point 12 :   0.3846 0.0769 0.0000  plane waves:     538
 k-point 13 :   0.4615 0.0769 0.0000  plane waves:     538
 k-point 14 :   0.1538 0.1538 0.0000  plane waves:     544
 k-point 15 :   0.2308 0.1538 0.0000  plane waves:     547
 k-point 16 :   0.3077 0.1538 0.0000  plane waves:     544
 k-point 17 :   0.3846 0.1538 0.0000  plane waves:     538
 k-point 18 :   0.2308 0.2308 0.0000  plane waves:     539
 k-point 19 :   0.3077 0.2308 0.0000  plane waves:     538
 k-point 20 :   0.3846 0.2308 0.0000  plane waves:     539
 k-point 21 :   0.3077 0.3077 0.0000  plane waves:     543
 k-point 22 :   0.0769 0.0769 0.0769  plane waves:     549
 k-point 23 :   0.1538 0.0769 0.0769  plane waves:     545
 k-point 24 :   0.2308 0.0769 0.0769  plane waves:     540
 k-point 25 :   0.3077 0.0769 0.0769  plane waves:     539
 k-point 26 :   0.3846 0.0769 0.0769  plane waves:     537
 k-point 27 :  -0.0769 0.0769 0.0769  plane waves:     555
 k-point 28 :   0.1538 0.1538 0.0769  plane waves:     535
 k-point 29 :   0.2308 0.1538 0.0769  plane waves:     537
 k-point 30 :   0.3077 0.1538 0.0769  plane waves:     539
 k-point 31 :   0.3846 0.1538 0.0769  plane waves:     539
 k-point 32 :  -0.1538 0.1538 0.0769  plane waves:     552
 k-point 33 :   0.2308 0.2308 0.0769  plane waves:     538
 k-point 34 :   0.3077 0.2308 0.0769  plane waves:     540
 k-point 35 :  -0.2308 0.2308 0.0769  plane waves:     551
 k-point 36 :  -0.1538 0.2308 0.0769  plane waves:     554
 k-point 37 :   0.3077 0.3077 0.0769  plane waves:     535
 k-point 38 :  -0.3077 0.3077 0.0769  plane waves:     544
 k-point 39 :  -0.2308 0.3077 0.0769  plane waves:     546
 k-point 40 :  -0.3846 0.3846 0.0769  plane waves:     543
 k-point 41 :  -0.3077 0.3846 0.0769  plane waves:     548
 k-point 42 :  -0.2308 0.3846 0.0769  plane waves:     548
 k-point 43 :  -0.4615 0.4615 0.0769  plane waves:     539
 k-point 44 :  -0.3846 0.4615 0.0769  plane waves:     542
 k-point 45 :  -0.3077 0.4615 0.0769  plane waves:     542
 k-point 46 :  -0.4615-0.4615 0.0769  plane waves:     540
 k-point 47 :  -0.3846-0.4615 0.0769  plane waves:     539
 k-point 48 :  -0.3077-0.4615 0.0769  plane waves:     545
 k-point 49 :  -0.3846-0.3846 0.0769  plane waves:     541
 k-point 50 :   0.1538 0.1538 0.1538  plane waves:     537
 k-point 51 :   0.2308 0.1538 0.1538  plane waves:     535
 k-point 52 :   0.3077 0.1538 0.1538  plane waves:     533
 k-point 53 :  -0.1538 0.1538 0.1538  plane waves:     555
 k-point 54 :   0.2308 0.2308 0.1538  plane waves:     533
 k-point 55 :   0.3077 0.2308 0.1538  plane waves:     537
 k-point 56 :  -0.2308 0.2308 0.1538  plane waves:     548
 k-point 57 :  -0.3077 0.3077 0.1538  plane waves:     549
 k-point 58 :  -0.2308 0.3077 0.1538  plane waves:     548
 k-point 59 :  -0.3846 0.3846 0.1538  plane waves:     547
 k-point 60 :  -0.3077 0.3846 0.1538  plane waves:     541
 k-point 61 :  -0.4615 0.4615 0.1538  plane waves:     534
 k-point 62 :  -0.3846 0.4615 0.1538  plane waves:     547
 k-point 63 :  -0.3077 0.4615 0.1538  plane waves:     540
 k-point 64 :  -0.4615-0.4615 0.1538  plane waves:     540
 k-point 65 :  -0.3846-0.4615 0.1538  plane waves:     545
 k-point 66 :  -0.3846-0.3846 0.1538  plane waves:     541
 k-point 67 :   0.2308 0.2308 0.2308  plane waves:     535
 k-point 68 :  -0.2308 0.2308 0.2308  plane waves:     546
 k-point 69 :  -0.3077 0.3077 0.2308  plane waves:     544
 k-point 70 :  -0.3846 0.3846 0.2308  plane waves:     545
 k-point 71 :  -0.3077 0.3846 0.2308  plane waves:     538
 k-point 72 :  -0.4615 0.4615 0.2308  plane waves:     542
 k-point 73 :  -0.3846 0.4615 0.2308  plane waves:     538
 k-point 74 :  -0.4615-0.4615 0.2308  plane waves:     533
 k-point 75 :  -0.3846-0.4615 0.2308  plane waves:     535
 k-point 76 :  -0.3077 0.3077 0.3077  plane waves:     538
 k-point 77 :  -0.3846 0.3846 0.3077  plane waves:     534
 k-point 78 :  -0.4615 0.4615 0.3077  plane waves:     537
 k-point 79 :  -0.3846 0.4615 0.3077  plane waves:     532
 k-point 80 :  -0.4615-0.4615 0.3077  plane waves:     535
 k-point 81 :  -0.3846 0.3846 0.3846  plane waves:     534
 k-point 82 :  -0.4615 0.4615 0.3846  plane waves:     532
 k-point 83 :  -0.4615-0.4615 0.3846  plane waves:     532
 k-point 84 :  -0.4615 0.4615 0.4615  plane waves:     518

 maximum and minimum number of plane-waves per node :       113       79

 maximum number of plane-waves:       555
 maximum index in each direction: 
   IXMAX=    5   IYMAX=    5   IZMAX=    5
   IXMIN=   -5   IYMIN=   -5   IZMIN=   -5


 real space projection operators:
  total allocation   :        135.90 KBytes
  max/ min on nodes  :         23.59         22.19


 parallel 3D FFT for wavefunctions:
    minimum data exchange during FFTs selected (reduces bandwidth)
 parallel 3D FFT for charge:
    minimum data exchange during FFTs selected (reduces bandwidth)


 total amount of memory used by VASP MPI-rank0    31407. kBytes
=======================================================================

   base      :      30000. kBytes
   nonlr-proj:         89. kBytes
   fftplans  :        228. kBytes
   grid      :        529. kBytes
   one-center:          2. kBytes
   wavefun   :        559. kBytes
 
     INWAV:  cpu time    0.0000: real time    0.0000
 Broyden mixing: mesh for mixing (old mesh)
   NGX = 11   NGY = 11   NGZ = 11
  (NGX  = 48   NGY  = 48   NGZ  = 48)
  gives a total of   1331 points

 initial charge density was supplied:
 charge density of overlapping atoms calculated
 number of electron       3.0000000 magnetization       0.0000000
 keeping initial charge density in first step


--------------------------------------------------------------------------------------------------------


 Maximum index for non-local projection operator          587
 Maximum index for augmentation-charges          437 (set IRDMAX)


--------------------------------------------------------------------------------------------------------


 First call to EWALD:  gamma=   0.652
 Maximum number of real-space cells 3x 3x 3
 Maximum number of reciprocal cells 3x 3x 3

    FEWALD:  cpu time    0.0023: real time    0.0055


--------------------------------------- Iteration      1(   1)  ---------------------------------------


    POTLOK:  cpu time    0.0413: real time    0.1118
    SETDIJ:  cpu time    0.2159: real time    0.2214
     EDDAV:  cpu time    0.3033: real time    0.3259
       DOS:  cpu time    0.0051: real time    0.0114
    --------------------------------------------
      LOOP:  cpu time    0.5657: real time    0.6706

 eigenvalue-minimisations  :  2736
 total energy-change (2. order) :-0.2052736E+00  (-0.7216894E+02)
 number of electron       3.0000000 magnetization       0.0000000
 augmentation part        3.0000000 magnetization       0.0000000

 Free energy of the ion-electron system (eV)
  ---------------------------------------------------
  alpha Z        PSCENC =         1.14408901
  Ewald energy   TEWEN  =       -68.81568908
  -Hartree energ DENC   =       -41.77558993
  -exchange      EXHF   =         0.00000000
  -V(xc)+E(xc)   XCENC  =        12.11293580
  PAW double counting   =        79.76162584      -95.16706656
  entropy T*S    EENTRO =         0.00035646
  eigenvalues    EBANDS =       -90.23878207
  atomic energy  EATOM  =       202.77284695
  Solvation  Ediel_sol  =         0.00000000
  ---------------------------------------------------
  free energy    TOTEN  =        -0.20527359 eV

  energy without entropy =       -0.20563005  energy(sigma->0) =       -0.20539241


--------------------------------------------------------------------------------------------------------




--------------------------------------- Iteration      1(   2)  ---------------------------------------


     EDDAV:  cpu time    0.4129: real time    0.4158
       DOS:  cpu time    0.0012: real time    0.0012
    --------------------------------------------
      LOOP:  cpu time    0.4140: real time    0.4170

 eigenvalue-minimisations  :  3968
 total energy-change (2. order) :-0.1681615E+01  (-0.1634088E+01)
 number of electron       3.0000000 magnetization       0.0000000
 augmentation part        3.0000000 magnetization       0.0000000

 Free energy of the ion-electron system (eV)
  ---------------------------------------------------
  alpha Z        PSCENC =         1.14408901
  Ewald energy   TEWEN  =       -68.81568908
  -Hartree energ DENC   =       -41.77558993
  -exchange      EXHF   =         0.00000000
  -V(xc)+E(xc)   XCENC  =        12.11293580
  PAW double counting   =        79.76162584      -95.16706656
  entropy T*S    EENTRO =         0.00054357
  eigenvalues    EBANDS =       -91.92058388
  atomic energy  EATOM  =       202.77284695
  Solvation  Ediel_sol  =         0.00000000
  ---------------------------------------------------
  free energy    TOTEN  =        -1.88688829 eV

  energy without entropy =       -1.88743186  energy(sigma->0) =       -1.88706948


--------------------------------------------------------------------------------------------------------




--------------------------------------- Iteration      1(   3)  ---------------------------------------


     EDDAV:  cpu time    0.3201: real time    0.3208
       DOS:  cpu time    0.0012: real time    0.0012
    --------------------------------------------
      LOOP:  cpu time    0.3212: real time    0.3219

 eigenvalue-minimisations  :  3008
 total energy-change (2. order) :-0.1907498E-01  (-0.1906556E-01)
 number of electron       3.0000000 magnetization       0.0000000
 augmentation part        3.0000000 magnetization       0.0000000

 Free energy of the ion-electron system (eV)
  ---------------------------------------------------
  alpha Z        PSCENC =         1.14408901
  Ewald energy   TEWEN  =       -68.81568908
  -Hartree energ DENC   =       -41.77558993
  -exchange      EXHF   =         0.00000000
  -V(xc)+E(xc)   XCENC  =        12.11293580
  PAW double counting   =        79.76162584      -95.16706656
  entropy T*S    EENTRO =         0.00050748
  eigenvalues    EBANDS =       -91.93962277
  atomic energy  EATOM  =       202.77284695
  Solvation  Ediel_sol  =         0.00000000
  ---------------------------------------------------
  free energy    TOTEN  =        -1.90596326 eV

  energy without entropy =       -1.90647074  energy(sigma->0) =       -1.90613242


--------------------------------------------------------------------------------------------------------




--------------------------------------- Iteration      1(   4)  ---------------------------------------


     EDDAV:  cpu time    0.4135: real time    0.4141
       DOS:  cpu time    0.0012: real time    0.0012
    --------------------------------------------
      LOOP:  cpu time    0.4147: real time    0.4153

 eigenvalue-minimisations  :  4000
 total energy-change (2. order) :-0.4807032E-03  (-0.4806997E-03)
 number of electron       3.0000000 magnetization       0.0000000
 augmentation part        3.0000000 magnetization       0.0000000

 Free energy of the ion-electron system (eV)
  ---------------------------------------------------
  alpha Z        PSCENC =         1.14408901
  Ewald energy   TEWEN  =       -68.81568908
  -Hartree energ DENC   =       -41.77558993
  -exchange      EXHF   =         0.00000000
  -V(xc)+E(xc)   XCENC  =        12.11293580
  PAW double counting   =        79.76162584      -95.16706656
  entropy T*S    EENTRO =         0.00050741
  eigenvalues    EBANDS =       -91.94010340
  atomic energy  EATOM  =       202.77284695
  Solvation  Ediel_sol  =         0.00000000
  ---------------------------------------------------
  free energy    TOTEN  =        -1.90644397 eV

  energy without entropy =       -1.90695138  energy(sigma->0) =       -1.90661310


--------------------------------------------------------------------------------------------------------




--------------------------------------- Iteration      1(   5)  ---------------------------------------


     EDDAV:  cpu time    0.3338: real time    0.3340
       DOS:  cpu time    0.0013: real time    0.0011
    CHARGE:  cpu time    0.0155: real time    0.0289
    MIXING:  cpu time    0.0055: real time    0.0118
    --------------------------------------------
      LOOP:  cpu time    0.3560: real time    0.3759

 eigenvalue-minimisations  :  3224
 total energy-change (2. order) :-0.1757743E-04  (-0.1757734E-04)
 number of electron       3.0000002 magnetization      -0.0000000
 augmentation part        0.9250546 magnetization      -0.0000024

 Broyden mixing:
  rms(total) = 0.20988E-01    rms(broyden)= 0.20925E-01
  rms(prec ) = 0.74748E-01
  weight for this iteration     100.00

 Free energy of the ion-electron system (eV)
  ---------------------------------------------------
  alpha Z        PSCENC =         1.14408901
  Ewald energy   TEWEN  =       -68.81568908
  -Hartree energ DENC   =       -41.77558993
  -exchange      EXHF   =         0.00000000
  -V(xc)+E(xc)   XCENC  =        12.11293580
  PAW double counting   =        79.76162584      -95.16706656
  entropy T*S    EENTRO =         0.00050741
  eigenvalues    EBANDS =       -91.94012098
  atomic energy  EATOM  =       202.77284695
  Solvation  Ediel_sol  =         0.00000000
  ---------------------------------------------------
  free energy    TOTEN  =        -1.90646154 eV

  energy without entropy =       -1.90696896  energy(sigma->0) =       -1.90663068


--------------------------------------------------------------------------------------------------------




--------------------------------------- Iteration      1(   6)  ---------------------------------------


    POTLOK:  cpu time    0.0063: real time    0.0070
    SETDIJ:  cpu time    0.2363: real time    0.2365
    EDDIAG:  cpu time    0.1512: real time    0.2081
  RMM-DIIS:  cpu time    0.1783: real time    0.1824
    ORTHCH:  cpu time    0.0107: real time    0.0111
       DOS:  cpu time    0.0011: real time    0.0011
    CHARGE:  cpu time    0.0093: real time    0.0092
    MIXING:  cpu time    0.0009: real time    0.0028
    --------------------------------------------
      LOOP:  cpu time    0.5940: real time    0.6581

 eigenvalue-minimisations  :  2807
 total energy-change (2. order) : 0.1103288E-02  (-0.1608867E-04)
 number of electron       3.0000002 magnetization      -0.0000028
 augmentation part        0.9241093 magnetization      -0.0000066

 Broyden mixing:
  rms(total) = 0.12532E-01    rms(broyden)= 0.12526E-01
  rms(prec ) = 0.46960E-01
  weight for this iteration     100.00

 eigenvalues of (default mixing * dielectric matrix)
  average eigenvalue GAMMA=   2.4237
  2.4237

 Free energy of the ion-electron system (eV)
  ---------------------------------------------------
  alpha Z        PSCENC =         1.14408901
  Ewald energy   TEWEN  =       -68.81568908
  -Hartree energ DENC   =       -41.53383105
  -exchange      EXHF   =         0.00000000
  -V(xc)+E(xc)   XCENC  =        12.09376765
  PAW double counting   =        80.14019656      -95.56660690
  entropy T*S    EENTRO =         0.00050483
  eigenvalues    EBANDS =       -92.14063623
  atomic energy  EATOM  =       202.77284695
  Solvation  Ediel_sol  =         0.00000000
  ---------------------------------------------------
  free energy    TOTEN  =        -1.90535826 eV

  energy without entropy =       -1.90586308  energy(sigma->0) =       -1.90552653


--------------------------------------------------------------------------------------------------------




--------------------------------------- Iteration      1(   7)  ---------------------------------------


    POTLOK:  cpu time    0.0062: real time    0.0063
    SETDIJ:  cpu time    0.2365: real time    0.2367
    EDDIAG:  cpu time    0.1128: real time    0.1129
  RMM-DIIS:  cpu time    0.1222: real time    0.1223
    ORTHCH:  cpu time    0.0094: real time    0.0094
       DOS:  cpu time    0.0012: real time    0.0011
    CHARGE:  cpu time    0.0092: real time    0.0092
    MIXING:  cpu time    0.0009: real time    0.0004
    --------------------------------------------
      LOOP:  cpu time    0.4985: real time    0.4983

 eigenvalue-minimisations  :  2810
 total energy-change (2. order) : 0.5121197E-03  (-0.6552432E-04)
 number of electron       3.0000002 magnetization      -0.0000034
 augmentation part        0.9221458 magnetization      -0.0000027

 Broyden mixing:
  rms(total) = 0.23618E-02    rms(broyden)= 0.23288E-02
  rms(prec ) = 0.44353E-02
  weight for this iteration     100.00

 eigenvalues of (default mixing * dielectric matrix)
  average eigenvalue GAMMA=   2.9856
  2.9856  2.9856

 Free energy of the ion-electron system (eV)
  ---------------------------------------------------
  alpha Z        PSCENC =         1.14408901
  Ewald energy   TEWEN  =       -68.81568908
  -Hartree energ DENC   =       -41.13843704
  -exchange      EXHF   =         0.00000000
  -V(xc)+E(xc)   XCENC  =        12.06290459
  PAW double counting   =        80.83082687      -96.29270295
  entropy T*S    EENTRO =         0.00049855
  eigenvalues    EBANDS =       -92.46918303
  atomic energy  EATOM  =       202.77284695
  Solvation  Ediel_sol  =         0.00000000
  ---------------------------------------------------
  free energy    TOTEN  =        -1.90484614 eV

  energy without entropy =       -1.90534469  energy(sigma->0) =       -1.90501232


--------------------------------------------------------------------------------------------------------




--------------------------------------- Iteration      1(   8)  ---------------------------------------


    POTLOK:  cpu time    0.0061: real time    0.0068
    SETDIJ:  cpu time    0.2358: real time    0.2359
    EDDIAG:  cpu time    0.1108: real time    0.1109
  RMM-DIIS:  cpu time    0.1120: real time    0.1121
    ORTHCH:  cpu time    0.0095: real time    0.0095
       DOS:  cpu time    0.0011: real time    0.0011
    CHARGE:  cpu time    0.0091: real time    0.0091
    MIXING:  cpu time    0.0004: real time    0.0004
    --------------------------------------------
      LOOP:  cpu time    0.4846: real time    0.4856

 eigenvalue-minimisations  :  2479
 total energy-change (2. order) :-0.1341848E-04  (-0.1101037E-04)
 number of electron       3.0000002 magnetization       0.0000068
 augmentation part        0.9214205 magnetization       0.0000026

 Broyden mixing:
  rms(total) = 0.27189E-03    rms(broyden)= 0.16675E-03
  rms(prec ) = 0.32075E-03
  weight for this iteration     100.00
  WARNING: grid for Broyden might be to small

 eigenvalues of (default mixing * dielectric matrix)
  average eigenvalue GAMMA=   2.3482
  1.1829  2.9309  2.9309

 Free energy of the ion-electron system (eV)
  ---------------------------------------------------
  alpha Z        PSCENC =         1.14408901
  Ewald energy   TEWEN  =       -68.81568908
  -Hartree energ DENC   =       -41.16136079
  -exchange      EXHF   =         0.00000000
  -V(xc)+E(xc)   XCENC  =        12.06720957
  PAW double counting   =        80.99002002      -96.45235302
  entropy T*S    EENTRO =         0.00049863
  eigenvalues    EBANDS =       -92.45012083
  atomic energy  EATOM  =       202.77284695
  Solvation  Ediel_sol  =         0.00000000
  ---------------------------------------------------
  free energy    TOTEN  =        -1.90485955 eV

  energy without entropy =       -1.90535819  energy(sigma->0) =       -1.90502576


--------------------------------------------------------------------------------------------------------




--------------------------------------- Iteration      1(   9)  ---------------------------------------


    POTLOK:  cpu time    0.0062: real time    0.0063
    SETDIJ:  cpu time    0.2361: real time    0.2363
    EDDIAG:  cpu time    0.1108: real time    0.1109
  RMM-DIIS:  cpu time    0.1007: real time    0.1008
    ORTHCH:  cpu time    0.0095: real time    0.0094
       DOS:  cpu time    0.0011: real time    0.0011
    --------------------------------------------
      LOOP:  cpu time    0.4645: real time    0.4648

 eigenvalue-minimisations  :  2178
 total energy-change (2. order) :-0.8716200E-06  (-0.2827829E-05)
 number of electron       3.0000002 magnetization       0.0000068
 augmentation part        0.9214205 magnetization       0.0000026

 Free energy of the ion-electron system (eV)
  ---------------------------------------------------
  alpha Z        PSCENC =         1.14408901
  Ewald energy   TEWEN  =       -68.81568908
  -Hartree energ DENC   =       -41.16069408
  -exchange      EXHF   =         0.00000000
  -V(xc)+E(xc)   XCENC  =        12.06724463
  PAW double counting   =        81.02162441      -96.48323220
  entropy T*S    EENTRO =         0.00049890
  eigenvalues    EBANDS =       -92.45154896
  atomic energy  EATOM  =       202.77284695
  Solvation  Ediel_sol  =         0.00000000
  ---------------------------------------------------
  free energy    TOTEN  =        -1.90486043 eV

  energy without entropy =       -1.90535933  energy(sigma->0) =       -1.90502673


--------------------------------------------------------------------------------------------------------




 average (electrostatic) potential at core
  the test charge radii are     0.7079
  (the norm of the test charge is              1.0000)
       1 -64.9573
 
 
 
 E-fermi :   0.7103     XC(G=0):  -7.0624     alpha+bet : -7.4341


 spin component 1

 k-point     1 :       0.0000    0.0000    0.0000
  band No.  band energies     occupation 
      1     -45.8739      1.00000
      2      -2.9234      1.00000
      3      15.3283      0.00000
      4      15.3283      0.00000
      5      15.3284      0.00000
      6      20.1151      0.00000
      7      20.1151      0.00000
      8      20.1151      0.00000

 k-point     2 :       0.0769    0.0000    0.0000
  band No.  band energies     occupation 
      1     -45.8728      1.00000
      2      -2.8109      1.00000
      3      14.5587      0.00000
      4      14.7817      0.00000
      5      15.1312      0.00000
      6      18.6318      0.00000
      7      18.8432      0.00000
      8      20.2152      0.00000

 k-point     3 :       0.1538    0.0000    0.0000
  band No.  band energies     occupation 
      1     -45.8696      1.00000
      2      -2.4741      1.00000
      3      12.4691      0.00000
      4      13.7355      0.00000
      5      14.5955      0.00000
      6      17.3787      0.00000
      7      17.6839      0.00000
      8      19.9242      0.00000

 k-point     4 :       0.2308    0.0000    0.0000
  band No.  band energies     occupation 
      1     -45.8652      1.00000
      2      -1.9129      1.00000
      3       9.9937      0.00000
      4      12.7293      0.00000
      5      13.9102      0.00000
      6      16.1832      0.00000
      7      17.4446      0.00000
      8      20.2540      0.00000

 k-point     5 :       0.3077    0.0000    0.0000
  band No.  band energies     occupation 
      1     -45.8604      1.00000
      2      -1.1357      1.00000
      3       7.6496      0.00000
      4      11.9257      0.00000
      5      13.2773      0.00000
      6      15.2818      0.00000
      7      17.5039      0.00000
      8      21.0315      0.00000

 k-point     6 :       0.3846    0.0000    0.0000
  band No.  band energies     occupation 
      1     -45.8564      1.00000
      2      -0.1853      1.00000
      3       5.6198     -0.00000
      4      11.3754      0.00000
      5      12.8136      0.00000
      6      14.6796      0.00000
      7      17.6879      0.00000
      8      22.1010      0.00000

 k-point     7 :       0.4615    0.0000    0.0000
  band No.  band energies     occupation 
      1     -45.8542      1.00000
      2       0.7145      0.48238
      3       4.1725     -0.00000
      4      11.0970      0.00000
      5      12.5718      0.00000
      6      14.3782      0.00000
      7      17.8421      0.00000
      8      23.1483      0.00000

 k-point     8 :       0.0769    0.0769    0.0000
  band No.  band energies     occupation 
      1     -45.8707      1.00000
      2      -2.5864      1.00000
      3      13.5662      0.00000
      4      13.5965      0.00000
      5      14.5163      0.00000
      6      17.8398      0.00000
      7      18.1129      0.00000
      8      19.9937      0.00000

 k-point     9 :       0.1538    0.0769    0.0000
  band No.  band energies     occupation 
      1     -45.8668      1.00000
      2      -2.1365      1.00000
      3      11.2532      0.00000
      4      12.5453      0.00000
      5      13.6950      0.00000
      6      17.4647      0.00000
      7      17.5322      0.00000
      8      20.1132      0.00000

 k-point    10 :       0.2308    0.0769    0.0000
  band No.  band energies     occupation 
      1     -45.8622      1.00000
      2      -1.4640      1.00000
      3       8.8229      0.00000
      4      11.6705      0.00000
      5      12.9072      0.00000
      6      16.7883      0.00000
      7      17.5275      0.00000
      8      20.6439      0.00000

 k-point    11 :       0.3077    0.0769    0.0000
  band No.  band energies     occupation 
      1     -45.8579      1.00000
      2      -0.5868      1.00000
      3       6.6197      0.00000
      4      11.0198      0.00000
      5      12.2885      0.00000
      6      16.1956      0.00000
      7      17.7401      0.00000
      8      21.5118      0.00000

 k-point    12 :       0.3846    0.0769    0.0000
  band No.  band energies     occupation 
      1     -45.8547      1.00000
      2       0.4030      1.02600
      3       4.8167     -0.00000
      4      10.6216      0.00000
      5      11.9012      0.00000
      6      15.8154      0.00000
      7      17.9936      0.00000
      8      22.5727      0.00000

 k-point    13 :       0.4615    0.0769    0.0000
  band No.  band energies     occupation 
      1     -45.8536      1.00000
      2       1.0010     -0.02968
      3       3.9451     -0.00000
      4      10.4877      0.00000
      5      11.7699      0.00000
      6      15.6855      0.00000
      7      18.1087      0.00000
      8      23.3759      0.00000

 k-point    14 :       0.1538    0.1538    0.0000
  band No.  band energies     occupation 
      1     -45.8628      1.00000
      2      -1.5731      1.00000
      3       9.7801      0.00000
      4      10.7641      0.00000
      5      12.8646      0.00000
      6      17.4709      0.00000
      7      17.9526      0.00000
      8      20.6466      0.00000

 k-point    15 :       0.2308    0.1538    0.0000
  band No.  band energies     occupation 
      1     -45.8586      1.00000
      2      -0.7890      1.00000
      3       7.6923      0.00000
      4       9.7936      0.00000
      5      12.2130      0.00000
      6      17.5259      0.00000
      7      18.1555      0.00000
      8      21.3755      0.00000

 k-point    16 :       0.3077    0.1538    0.0000
  band No.  band energies     occupation 
      1     -45.8551      1.00000
      2       0.1823      1.00061
      3       5.7072     -0.00000
      4       9.2331      0.00000
      5      11.7530      0.00000
      6      17.4245      0.00000
      7      18.5340      0.00000
      8      22.1137      0.00000

 k-point    17 :       0.3846    0.1538    0.0000
  band No.  band energies     occupation 
      1     -45.8531      1.00000
      2       1.1392     -0.00488
      3       4.2251     -0.00000
      4       8.9589      0.00000
      5      11.5159      0.00000
      6      17.3119      0.00000
      7      18.9304      0.00000
      8      22.6772      0.00000

 k-point    18 :       0.2308    0.2308    0.0000
  band No.  band energies     occupation 
      1     -45.8553      1.00000
      2       0.1044      1.00008
      3       6.3293      0.00000
      4       8.3868      0.00000
      5      11.7536      0.00000
      6      17.9812      0.00000
      7      18.8187      0.00000
      8      22.5560      0.00000

 k-point    19 :       0.3077    0.2308    0.0000
  band No.  band energies     occupation 
      1     -45.8529      1.00000
      2       1.1600     -0.00331
      3       4.7747     -0.00000
      4       7.7216      0.00000
      5      11.4683      0.00000
      6      18.3205      0.00000
      7      19.4693      0.00000
      8      22.3736      0.00000

 k-point    20 :       0.3846    0.2308    0.0000
  band No.  band energies     occupation 
      1     -45.8520      1.00000
      2       1.8952     -0.00000
      3       3.8377     -0.00000
      4       7.5308      0.00000
      5      11.3710      0.00000
      6      18.4100      0.00000
      7      20.1056      0.00000
      8      21.4106      0.00000

 k-point    21 :       0.3077    0.3077    0.0000
  band No.  band energies     occupation 
      1     -45.8517      1.00000
      2       2.2840     -0.00000
      3       3.6776     -0.00000
      4       6.9377      0.00000
      5      11.3264      0.00000
      6      19.2803      0.00000
      7      19.9475      0.00000
      8      20.9418      0.00000

 k-point    22 :       0.0769    0.0769    0.0769
  band No.  band energies     occupation 
      1     -45.8678      1.00000
      2      -2.2496      1.00000
      3      12.5275      0.00000
      4      12.5275      0.00000
      5      12.6888      0.00000
      6      18.1316      0.00000
      7      18.1316      0.00000
      8      21.5086      0.00000

 k-point    23 :       0.1538    0.0769    0.0769
  band No.  band energies     occupation 
      1     -45.8637      1.00000
      2      -1.6875      1.00000
      3      10.0723      0.00000
      4      11.5080      0.00000
      5      11.8616      0.00000
      6      18.2371      0.00000
      7      18.4362      0.00000
      8      21.3539      0.00000

 k-point    24 :       0.2308    0.0769    0.0769
  band No.  band energies     occupation 
      1     -45.8594      1.00000
      2      -0.9060      1.00000
      3       7.7321      0.00000
      4      10.6962      0.00000
      5      11.2151      0.00000
      6      18.0293      0.00000
      7      18.6611      0.00000
      8      21.6843      0.00000

 k-point    25 :       0.3077    0.0769    0.0769
  band No.  band energies     occupation 
      1     -45.8558      1.00000
      2       0.0590      1.00002
      3       5.6939     -0.00000
      4      10.1409      0.00000
      5      10.7695      0.00000
      6      17.7147      0.00000
      7      18.8901      0.00000
      8      22.5843      0.00000

 k-point    26 :       0.3846    0.0769    0.0769
  band No.  band energies     occupation 
      1     -45.8538      1.00000
      2       0.9984     -0.03021
      3       4.2103     -0.00000
      4       9.8601      0.00000
      5      10.5426      0.00000
      6      17.5169      0.00000
      7      19.0618      0.00000
      8      23.5842      0.00000

 k-point    27 :      -0.0769    0.0769    0.0769
  band No.  band energies     occupation 
      1     -45.8717      1.00000
      2      -2.6984      1.00000
      3      14.1656      0.00000
      4      14.1656      0.00000
      5      14.8440      0.00000
      6      17.6127      0.00000
      7      19.2900      0.00000
      8      19.2901      0.00000

 k-point    28 :       0.1538    0.1538    0.0769
  band No.  band energies     occupation 
      1     -45.8599      1.00000
      2      -1.0126      1.00000
      3       8.6717      0.00000
      4       9.6585      0.00000
      5      11.1487      0.00000
      6      19.0301      0.00000
      7      19.1504      0.00000
      8      22.1131      0.00000

 k-point    29 :       0.2308    0.1538    0.0769
  band No.  band energies     occupation 
      1     -45.8564      1.00000
      2      -0.1220      1.00000
      3       6.7015      0.00000
      4       8.7627      0.00000
      5      10.6580      0.00000
      6      19.3501      0.00000
      7      19.7169      0.00000
      8      22.7011      0.00000

 k-point    30 :       0.3077    0.1538    0.0769
  band No.  band energies     occupation 
      1     -45.8540      1.00000
      2       0.9158     -0.02774
      3       4.9045     -0.00000
      4       8.3087      0.00000
      5      10.3601      0.00000
      6      19.3452      0.00000
      7      20.1868      0.00000
      8      23.5335      0.00000

 k-point    31 :       0.3846    0.1538    0.0769
  band No.  band energies     occupation 
      1     -45.8531      1.00000
      2       1.5992     -0.00000
      3       3.9604     -0.00000
      4       8.1615      0.00000
      5      10.2602      0.00000
      6      19.3135      0.00000
      7      20.3888      0.00000
      8      24.2781      0.00000

 k-point    32 :      -0.1538    0.1538    0.0769
  band No.  band energies     occupation 
      1     -45.8686      1.00000
      2      -2.3601      1.00000
      3      12.4129      0.00000
      4      13.0479      0.00000
      5      14.4295      0.00000
      6      16.4727      0.00000
      7      18.3130      0.00000
      8      19.4976      0.00000

 k-point    33 :       0.2308    0.2308    0.0769
  band No.  band energies     occupation 
      1     -45.8540      1.00000
      2       0.8737      0.00576
      3       5.4595     -0.00000
      4       7.4522      0.00000
      5      10.3156      0.00000
      6      20.3451      0.00000
      7      20.5085      0.00000
      8      23.8366      0.00000

 k-point    34 :       0.3077    0.2308    0.0769
  band No.  band energies     occupation 
      1     -45.8527      1.00000
      2       1.9566     -0.00000
      3       4.1041     -0.00000
      4       6.9308      0.00000
      5      10.1446      0.00000
      6      20.6412      0.00000
      7      21.4003      0.00000
      8      23.6834      0.00000

 k-point    35 :      -0.2308    0.2308    0.0769
  band No.  band energies     occupation 
      1     -45.8642      1.00000
      2      -1.7967      1.00000
      3      10.0285      0.00000
      4      12.0036      0.00000
      5      13.8401      0.00000
      6      16.3012      0.00000
      7      17.1918      0.00000
      8      20.0317      0.00000

 k-point    36 :      -0.1538    0.2308    0.0769
  band No.  band energies     occupation 
      1     -45.8649      1.00000
      2      -1.9073      1.00000
      3      11.0462      0.00000
      4      11.5059      0.00000
      5      14.0244      0.00000
      6      15.6295      0.00000
      7      18.2294      0.00000
      8      19.9640      0.00000

 k-point    37 :       0.3077    0.3077    0.0769
  band No.  band energies     occupation 
      1     -45.8522      1.00000
      2       3.0891     -0.00000
      3       3.0891     -0.00000
      4       6.4279      0.00000
      5      10.0741      0.00000
      6      21.4101      0.00000
      7      22.3024      0.00000
      8      22.3024      0.00000

 k-point    38 :      -0.3077    0.3077    0.0769
  band No.  band energies     occupation 
      1     -45.8595      1.00000
      2      -1.0157      1.00000
      3       7.7099      0.00000
      4      11.1795      0.00000
      5      13.2439      0.00000
      6      16.3199      0.00000
      7      16.5816      0.00000
      8      20.7521      0.00000

 k-point    39 :      -0.2308    0.3077    0.0769
  band No.  band energies     occupation 
      1     -45.8604      1.00000
      2      -1.2294      1.00000
      3       8.8704      0.00000
      4      10.4867      0.00000
      5      13.4955      0.00000
      6      15.5998      0.00000
      7      17.7964      0.00000
      8      20.6485      0.00000

 k-point    40 :      -0.3846    0.3846    0.0769
  band No.  band energies     occupation 
      1     -45.8556      1.00000
      2      -0.0580      1.00000
      3       5.6846     -0.00000
      4      10.6181      0.00000
      5      12.7981      0.00000
      6      15.7318      0.00000
      7      17.0244      0.00000
      8      21.5521      0.00000

 k-point    41 :      -0.3077    0.3846    0.0769
  band No.  band energies     occupation 
      1     -45.8562      1.00000
      2      -0.3426      1.00000
      3       6.7233      0.00000
      4       9.8057      0.00000
      5      12.9681      0.00000
      6      15.9484      0.00000
      7      17.4575      0.00000
      8      21.2257      0.00000

 k-point    42 :      -0.2308    0.3846    0.0769
  band No.  band energies     occupation 
      1     -45.8565      1.00000
      2      -0.4383      1.00000
      3       7.4653      0.00000
      4       9.0251      0.00000
      5      13.1900      0.00000
      6      15.5123      0.00000
      7      18.1804      0.00000
      8      21.7450      0.00000

 k-point    43 :      -0.4615    0.4615    0.0769
  band No.  band energies     occupation 
      1     -45.8534      1.00000
      2       0.8573      0.02854
      3       4.2267     -0.00000
      4      10.3348      0.00000
      5      12.5647      0.00000
      6      15.4364      0.00000
      7      17.3780      0.00000
      8      22.3134      0.00000

 k-point    44 :      -0.3846    0.4615    0.0769
  band No.  band energies     occupation 
      1     -45.8532      1.00000
      2       0.6687      0.67209
      3       4.9241     -0.00000
      4       9.3956      0.00000
      5      12.6157      0.00000
      6      16.2028      0.00000
      7      17.5361      0.00000
      8      21.2131      0.00000

 k-point    45 :      -0.3077    0.4615    0.0769
  band No.  band energies     occupation 
      1     -45.8531      1.00000
      2       0.5499      0.99057
      3       5.7333     -0.00000
      4       8.2742      0.00000
      5      12.8594      0.00000
      6      15.9096      0.00000
      7      18.3693      0.00000
      8      21.4215      0.00000

 k-point    46 :      -0.4615   -0.4615    0.0769
  band No.  band energies     occupation 
      1     -45.8522      1.00000
      2       1.2973     -0.00013
      3       4.0290     -0.00000
      4       9.2584      0.00000
      5      12.4941      0.00000
      6      16.2377      0.00000
      7      17.7551      0.00000
      8      20.8898      0.00000

 k-point    47 :      -0.3846   -0.4615    0.0769
  band No.  band energies     occupation 
      1     -45.8513      1.00000
      2       1.5581     -0.00000
      3       4.2759     -0.00000
      4       7.9554      0.00000
      5      12.6569      0.00000
      6      16.3400      0.00000
      7      18.7995      0.00000
      8      19.9006      0.00000

 k-point    48 :      -0.3077   -0.4615    0.0769
  band No.  band energies     occupation 
      1     -45.8510      1.00000
      2       1.6264     -0.00000
      3       4.5539     -0.00000
      4       7.3109      0.00000
      5      12.7586      0.00000
      6      16.4117      0.00000
      7      18.5509      0.00000
      8      20.2060      0.00000

 k-point    49 :      -0.3846   -0.3846    0.0769
  band No.  band energies     occupation 
      1     -45.8502      1.00000
      2       2.4854     -0.00000
      3       3.6212     -0.00000
      4       7.0200      0.00000
      5      12.7106      0.00000
      6      16.9281      0.00000
      7      18.2151      0.00000
      8      19.7511      0.00000

 k-point    50 :       0.1538    0.1538    0.1538
  band No.  band energies     occupation 
      1     -45.8569      1.00000
      2      -0.2251      1.00000
      3       7.8165      0.00000
      4       7.8165      0.00000
      5      10.2612      0.00000
      6      20.3030      0.00000
      7      20.3030      0.00000
      8      24.2139      0.00000

 k-point    51 :       0.2308    0.1538    0.1538
  band No.  band energies     occupation 
      1     -45.8544      1.00000
      2       0.7724      0.25078
      3       5.8807     -0.00000
      4       7.2393      0.00000
      5       9.8465      0.00000
      6      21.0023      0.00000
      7      21.2534      0.00000
      8      24.6418      0.00000

 k-point    52 :       0.3077    0.1538    0.1538
  band No.  band energies     occupation 
      1     -45.8530      1.00000
      2       1.8327     -0.00000
      3       4.3197     -0.00000
      4       6.9492      0.00000
      5       9.6591      0.00000
      6      21.2796      0.00000
      7      21.7716      0.00000
      8      25.2818      0.00000

 k-point    53 :      -0.1538    0.1538    0.1538
  band No.  band energies     occupation 
      1     -45.8656      1.00000
      2      -2.0182      1.00000
      3      11.8668      0.00000
      4      11.8668      0.00000
      5      14.0563      0.00000
      6      14.5857      0.00000
      7      19.7637      0.00000
      8      19.7637      0.00000

 k-point    54 :       0.2308    0.2308    0.1538
  band No.  band energies     occupation 
      1     -45.8530      1.00000
      2       1.8723     -0.00000
      3       4.8745     -0.00000
      4       6.0869     -0.00000
      5       9.5092      0.00000
      6      22.1201      0.00000
      7      22.5901      0.00000
[...]
      6      20.3030      0.00000
      7      20.3030      0.00000
      8      24.2139      0.00000

 k-point    51 :       0.2308    0.1538    0.1538
  band No.  band energies     occupation 
      1     -45.8544      1.00000
      2       0.7724      0.25077
      3       5.8807     -0.00000
      4       7.2393      0.00000
      5       9.8465      0.00000
      6      21.0023      0.00000
      7      21.2534      0.00000
      8      24.6419      0.00000

 k-point    52 :       0.3077    0.1538    0.1538
  band No.  band energies     occupation 
      1     -45.8530      1.00000
      2       1.8327     -0.00000
      3       4.3197     -0.00000
      4       6.9492      0.00000
      5       9.6591      0.00000
      6      21.2796      0.00000
      7      21.7716      0.00000
      8      25.2824      0.00000

 k-point    53 :      -0.1538    0.1538    0.1538
  band No.  band energies     occupation 
      1     -45.8656      1.00000
      2      -2.0182      1.00000
      3      11.8668      0.00000
      4      11.8668      0.00000
      5      14.0563      0.00000
      6      14.5857      0.00000
      7      19.7637      0.00000
      8      19.7637      0.00000

 k-point    54 :       0.2308    0.2308    0.1538
  band No.  band energies     occupation 
      1     -45.8530      1.00000
      2       1.8723     -0.00000
      3       4.8745     -0.00000
      4       6.0869     -0.00000
      5       9.5092      0.00000
      6      22.1202      0.00000
      7      22.5901      0.00000
      8      25.6433      0.00000

 k-point    55 :       0.3077    0.2308    0.1538
  band No.  band energies     occupation 
      1     -45.8525      1.00000
      2       2.7939     -0.00000
      3       3.8671     -0.00000
      4       5.8006     -0.00000
      5       9.4103      0.00000
      6      22.5040      0.00000
      7      23.3311      0.00000
      8      24.9424      0.00000

 k-point    56 :      -0.2308    0.2308    0.1538
  band No.  band energies     occupation 
      1     -45.8614      1.00000
      2      -1.4480      1.00000
      3      10.0775      0.00000
      4      10.7914      0.00000
      5      13.5805      0.00000
      6      14.1201      0.00000
      7      19.2190      0.00000
      8      20.3627      0.00000

 k-point    57 :      -0.3077    0.3077    0.1538
  band No.  band energies     occupation 
      1     -45.8570      1.00000
      2      -0.6561      1.00000
      3       7.8879      0.00000
      4       9.9511      0.00000
      5      13.0375      0.00000
      6      14.6065      0.00000
      7      18.4164      0.00000
      8      20.8902      0.00000

 k-point    58 :      -0.2308    0.3077    0.1538
  band No.  band energies     occupation 
      1     -45.8573      1.00000
      2      -0.7602      1.00000
      3       8.7898      0.00000
      4       9.5009      0.00000
      5      13.3555      0.00000
      6      13.6082      0.00000
      7      19.3269      0.00000
      8      21.2782      0.00000

 k-point    59 :      -0.3846    0.3846    0.1538
  band No.  band energies     occupation 
      1     -45.8533      1.00000
      2       0.3227      1.00971
      3       5.8878     -0.00000
      4       9.3812      0.00000
      5      12.6535      0.00000
      6      15.3886      0.00000
      7      17.8507      0.00000
      8      20.4443      0.00000

 k-point    60 :      -0.3077    0.3846    0.1538
  band No.  band energies     occupation 
      1     -45.8533      1.00000
      2       0.1442      1.00023
      3       6.9152      0.00000
      4       8.7020      0.00000
      5      13.0317      0.00000
      6      14.0610      0.00000
      7      18.9321      0.00000
      8      20.8099      0.00000

 k-point    61 :      -0.4615    0.4615    0.1538
  band No.  band energies     occupation 
      1     -45.8512      1.00000
      2       1.2839     -0.00019
      3       4.4012     -0.00000
      4       9.0941      0.00000
      5      12.4544      0.00000
      6      16.1788      0.00000
      7      17.5635      0.00000
      8      19.3748      0.00000

 k-point    62 :      -0.3846    0.4615    0.1538
  band No.  band energies     occupation 
      1     -45.8506      1.00000
      2       1.1950     -0.00162
      3       5.1539     -0.00000
      4       8.2713      0.00000
      5      12.7517      0.00000
      6      14.9369      0.00000
      7      18.3183      0.00000
      8      19.3727      0.00000

 k-point    63 :      -0.3077    0.4615    0.1538
  band No.  band energies     occupation 
      1     -45.8503      1.00000
      2       1.1526     -0.00381
      3       5.7014     -0.00000
      4       7.6321      0.00000
      5      13.5485      0.00000
      6      13.8148      0.00000
      7      18.1095      0.00000
      8      20.1354      0.00000

 k-point    64 :      -0.4615   -0.4615    0.1538
  band No.  band energies     occupation 
      1     -45.8496      1.00000
      2       1.8882     -0.00000
      3       4.2136     -0.00000
      4       8.1300      0.00000
      5      12.6542      0.00000
      6      15.5615      0.00000
      7      17.6559      0.00000
      8      19.0017      0.00000

 k-point    65 :      -0.3846   -0.4615    0.1538
  band No.  band energies     occupation 
      1     -45.8487      1.00000
      2       2.2403     -0.00000
      3       4.3713     -0.00000
      4       7.1797      0.00000
      5      13.4033      0.00000
      6      14.7165      0.00000
      7      16.7000      0.00000
      8      19.9695      0.00000

 k-point    66 :      -0.3846   -0.3846    0.1538
  band No.  band energies     occupation 
      1     -45.8480      1.00000
      2       3.3647     -0.00000
      3       3.3647     -0.00000
      4       6.7574      0.00000
      5      13.8143      0.00000
      6      15.2802      0.00000
      7      15.2802      0.00000
      8      20.1716      0.00000

 k-point    67 :       0.2308    0.2308    0.2308
  band No.  band energies     occupation 
      1     -45.8524      1.00000
      2       3.0789     -0.00000
      3       4.5809     -0.00000
      4       4.5809     -0.00000
      5       9.2019      0.00000
      6      23.7559      0.00000
      7      23.7559      0.00000
      8      25.1655      0.00000

 k-point    68 :      -0.2308    0.2308    0.2308
  band No.  band energies     occupation 
      1     -45.8576      1.00000
      2      -0.8668      1.00000
      3       9.7011      0.00000
      4       9.7012      0.00000
      5      12.1630      0.00000
      6      13.5262      0.00000
      7      21.1247      0.00000
      8      21.1247      0.00000

 k-point    69 :      -0.3077    0.3077    0.2308
  band No.  band energies     occupation 
      1     -45.8535      1.00000
      2      -0.0577      1.00000
      3       8.1302      0.00000
      4       8.8531      0.00000
      5      11.8054      0.00000
      6      13.4811      0.00000
      7      20.4112      0.00000
      8      20.9125      0.00000

 k-point    70 :      -0.3846    0.3846    0.2308
  band No.  band energies     occupation 
      1     -45.8501      1.00000
      2       0.9524     -0.03542
      3       6.2423      0.00000
      4       8.2791      0.00000
      5      11.9126      0.00000
      6      13.8981      0.00000
      7      18.3057      0.00000
      8      20.4095      0.00000

 k-point    71 :      -0.3077    0.3846    0.2308
  band No.  band energies     occupation 
      1     -45.8499      1.00000
      2       0.8691      0.01154
      3       7.0497      0.00000
      4       7.8928      0.00000
      5      11.5900      0.00000
      6      13.4180      0.00000
      7      18.2191      0.00000
      8      21.4103      0.00000

 k-point    72 :      -0.4615    0.4615    0.2308
  band No.  band energies     occupation 
      1     -45.8482      1.00000
      2       1.9876     -0.00000
      3       4.7230     -0.00000
      4       7.9902      0.00000
      5      11.9456      0.00000
      6      14.8422      0.00000
      7      16.5450      0.00000
      8      20.1375      0.00000

 k-point    73 :      -0.3846    0.4615    0.2308
  band No.  band energies     occupation 
      1     -45.8474      1.00000
      2       1.9701     -0.00000
      3       5.5088     -0.00000
      4       7.3730      0.00000
      5      11.9149      0.00000
      6      13.7313      0.00000
      7      16.2744      0.00000
      8      21.3044      0.00000

 k-point    74 :      -0.4615   -0.4615    0.2308
  band No.  band energies     occupation 
      1     -45.8464      1.00000
      2       2.7688     -0.00000
      3       4.5158     -0.00000
      4       7.2195      0.00000
      5      12.0573      0.00000
      6      14.7029      0.00000
      7      14.7409      0.00000
      8      21.2356      0.00000

 k-point    75 :      -0.3846   -0.4615    0.2308
  band No.  band energies     occupation 
      1     -45.8458      1.00000
      2       3.1304     -0.00000
      3       4.5175     -0.00000
      4       6.7148      0.00000
      5      12.6498      0.00000
      6      13.6001      0.00000
      7      14.6786      0.00000
      8      21.5823      0.00000

 k-point    76 :      -0.3077    0.3077    0.3077
  band No.  band energies     occupation 
      1     -45.8497      1.00000
      2       0.7749      0.24185
      3       8.0010      0.00000
      4       8.0010      0.00000
      5      10.3456      0.00000
      6      13.2435      0.00000
      7      18.2268      0.00000
      8      23.1387      0.00000

 k-point    77 :      -0.3846    0.3846    0.3077
  band No.  band energies     occupation 
      1     -45.8466      1.00000
      2       1.8223     -0.00000
      3       6.7066      0.00000
      4       7.4248      0.00000
      5      10.3335      0.00000
      6      13.1548      0.00000
      7      16.2417      0.00000
      8      23.2391      0.00000

 k-point    78 :      -0.4615    0.4615    0.3077
  band No.  band energies     occupation 
      1     -45.8449      1.00000
      2       2.9524     -0.00000
      3       5.2193     -0.00000
      4       7.1349      0.00000
      5      10.8060      0.00000
      6      13.2247      0.00000
      7      14.8535      0.00000
      8      23.0265      0.00000

 k-point    79 :      -0.3846    0.4615    0.3077
  band No.  band energies     occupation 
      1     -45.8443      1.00000
      2       2.9696     -0.00000
      3       5.8768     -0.00000
      4       6.7933      0.00000
      5      10.4013      0.00000
      6      12.6344      0.00000
      7      14.8738      0.00000
      8      23.7810      0.00000

 k-point    80 :      -0.4615   -0.4615    0.3077
  band No.  band energies     occupation 
      1     -45.8435      1.00000
      2       3.9238     -0.00000
      3       4.9171     -0.00000
      4       6.5820      0.00000
      5      10.8892      0.00000
      6      12.0619      0.00000
      7      14.4484      0.00000
      8      23.8122      0.00000

 k-point    81 :      -0.3846    0.3846    0.3846
  band No.  band energies     occupation 
      1     -45.8438      1.00000
      2       2.9127     -0.00000
      3       6.8474      0.00000
      4       6.8474      0.00000
      5       9.1340      0.00000
      6      12.2672      0.00000
      7      14.9247      0.00000
      8      25.7246      0.00000

 k-point    82 :      -0.4615    0.4615    0.3846
  band No.  band energies     occupation 
      1     -45.8422      1.00000
      2       4.1373     -0.00000
      3       5.8661     -0.00000
      4       6.5570      0.00000
      5       9.4142      0.00000
      6      11.0959      0.00000
      7      14.4528      0.00000
      8      26.1156      0.00000

 k-point    83 :      -0.4615   -0.4615    0.3846
  band No.  band energies     occupation 
      1     -45.8414      1.00000
      2       5.2876     -0.00000
      3       5.2876     -0.00000
      4       6.2818      0.00000
      5       9.8048      0.00000
      6       9.8048      0.00000
      7      14.3681      0.00000
      8      26.5511      0.00000

 k-point    84 :      -0.4615    0.4615    0.4615
  band No.  band energies     occupation 
      1     -45.8406      1.00000
      2       5.4120     -0.00000
      3       6.2663      0.00000
      4       6.2664      0.00000
      5       8.5281      0.00000
      6       9.3378      0.00000
      7      14.3541      0.00000
      8      28.6556      0.00000


--------------------------------------------------------------------------------------------------------


 soft charge-density along one line, spin component           1
         0         1         2         3         4         5         6         7         8         9
 total charge-density along one line
 
 soft charge-density along one line, spin component           2
         0         1         2         3         4         5         6         7         8         9
 total charge-density along one line
 
 pseudopotential strength for first ion, spin component:           1
-40.802   2.871   0.000   0.000  -0.000
  2.871  -9.225   0.000   0.000  -0.000
  0.000   0.000   0.131  -0.000  -0.000
  0.000   0.000  -0.000   0.131  -0.000
 -0.000  -0.000  -0.000  -0.000   0.131
 pseudopotential strength for first ion, spin component:           2
-40.802   2.871   0.000   0.000  -0.000
  2.871  -9.225   0.000   0.000  -0.000
  0.000   0.000   0.131  -0.000  -0.000
  0.000   0.000  -0.000   0.131  -0.000
 -0.000  -0.000  -0.000  -0.000   0.131
 total augmentation occupancy for first ion, spin component:           1
  2.001   0.006   0.000   0.000   0.000
  0.006   0.937   0.000   0.000   0.000
  0.000   0.000   0.020   0.000   0.000
  0.000   0.000  -0.000   0.020   0.000
  0.000   0.000   0.000  -0.000   0.020
 total augmentation occupancy for first ion, spin component:           2
  0.000   0.000   0.000   0.000   0.000
  0.000   0.000   0.000   0.000   0.000
  0.000   0.000  -0.000   0.000   0.000
  0.000   0.000   0.000  -0.000   0.000
  0.000   0.000   0.000   0.000  -0.000


------------------------ aborting loop because EDIFF is reached ----------------------------------------


 


 total charge     
 
# of ion       s       p       d       tot
------------------------------------------
    1        2.033   0.042   0.000   2.075
 


 magnetization (x)
 
# of ion       s       p       d       tot
------------------------------------------
    1        0.000   0.000   0.000   0.000
 
    CHARGE:  cpu time    0.0092: real time    0.0092
    FORLOC:  cpu time    0.0002: real time    0.0005
    FORNL :  cpu time    0.0538: real time    0.0561
    STRESS:  cpu time    0.1552: real time    0.1623
    FORHAR:  cpu time    0.0026: real time    0.0030
    MIXING:  cpu time    0.0003: real time    0.0003
    OFIELD:  cpu time    0.0010: real time    0.0035

  FORCE on cell =-STRESS in cart. coord.  units (eV):
  Direction    XX          YY          ZZ          XY          YZ          ZX
  --------------------------------------------------------------------------------------
  Alpha Z     1.14409     1.14409     1.14409
  Ewald     -22.93856   -22.93856   -22.93856    -0.00000     0.00000    -0.00000
  Hartree    13.72166    13.72166    13.72166    -0.00000    -0.00000    -0.00000
  E(xc)     -13.27522   -13.27522   -13.27522    -0.00001    -0.00001    -0.00001
  Local     -19.33387   -19.33387   -19.33387     0.00004     0.00004     0.00004
  n-local   -18.92802   -19.19638   -19.10531    -0.02371     0.12976     0.13734
  augment    17.17992    17.17992    17.17992    -0.00004    -0.00004    -0.00004
  Kinetic    43.01609    42.33585    42.38139    -0.58961     1.14613     0.73746
  Fock        0.00000     0.00000     0.00000     0.00000     0.00000     0.00000
  -------------------------------------------------------------------------------------
  Total      -0.00078    -0.00078    -0.00078    -0.00000    -0.00000    -0.00000
  in kB      -0.06185    -0.06185    -0.06185    -0.00000    -0.00000    -0.00000
  external pressure =       -0.06 kB  Pullay stress =        0.00 kB


 VOLUME and BASIS-vectors are now :
 -----------------------------------------------------------------------------
  energy-cutoff  :      520.00
  volume of cell :       20.12
      direct lattice vectors                 reciprocal lattice vectors
    -1.713409000  1.713409000  1.713409000     0.000000000  0.291815906  0.291815906
     1.713409000 -1.713409000  1.713409000     0.291815906  0.000000000  0.291815906
     1.713409000  1.713409000 -1.713409000     0.291815906  0.291815906  0.000000000

  length of vectors
     2.967711442  2.967711442  2.967711442     0.412690012  0.412690012  0.412690012


 FORCES acting on ions
    electron-ion (+dipol)            ewald-force                    non-local-force                 convergence-correction
 -----------------------------------------------------------------------------------------------
   -.223E-14 -.902E-14 0.103E-13   -.611E-16 -.996E-17 0.738E-17   -.248E-23 0.165E-23 -.165E-23   0.264E-14 -.430E-14 0.619E-14
 -----------------------------------------------------------------------------------------------
   -.223E-14 -.902E-14 0.103E-13   -.611E-16 -.996E-17 0.738E-17   -.248E-23 0.165E-23 -.165E-23   0.264E-14 -.430E-14 0.619E-14
 
 
 POSITION                                       TOTAL-FORCE (eV/Angst)
 -----------------------------------------------------------------------------------
      0.00000      0.00000      0.00000        -0.000000     -0.000000      0.000000
 -----------------------------------------------------------------------------------
    total drift:                                0.000000     -0.000000      0.000000


--------------------------------------------------------------------------------------------------------



  FREE ENERGIE OF THE ION-ELECTRON SYSTEM (eV)
  ---------------------------------------------------
  free  energy   TOTEN  =        -1.90486043 eV

  energy  without entropy=       -1.90535933  energy(sigma->0) =       -1.90502673
 


--------------------------------------------------------------------------------------------------------


    POTLOK:  cpu time    0.2457: real time    0.2484


--------------------------------------------------------------------------------------------------------




--------------------------------------------------------------------------------------------------------


  
 reached required accuracy - stopping structural energy minimisation
     LOOP+:  cpu time    4.8500: real time    5.0986
    4ORBIT:  cpu time    0.0000: real time    0.0000
 


 total charge     
 
# of ion       s       p       d       tot
------------------------------------------
    1        2.033   0.042   0.000   2.075
 


 magnetization (x)
 
# of ion       s       p       d       tot
------------------------------------------
    1        0.000   0.000   0.000   0.000
 

 total amount of memory used by VASP MPI-rank0    31407. kBytes
=======================================================================

   base      :      30000. kBytes
   nonlr-proj:         89. kBytes
   fftplans  :        228. kBytes
   grid      :        529. kBytes
   one-center:          2. kBytes
   wavefun   :        559. kBytes
 
  
  
 General timing and accounting informations for this job:
 ========================================================
  
                  Total CPU time used (sec):        5.931
                            User time (sec):        5.298
                          System time (sec):        0.633
                         Elapsed time (sec):        7.449
  
                   Maximum memory used (kb):       59504.
                   Average memory used (kb):           0.
  
                          Minor page faults:         9343
                          Major page faults:            0
                 Voluntary context switches:        43725
