 running on   12 total cores
 distrk:  each k-point on   12 cores,    1 groups
 distr:  one band on    6 cores,    2 groups
 using from now: INCAR     
 vasp.6.1.2 22Jul20 (build Mar 20 2021 11:25:07) complex                        
  
 POSCAR found type information on POSCAR LiN 
 POSCAR found :  2 types and       4 ions
 scaLAPACK will be used
 -----------------------------------------------------------------------------
|                                                                             |
|               ----> ADVICE to this user running VASP <----                  |
|                                                                             |
|     You have a (more or less) 'small supercell' and for smaller cells       |
|     it is recommended to use the reciprocal-space projection scheme!        |
|     The real-space optimization is not efficient for small cells and it     |
|     is also less accurate ...                                               |
|     Therefore, set LREAL=.FALSE. in the INCAR file.                         |
|                                                                             |
 -----------------------------------------------------------------------------

 LDA part: xc-table for Pade appr. of Perdew
 generate k-points for:   12   11    7
 POSCAR, INCAR and KPOINTS ok, starting setup
 FFT: planning ...
 WAVECAR not read
 entering main loop
       N       E                     dE             d eps       ncg     rms          rms(c)
DAV:   1     0.861271731732E+02    0.86127E+02   -0.85971E+03 25936   0.120E+03
DAV:   2    -0.232689240917E+02   -0.10940E+03   -0.10573E+03 33674   0.274E+02
DAV:   3    -0.285150001282E+02   -0.52461E+01   -0.52258E+01 36398   0.650E+01
DAV:   4    -0.287286897151E+02   -0.21369E+00   -0.21359E+00 39210   0.110E+01
DAV:   5    -0.287314602494E+02   -0.27705E-02   -0.27703E-02 36000   0.131E+00    0.130E+01
RMM:   6    -0.274614229938E+02    0.12700E+01   -0.40424E+00 28297   0.141E+01    0.598E+00
RMM:   7    -0.273941220489E+02    0.67301E-01   -0.67115E-01 33485   0.778E+00    0.343E+00
RMM:   8    -0.273689249073E+02    0.25197E-01   -0.29439E-01 37052   0.435E+00    0.169E+00
RMM:   9    -0.273822591128E+02   -0.13334E-01   -0.74465E-02 40087   0.239E+00    0.652E-01
RMM:  10    -0.273831715776E+02   -0.91246E-03   -0.25486E-02 42398   0.125E+00    0.162E-01
RMM:  11    -0.273847032846E+02   -0.15317E-02   -0.10866E-02 44540   0.724E-01    0.912E-02
RMM:  12    -0.273854297408E+02   -0.72646E-03   -0.51051E-03 47718   0.455E-01    0.588E-02
RMM:  13    -0.273856859761E+02   -0.25624E-03   -0.21019E-03 47398   0.285E-01    0.252E-02
RMM:  14    -0.273858019880E+02   -0.11601E-03   -0.93943E-04 46056   0.198E-01    0.158E-02
RMM:  15    -0.273858535290E+02   -0.51541E-04   -0.43030E-04 43350   0.129E-01    0.956E-03
RMM:  16    -0.273858747379E+02   -0.21209E-04   -0.18631E-04 39341   0.868E-02    0.266E-03
RMM:  17    -0.273858843426E+02   -0.96046E-05   -0.80423E-05 34026   0.641E-02
   1 F= -.27385884E+02 E0= -.27385884E+02  d E =0.000000E+00  mag=     0.0000
