    4    4    1    2
  0.1189388E+02  0.3869731E-09  0.3650690E-09  0.3888635E-09  0.5000000E-15
  1.000000000000000E-004
  CAR 
 unknown system                          
     14    260     12
 
  0.0000000E+00  0.0000000E+00  0.0000000E+00  0.1250000E-02
    1      -43.690468    -43.689816   1.000000   1.000000
    2      -43.427719    -43.427055   1.000000   1.000000
    3      -42.962152    -42.961502   1.000000   1.000000
    4      -10.313017    -10.313030   1.000000   1.000000
    5       -0.272826     -0.272861   1.000000   1.000000
    6        0.770607      0.770524   1.000000   1.000000
    7        0.949923      0.949856   1.000000   1.000000
    8        1.984196      1.984015   0.000001   0.000002
    9        7.693377      7.693433   0.000000   0.000000
   10        8.219453      8.219552   0.000000   0.000000
   11        9.024225      9.024069   0.000000   0.000000
   12       12.417025     12.416381   0.000000   0.000000
 
  0.1000000E+00  0.9483324E-17  0.0000000E+00  0.2500000E-02
    1      -43.685514    -43.684863   1.000000   1.000000
    2      -43.432567    -43.431904   1.000000   1.000000
    3      -42.962164    -42.961515   1.000000   1.000000
    4      -10.304404    -10.304418   1.000000   1.000000
    5       -0.220588     -0.220621   1.000000   1.000000
    6        0.391070      0.390985   1.000000   1.000000
    7        0.855729      0.855662   1.000000   1.000000
    8        2.369386      2.369232  -0.000000  -0.000000
    9        7.735749      7.735816   0.000000   0.000000
   10        8.443606      8.443684   0.000000   0.000000
   11        8.918534      8.918374   0.000000   0.000000
   12       12.139509     12.138482   0.000000   0.000000
 
  0.2000000E+00  0.1896665E-16  0.0000000E+00  0.2500000E-02
    1      -43.671464    -43.670812   1.000000   1.000000
    2      -43.446142    -43.445479   1.000000   1.000000
    3      -42.962118    -42.961468   1.000000   1.000000
    4      -10.281555    -10.281569   1.000000   1.000000
    5       -0.228131     -0.228200   1.000000   1.000000
    6       -0.077917     -0.077944   1.000000   1.000000
    7        0.636645      0.636578   1.000000   1.000000
    8        3.037069      3.036918   0.000000   0.000000
    9        7.631355      7.631239   0.000000   0.000000
   10        8.637811      8.637641   0.000000   0.000000
   11        9.035635      9.035628   0.000000   0.000000
   12       11.902809     11.902069   0.000000   0.000000
 
  0.3000000E+00  0.3041767E-16  0.0000000E+00  0.2500000E-02
    1      -43.651329    -43.650676   1.000000   1.000000
    2      -43.465840    -43.465178   1.000000   1.000000
    3      -42.962136    -42.961486   1.000000   1.000000
    4      -10.253157    -10.253173   1.000000   1.000000
    5       -0.759402     -0.759469   1.000000   1.000000
    6        0.111969      0.111949   1.000000   1.000000
    7        0.396121      0.396054   1.000000   1.000000
    8        3.758877      3.758705   0.000000   0.000000
    9        7.098649      7.098532   0.000000   0.000000
   10        8.276261      8.276057   0.000000   0.000000
   11        9.708739      9.708771   0.000000   0.000000
   12       12.256503     12.187106   0.000000   0.000000
 
  0.4000000E+00  0.2723512E-16  0.0000000E+00  0.2500000E-02
    1      -43.631144    -43.630489   1.000000   1.000000
    2      -43.485655    -43.484994   1.000000   1.000000
    3      -42.962130    -42.961480   1.000000   1.000000
    4      -10.229858    -10.229881   1.000000   1.000000
    5       -1.106172     -1.106240   1.000000   1.000000
    6        0.220104      0.220039   1.000000   1.000000
    7        0.278740      0.278733   1.000000   1.000000
    8        4.533351      4.533201   0.000000   0.000000
    9        6.278476      6.278361   0.000000   0.000000
   10        7.965765      7.965564   0.000000   0.000000
   11       10.128925     10.128814   0.000000   0.000000
   12       12.360479     12.360500   0.000000   0.000000
 
  0.5000000E+00  0.2162874E-16  0.0000000E+00  0.1250000E-02
    1      -43.621796    -43.621142   1.000000   1.000000
    2      -43.494875    -43.494215   1.000000   1.000000
    3      -42.962134    -42.961484   1.000000   1.000000
    4      -10.220934    -10.220945   1.000000   1.000000
    5       -1.226023     -1.226088   1.000000   1.000000
    6        0.156510      0.156445   1.000000   1.000000
    7        0.346090      0.346081   1.000000   1.000000
    8        5.273811      5.273734   0.000000   0.000000
    9        5.522246      5.517855   0.000000   0.000000
   10        7.841770      7.841547   0.000000   0.000000
   11       10.246320     10.246177   0.000000   0.000000
   12       12.133559     12.132615   0.000000   0.000000
 
  0.2412558E-16  0.1000000E+00  0.0000000E+00  0.2500000E-02
    1      -43.684082    -43.683431   1.000000   1.000000
    2      -43.433866    -43.433203   1.000000   1.000000
    3      -42.962120    -42.961470   1.000000   1.000000
    4      -10.299834    -10.299848   1.000000   1.000000
    5       -0.212089     -0.212123   1.000000   1.000000
    6        0.522406      0.522347   1.000000   1.000000
    7        0.679107      0.679031   1.000000   1.000000
    8        2.353553      2.353387  -0.000000  -0.000000
    9        7.944493      7.944778   0.000000   0.000000
   10        8.226608      8.226572   0.000000   0.000000
   11        8.936627      8.936469   0.000000   0.000000
   12       12.363926     12.347278   0.000000   0.000000
 
  0.1000000E+00  0.1000000E+00  0.0000000E+00  0.2500000E-02
    1      -43.673952    -43.673300   1.000000   1.000000
    2      -43.443765    -43.443102   1.000000   1.000000
    3      -42.962138    -42.961489   1.000000   1.000000
    4      -10.282609    -10.282623   1.000000   1.000000
    5       -0.111134     -0.111163   1.000000   1.000000
    6       -0.006193     -0.006256   1.000000   1.000000
    7        0.581748      0.581693   1.000000   1.000000
    8        2.836995      2.836835   0.000000   0.000000
    9        7.868696      7.868749   0.000000   0.000000
   10        8.646480      8.646384   0.000000   0.000000
   11        8.756228      8.756062   0.000000   0.000000
   12       12.031628     12.034315   0.000000   0.000000
 
  0.2000000E+00  0.1000000E+00  0.0000000E+00  0.2500000E-02
    1      -43.656092    -43.655439   1.000000   1.000000
    2      -43.461115    -43.460453   1.000000   1.000000
    3      -42.962099    -42.961449   1.000000   1.000000
    4      -10.256410    -10.256425   1.000000   1.000000
    5       -0.549684     -0.549750   1.000000   1.000000
    6        0.057763      0.057741   1.000000   1.000000
    7        0.362726      0.362664   1.000000   1.000000
    8        3.501839      3.501672   0.000000   0.000000
    9        7.514243      7.514120   0.000000   0.000000
   10        8.461510      8.461328   0.000000   0.000000
   11        9.144632      9.144093   0.000000   0.000000
   12       12.125880     12.131234   0.000000   0.000000
 
  0.3000000E+00  0.1000000E+00  0.0000000E+00  0.2500000E-02
    1      -43.634909    -43.634255   1.000000   1.000000
    2      -43.481860    -43.481199   1.000000   1.000000
    3      -42.962094    -42.961444   1.000000   1.000000
    4      -10.231169    -10.231182   1.000000   1.000000
    5       -0.958358     -0.958423   1.000000   1.000000
    6        0.152640      0.152579   1.000000   1.000000
    7        0.237407      0.237362   1.000000   1.000000
    8        4.253114      4.253016   0.000000   0.000000
    9        6.804979      6.804878   0.000000   0.000000
   10        8.162431      8.162085   0.000000   0.000000
   11        9.488387      9.490292   0.000000   0.000000
   12       12.243033     12.210453   0.000000   0.000000
 
  0.4000000E+00  0.1000000E+00  0.0000000E+00  0.2500000E-02
    1      -43.619069    -43.618414   1.000000   1.000000
    2      -43.497503    -43.496843   1.000000   1.000000
    3      -42.962129    -42.961479   1.000000   1.000000
    4      -10.216745    -10.216761   1.000000   1.000000
    5       -1.169480     -1.169544   1.000000   1.000000
    6        0.029087      0.029025   1.000000   1.000000
    7        0.353042      0.353036   1.000000   1.000000
    8        5.077893      5.077792   0.000000   0.000000
    9        5.942825      5.942660   0.000000   0.000000
   10        7.975508      7.975292   0.000000   0.000000
   11        9.646208      9.646372   0.000000   0.000000
   12       11.691492     11.691353   0.000000   0.000000
 
  0.5000000E+00  0.1000000E+00  0.0000000E+00  0.2500000E-02
    1      -43.620309    -43.619654   1.000000   1.000000
    2      -43.496250    -43.495590   1.000000   1.000000
    3      -42.962121    -42.961471   1.000000   1.000000
    4      -10.218744    -10.218767   1.000000   1.000000
    5       -1.159591     -1.159656   1.000000   1.000000
    6        0.027543      0.027482   1.000000   1.000000
    7        0.347887      0.347879   1.000000   1.000000
    8        5.081404      5.081249   0.000000   0.000000
    9        5.961239      5.961133   0.000000   0.000000
   10        7.982826      7.982609   0.000000   0.000000
   11        9.662931      9.661533   0.000000   0.000000
   12       11.668523     11.667971   0.000000   0.000000
 
 -0.4000000E+00  0.1000000E+00  0.0000000E+00  0.2500000E-02
    1      -43.637504    -43.636850   1.000000   1.000000
    2      -43.479354    -43.478693   1.000000   1.000000
    3      -42.962135    -42.961485   1.000000   1.000000
    4      -10.236403    -10.236415   1.000000   1.000000
    5       -0.933976     -0.934043   1.000000   1.000000
    6        0.151321      0.151260   1.000000   1.000000
    7        0.224670      0.224651   1.000000   1.000000
    8        4.279725      4.279573   0.000000   0.000000
    9        6.829466      6.829403   0.000000   0.000000
   10        8.175799      8.175519   0.000000   0.000000
   11        9.534033      9.534507   0.000000   0.000000
   12       12.164270     12.147146   0.000000   0.000000
 
 -0.3000000E+00  0.1000000E+00  0.0000000E+00  0.2500000E-02
    1      -43.658622    -43.657969   1.000000   1.000000
    2      -43.458699    -43.458037   1.000000   1.000000
    3      -42.962147    -42.961497   1.000000   1.000000
    4      -10.262759    -10.262775   1.000000   1.000000
    5       -0.526565     -0.526633   1.000000   1.000000
    6        0.043374      0.043352   1.000000   1.000000
    7        0.372288      0.372228   1.000000   1.000000
    8        3.540778      3.540622   0.000000   0.000000
    9        7.503235      7.503133   0.000000   0.000000
   10        8.466906      8.466721   0.000000   0.000000
   11        9.225162      9.225021   0.000000   0.000000
   12       12.058121     12.057077   0.000000   0.000000
 
 -0.2000000E+00  0.1000000E+00  0.0000000E+00  0.2500000E-02
    1      -43.675679    -43.675027   1.000000   1.000000
    2      -43.442056    -43.441393   1.000000   1.000000
    3      -42.962140    -42.961491   1.000000   1.000000
    4      -10.287588    -10.287601   1.000000   1.000000
    5       -0.121888     -0.121917   1.000000   1.000000
    6       -0.010401     -0.010469   1.000000   1.000000
    7        0.620669      0.620612   1.000000   1.000000
    8        2.867249      2.867099   0.000000   0.000000
    9        7.771475      7.771509   0.000000   0.000000
   10        8.751666      8.751497   0.000000   0.000000
   11        8.774113      8.774079   0.000000   0.000000
   12       11.986638     11.986384   0.000000   0.000000
 
 -0.1000000E+00  0.1000000E+00  0.0000000E+00  0.2500000E-02
    1      -43.684708    -43.684056   1.000000   1.000000
    2      -43.433275    -43.432611   1.000000   1.000000
    3      -42.962133    -42.961484   1.000000   1.000000
    4      -10.301708    -10.301722   1.000000   1.000000
    5       -0.216017     -0.216050   1.000000   1.000000
    6        0.464921      0.464854   1.000000   1.000000
    7        0.756496      0.756443   1.000000   1.000000
    8        2.360010      2.359847  -0.000000  -0.000000
    9        7.829676      7.829827   0.000000   0.000000
   10        8.344701      8.344911   0.000000   0.000000
   11        8.932736      8.932575   0.000000   0.000000
   12       12.340312     12.319958   0.000000   0.000000
 
  0.4825115E-16  0.2000000E+00  0.0000000E+00  0.2500000E-02
    1      -43.665651    -43.664998   1.000000   1.000000
    2      -43.451698    -43.451035   1.000000   1.000000
    3      -42.962058    -42.961409   1.000000   1.000000
    4      -10.265191    -10.265207   1.000000   1.000000
    5       -0.092753     -0.092814   1.000000   1.000000
    6       -0.046240     -0.046267   1.000000   1.000000
    7        0.360678      0.360628   1.000000   1.000000
    8        2.983595      2.983422   0.000000   0.000000
    9        7.915614      7.915779   0.000000   0.000000
   10        8.687258      8.687238   0.000000   0.000000
   11        8.725010      8.724857   0.000000   0.000000
   12       12.290331     12.289401   0.000000   0.000000
 
  0.1000000E+00  0.2000000E+00  0.0000000E+00  0.2500000E-02
    1      -43.651264    -43.650611   1.000000   1.000000
    2      -43.465711    -43.465049   1.000000   1.000000
    3      -42.962053    -42.961403   1.000000   1.000000
    4      -10.244556    -10.244575   1.000000   1.000000
    5       -0.465343     -0.465405   1.000000   1.000000
    6        0.080850      0.080826   1.000000   1.000000
    7        0.175849      0.175792   1.000000   1.000000
    8        3.476232      3.476066   0.000000   0.000000
    9        7.662560      7.662441   0.000000   0.000000
   10        8.554378      8.554203   0.000000   0.000000
   11        8.955219      8.954998   0.000000   0.000000
   12       12.270117     12.260103   0.000000   0.000000
 
  0.2000000E+00  0.2000000E+00  0.0000000E+00  0.2500000E-02
    1      -43.631124    -43.630470   1.000000   1.000000
    2      -43.485385    -43.484724   1.000000   1.000000
    3      -42.962026    -42.961376   1.000000   1.000000
    4      -10.221653    -10.221670   1.000000   1.000000
    5       -0.810239     -0.810301   1.000000   1.000000
    6       -0.061370     -0.061423   1.000000   1.000000
    7        0.241262      0.241248   1.000000   1.000000
    8        4.161588      4.161403   0.000000   0.000000
    9        7.277555      7.277422   0.000000   0.000000
   10        8.385322      8.385132   0.000000   0.000000
   11        8.820823      8.821169   0.000000   0.000000
   12       11.844452     11.844032   0.000000   0.000000
 
  0.3000000E+00  0.2000000E+00  0.0000000E+00  0.2500000E-02
    1      -43.611161    -43.610506   1.000000   1.000000
    2      -43.505071    -43.504411   1.000000   1.000000
    3      -42.962054    -42.961405   1.000000   1.000000
    4      -10.205372    -10.205391   1.000000   1.000000
    5       -1.030074     -1.030137   1.000000   1.000000
    6       -0.251122     -0.251174   1.000000   1.000000
    7        0.373763      0.373756   1.000000   1.000000
    8        4.959546      4.959323   0.000000   0.000000
    9        6.627290      6.627182   0.000000   0.000000
   10        8.298633      8.298422   0.000000   0.000000
   11        8.645977      8.644911   0.000000   0.000000
   12       10.946875     10.946513   0.000000   0.000000
 
  0.4000000E+00  0.2000000E+00  0.0000000E+00  0.2500000E-02
    1      -43.603573    -43.602918   1.000000   1.000000
    2      -43.512550    -43.511890   1.000000   1.000000
    3      -42.962059    -42.961410   1.000000   1.000000
    4      -10.201876    -10.201895   1.000000   1.000000
    5       -1.093307     -1.093369   1.000000   1.000000
    6       -0.321937     -0.321990   1.000000   1.000000
    7        0.419374      0.419369   1.000000   1.000000
    8        5.674722      5.672968   0.000000   0.000000
    9        5.978852      5.978774   0.000000   0.000000
   10        8.286011      8.285793   0.000000   0.000000
   11        8.594163      8.593743   0.000000   0.000000
   12       10.609057     10.608743   0.000000   0.000000
 
  0.5000000E+00  0.2000000E+00  0.0000000E+00  0.2500000E-02
    1      -43.616148    -43.615493   1.000000   1.000000
    2      -43.500180    -43.499520   1.000000   1.000000
    3      -42.962078    -42.961428   1.000000   1.000000
    4      -10.212481    -10.212499   1.000000   1.000000
    5       -1.003164     -1.003227   1.000000   1.000000
    6       -0.241962     -0.242014   1.000000   1.000000
    7        0.355996      0.355988   1.000000   1.000000
    8        4.975194      4.975017   0.000000   0.000000
    9        6.686143      6.686082   0.000000   0.000000
   10        8.299656      8.299444   0.000000   0.000000
   11        8.660984      8.664175   0.000000   0.000000
   12       10.928328     10.928158   0.000000   0.000000
 
 -0.4000000E+00  0.2000000E+00  0.0000000E+00  0.2500000E-02
    1      -43.637027    -43.636373   1.000000   1.000000
    2      -43.479625    -43.478964   1.000000   1.000000
    3      -42.962068    -42.961418   1.000000   1.000000
    4      -10.233038    -10.233056   1.000000   1.000000
    5       -0.784096     -0.784162   1.000000   1.000000
    6       -0.022151     -0.022202   1.000000   1.000000
    7        0.214361      0.214346   1.000000   1.000000
    8        4.209103      4.208932   0.000000   0.000000
    9        7.291966      7.291845   0.000000   0.000000
   10        8.370958      8.370758   0.000000   0.000000
   11        8.905268      8.907518   0.000000   0.000000
   12       11.811131     11.810756   0.000000   0.000000
 
 -0.3000000E+00  0.2000000E+00  0.0000000E+00  0.2500000E-02
    1      -43.655960    -43.655307   1.000000   1.000000
    2      -43.461132    -43.460470   1.000000   1.000000
    3      -42.962075    -42.961426   1.000000   1.000000
    4      -10.255742    -10.255759   1.000000   1.000000
    5       -0.476494     -0.476561   1.000000   1.000000
    6        0.055904      0.055882   1.000000   1.000000
    7        0.266963      0.266909   1.000000   1.000000
    8        3.523423      3.523265   0.000000   0.000000
    9        7.577386      7.577288   0.000000   0.000000
   10        8.523237      8.523056   0.000000   0.000000
   11        9.125246      9.125276   0.000000   0.000000
   12       12.129880     12.132553   0.000000   0.000000
 
 -0.2000000E+00  0.2000000E+00  0.0000000E+00  0.2500000E-02
    1      -43.668208    -43.667556   1.000000   1.000000
    2      -43.449210    -43.448548   1.000000   1.000000
    3      -42.962086    -42.961436   1.000000   1.000000
    4      -10.271938    -10.271954   1.000000   1.000000
    5       -0.149328     -0.149395   1.000000   1.000000
    6       -0.060812     -0.060839   1.000000   1.000000
    7        0.481447      0.481404   1.000000   1.000000
    8        3.003881      3.003715   0.000000   0.000000
    9        7.768839      7.768899   0.000000   0.000000
   10        8.697253      8.697086   0.000000   0.000000
   11        8.858837      8.859312   0.000000   0.000000
   12       12.192084     12.188120   0.000000   0.000000
 
 -0.1000000E+00  0.2000000E+00  0.0000000E+00  0.2500000E-02
    1      -43.671574    -43.670921   1.000000   1.000000
    2      -43.445909    -43.445246   1.000000   1.000000
    3      -42.962054    -42.961404   1.000000   1.000000
    4      -10.275578    -10.275592   1.000000   1.000000
    5       -0.098576     -0.098605   1.000000   1.000000
    6        0.054216      0.054152   1.000000   1.000000
    7        0.478557      0.478514   1.000000   1.000000
    8        2.798876      2.798699   0.000000   0.000000
    9        8.041861      8.041758   0.000000   0.000000
   10        8.438048      8.437422   0.000000   0.000000
   11        8.787016      8.786853   0.000000   0.000000
   12       12.386915     12.391887   0.000000   0.000000
 
  0.6731194E-16  0.3000000E+00  0.0000000E+00  0.2500000E-02
    1      -43.637376    -43.636722   1.000000   1.000000
    2      -43.479184    -43.478523   1.000000   1.000000
    3      -42.961994    -42.961344   1.000000   1.000000
    4      -10.221842    -10.221876   1.000000   1.000000
    5       -0.639496     -0.639549   1.000000   1.000000
    6        0.034639      0.034596   1.000000   1.000000
    7        0.174406      0.174385   1.000000   1.000000
    8        3.681981      3.681811   0.000000   0.000000
    9        7.292221      7.292200   0.000000   0.000000
   10        8.494589      8.494414   0.000000   0.000000
   11        9.313287      9.312996   0.000000   0.000000
   12       12.673894     12.538116   0.000000   0.000000
 
  0.1000000E+00  0.3000000E+00  0.0000000E+00  0.2500000E-02
    1      -43.620244    -43.619589   1.000000   1.000000
    2      -43.495947    -43.495287   1.000000   1.000000
    3      -42.961979    -42.961329   1.000000   1.000000
    4      -10.204500    -10.204521   1.000000   1.000000
    5       -0.843961     -0.844014   1.000000   1.000000
    6       -0.164718     -0.164771   1.000000   1.000000
    7        0.291133      0.291118   1.000000   1.000000
    8        4.200680      4.200504   0.000000   0.000000
    9        6.954532      6.954425   0.000000   0.000000
   10        8.418609      8.418421   0.000000   0.000000
   11        9.175198      9.174781   0.000000   0.000000
   12       11.834730     11.833522   0.000000   0.000000
 
  0.2000000E+00  0.3000000E+00  0.0000000E+00  0.2500000E-02
    1      -43.599403    -43.598748   1.000000   1.000000
    2      -43.516467    -43.515808   1.000000   1.000000
    3      -42.961972    -42.961322   1.000000   1.000000
    4      -10.190425    -10.190443   1.000000   1.000000
    5       -0.952500     -0.952554   1.000000   1.000000
    6       -0.429401     -0.429452   1.000000   1.000000
    7        0.404567      0.404560   1.000000   1.000000
    8        4.929978      4.929814   0.000000   0.000000
    9        6.692574      6.692510   0.000000   0.000000
   10        8.485916      8.487334   0.000000   0.000000
   11        8.502209      8.502013   0.000000   0.000000
   12       10.671553     10.671369   0.000000   0.000000
 
  0.3000000E+00  0.3000000E+00  0.0000000E+00  0.2500000E-02
    1      -43.583114    -43.582458   1.000000   1.000000
    2      -43.532675    -43.532016   1.000000   1.000000
    3      -42.962016    -42.961366   1.000000   1.000000
    4      -10.185073    -10.185094   1.000000   1.000000
    5       -0.945120     -0.945178   1.000000   1.000000
    6       -0.642091     -0.642138   1.000000   1.000000
    7        0.468680      0.468676   1.000000   1.000000
    8        5.710781      5.710445   0.000000   0.000000
    9        6.412636      6.412449   0.000000   0.000000
   10        7.852425      7.852128   0.000000   0.000000
   11        8.775119      8.774902   0.000000   0.000000
   12        9.789773      9.789556   0.000000   0.000000
 
  0.4000000E+00  0.3000000E+00  0.0000000E+00  0.2500000E-02
    1      -43.589992    -43.589336   1.000000   1.000000
    2      -43.525880    -43.525221   1.000000   1.000000
    3      -42.962033    -42.961383   1.000000   1.000000
    4      -10.190158    -10.190179   1.000000   1.000000
    5       -0.948873     -0.948932   1.000000   1.000000
    6       -0.609021     -0.609066   1.000000   1.000000
    7        0.456145      0.456142   1.000000   1.000000
    8        5.688495      5.688205   0.000000   0.000000
    9        6.485050      6.484842   0.000000   0.000000
   10        7.853476      7.854147   0.000000   0.000000
   11        8.710197      8.709984   0.000000   0.000000
   12        9.863129      9.862944   0.000000   0.000000
 
  0.5000000E+00  0.3000000E+00  0.0000000E+00  0.2500000E-02
    1      -43.610437    -43.609782   1.000000   1.000000
    2      -43.505719    -43.505059   1.000000   1.000000
    3      -42.962051    -42.961402   1.000000   1.000000
    4      -10.203687    -10.203706   1.000000   1.000000
    5       -0.959874     -0.959932   1.000000   1.000000
    6       -0.339821     -0.339868   1.000000   1.000000
    7        0.372871      0.372864   1.000000   1.000000
    8        4.961466      4.961275   0.000000   0.000000
    9        6.712671      6.712577   0.000000   0.000000
   10        8.408966      8.408761   0.000000   0.000000
   11        8.576560      8.576674   0.000000   0.000000
   12       10.783282     10.783094   0.000000   0.000000
 
 -0.4000000E+00  0.3000000E+00  0.0000000E+00  0.2500000E-02
    1      -43.629820    -43.629166   1.000000   1.000000
    2      -43.486603    -43.485942   1.000000   1.000000
    3      -42.962017    -42.961368   1.000000   1.000000
    4      -10.220571    -10.220590   1.000000   1.000000
    5       -0.870614     -0.870674   1.000000   1.000000
    6       -0.021890     -0.021943   1.000000   1.000000
    7        0.254027      0.254015   1.000000   1.000000
    8        4.247731      4.247570   0.000000   0.000000
    9        6.901791      6.901808   0.000000   0.000000
   10        8.318418      8.318226   0.000000   0.000000
   11        9.366687      9.369128   0.000000   0.000000
   12       11.945106     11.946317   0.000000   0.000000
 
 -0.3000000E+00  0.3000000E+00  0.0000000E+00  0.2500000E-02
    1      -43.643675    -43.643022   1.000000   1.000000
    2      -43.473059    -43.472398   1.000000   1.000000
    3      -42.962028    -42.961378   1.000000   1.000000
    4      -10.234677    -10.234700   1.000000   1.000000
    5       -0.692471     -0.692532   1.000000   1.000000
    6        0.145904      0.145886   1.000000   1.000000
    7        0.198148      0.198103   1.000000   1.000000
    8        3.711986      3.711775   0.000000   0.000000
    9        7.195354      7.195309   0.000000   0.000000
   10        8.406607      8.406425   0.000000   0.000000
   11        9.496880      9.497390   0.000000   0.000000
   12       12.482137     12.366620   0.000000   0.000000
 
 -0.2000000E+00  0.3000000E+00  0.0000000E+00  0.2500000E-02
    1      -43.649930    -43.649276   1.000000   1.000000
    2      -43.466962    -43.466300   1.000000   1.000000
    3      -42.962020    -42.961371   1.000000   1.000000
    4      -10.240464    -10.240481   1.000000   1.000000
    5       -0.503292     -0.503350   1.000000   1.000000
    6        0.087189      0.087168   1.000000   1.000000
    7        0.220809      0.220757   1.000000   1.000000
    8        3.441073      3.440900   0.000000   0.000000
    9        7.606333      7.606193   0.000000   0.000000
   10        8.542816      8.542646   0.000000   0.000000
   11        8.949547      8.951654   0.000000   0.000000
   12       12.446698     12.479752   0.000000   0.000000
 
 -0.1000000E+00  0.3000000E+00  0.0000000E+00  0.2500000E-02
    1      -43.647734    -43.647081   1.000000   1.000000
    2      -43.469056    -43.468395   1.000000   1.000000
    3      -42.961986    -42.961336   1.000000   1.000000
    4      -10.235600    -10.235617   1.000000   1.000000
    5       -0.464212     -0.464265   1.000000   1.000000
    6        0.097742      0.097721   1.000000   1.000000
    7        0.134494      0.134405   1.000000   1.000000
    8        3.432613      3.432445   0.000000   0.000000
    9        7.683034      7.682924   0.000000   0.000000
   10        8.580295      8.580127   0.000000   0.000000
   11        8.864512      8.862509   0.000000   0.000000
   12       12.559922     12.610519   0.000000   0.000000
 
  0.8427264E-16  0.4000000E+00  0.0000000E+00  0.2500000E-02
    1      -43.603464    -43.602809   1.000000   1.000000
    2      -43.512382    -43.511722   1.000000   1.000000
    3      -42.961931    -42.961281   1.000000   1.000000
    4      -10.186349    -10.186373   1.000000   1.000000
    5       -1.001875     -1.001920   1.000000   1.000000
    6       -0.197596     -0.197647   1.000000   1.000000
    7        0.368045      0.368035   1.000000   1.000000
    8        4.443508      4.443323   0.000000   0.000000
    9        6.423994      6.423991   0.000000   0.000000
   10        8.331530      8.331350   0.000000   0.000000
   11        9.602048      9.601957   0.000000   0.000000
   12       11.838222     11.838014   0.000000   0.000000
 
  0.1000000E+00  0.4000000E+00  0.0000000E+00  0.2500000E-02
    1      -43.586534    -43.585878   1.000000   1.000000
    2      -43.529154    -43.528495   1.000000   1.000000
    3      -42.961950    -42.961301   1.000000   1.000000
    4      -10.177741    -10.177767   1.000000   1.000000
    5       -1.061797     -1.061842   1.000000   1.000000
    6       -0.348542     -0.348602   1.000000   1.000000
    7        0.433891      0.433885   1.000000   1.000000
    8        4.974356      4.974168   0.000000   0.000000
    9        6.083675      6.083262   0.000000   0.000000
   10        8.376253      8.376068   0.000000   0.000000
   11        9.234105      9.234352   0.000000   0.000000
   12       11.107631     11.107500   0.000000   0.000000
 
  0.2000000E+00  0.4000000E+00  0.0000000E+00  0.2500000E-02
    1      -43.566976    -43.566319   1.000000   1.000000
    2      -43.548624    -43.547966   1.000000   1.000000
    3      -42.961963    -42.961313   1.000000   1.000000
    4      -10.174546    -10.174570   1.000000   1.000000
    5       -0.996347     -0.996390   1.000000   1.000000
    6       -0.584594     -0.584648   1.000000   1.000000
    7        0.477665      0.477661   1.000000   1.000000
    8        5.665898      5.665697   0.000000   0.000000
    9        5.952239      5.949645   0.000000   0.000000
   10        8.388687      8.388269   0.000000   0.000000
   11        8.668502      8.668313   0.000000   0.000000
   12       10.131450     10.131234   0.000000   0.000000
 
  0.3000000E+00  0.4000000E+00  0.0000000E+00  0.2500000E-02
    1      -43.569348    -43.568691   1.000000   1.000000
    2      -43.546287    -43.545629   1.000000   1.000000