       N       E                     dE             d eps       ncg     rms          rms(c)
DAV:   1     0.598860674520E+02    0.59886E+02   -0.63511E+03 12488   0.117E+03
DAV:   2    -0.831541784537E+01   -0.68201E+02   -0.63574E+02 16236   0.247E+02
DAV:   3    -0.176946923505E+02   -0.93793E+01   -0.93177E+01 20660   0.728E+01
DAV:   4    -0.184763733507E+02   -0.78168E+00   -0.78085E+00 18536   0.190E+01
DAV:   5    -0.184878956321E+02   -0.11522E-01   -0.11522E-01 18032   0.271E+00    0.141E+01
RMM:   6    -0.155881406570E+02    0.28998E+01   -0.87678E+00 14412   0.161E+01    0.668E+00
RMM:   7    -0.155889552872E+02   -0.81463E-03   -0.75887E-01 16338   0.925E+00    0.238E+00
RMM:   8    -0.155270798474E+02    0.61875E-01   -0.32761E-01 20412   0.401E+00    0.133E+00
RMM:   9    -0.155400896849E+02   -0.13010E-01   -0.13904E-01 19487   0.298E+00    0.511E-01
RMM:  10    -0.155446019162E+02   -0.45122E-02   -0.53904E-02 21971   0.168E+00    0.263E-01
RMM:  11    -0.155472535459E+02   -0.26516E-02   -0.22207E-02 22111   0.901E-01    0.126E-01
RMM:  12    -0.155485595153E+02   -0.13060E-02   -0.92634E-03 22062   0.680E-01    0.530E-02
RMM:  13    -0.155491588093E+02   -0.59929E-03   -0.47981E-03 22388   0.412E-01    0.466E-02
RMM:  14    -0.155493831270E+02   -0.22432E-03   -0.20809E-03 21299   0.264E-01    0.173E-02
RMM:  15    -0.155495016432E+02   -0.11852E-03   -0.10590E-03 20224   0.179E-01    0.598E-03
RMM:  16    -0.155495621553E+02   -0.60512E-04   -0.52484E-04 19099   0.124E-01    0.671E-03
RMM:  17    -0.155495934450E+02   -0.31290E-04   -0.28275E-04 17985   0.895E-02    0.582E-03
RMM:  18    -0.155496104050E+02   -0.16960E-04   -0.15462E-04 17071   0.688E-02    0.612E-03
RMM:  19    -0.155496199756E+02   -0.95705E-05   -0.89716E-05 16194   0.559E-02
   1 F= -.15549620E+02 E0= -.15549620E+02  d E =0.000000E+00  mag=     0.0000
