 running on   24 total cores
 distrk:  each k-point on   24 cores,    1 groups
 distr:  one band on    6 cores,    4 groups
 using from now: INCAR     
 vasp.6.1.2 22Jul20 (build Mar 31 2021 18:09:49) complex                        
  
 POSCAR found type information on POSCAR LiO 
 POSCAR found :  2 types and       8 ions
 scaLAPACK will be used
 -----------------------------------------------------------------------------
|                                                                             |
|               ----> ADVICE to this user running VASP <----                  |
|                                                                             |
|     You have a (more or less) 'small supercell' and for smaller cells       |
|     it is recommended to use the reciprocal-space projection scheme!        |
|     The real-space optimization is not efficient for small cells and it     |
|     is also less accurate ...                                               |
|     Therefore, set LREAL=.FALSE. in the INCAR file.                         |
|                                                                             |
 -----------------------------------------------------------------------------

 LDA part: xc-table for Pade appr. of Perdew
 generate k-points for:   12   12    4
 POSCAR, INCAR and KPOINTS ok, starting setup
 FFT: planning ...
 WAVECAR not read
 entering main loop
       N       E                     dE             d eps       ncg     rms          rms(c)
DAV:   1     0.251460977446E+03    0.25146E+03   -0.17311E+04 18376   0.137E+03
DAV:   2    -0.146370457866E+02   -0.26610E+03   -0.25593E+03 21912   0.347E+02
DAV:   3    -0.375391451358E+02   -0.22902E+02   -0.22707E+02 29640   0.846E+01
DAV:   4    -0.392381284297E+02   -0.16990E+01   -0.16920E+01 27188   0.213E+01
DAV:   5    -0.392851415278E+02   -0.47013E-01   -0.47010E-01 26016   0.314E+00    0.178E+01
RMM:   6    -0.381689650576E+02    0.11162E+01   -0.45061E+00 20485   0.109E+01    0.783E+00
RMM:   7    -0.387753388683E+02   -0.60637E+00   -0.68101E-01 23135   0.507E+00    0.389E+00
RMM:   8    -0.388529630662E+02   -0.77624E-01   -0.30792E-01 27125   0.315E+00    0.156E+00
RMM:   9    -0.388635809571E+02   -0.10618E-01   -0.10506E-01 28787   0.205E+00    0.385E-01
RMM:  10    -0.388731213248E+02   -0.95404E-02   -0.53919E-02 32384   0.115E+00    0.187E-01
RMM:  11    -0.388769296337E+02   -0.38083E-02   -0.20672E-02 33068   0.669E-01    0.127E-01
RMM:  12    -0.388782358553E+02   -0.13062E-02   -0.86713E-03 34288   0.401E-01    0.915E-02
RMM:  13    -0.388786488226E+02   -0.41297E-03   -0.32190E-03 32836   0.273E-01    0.375E-02
RMM:  14    -0.388789094077E+02   -0.26059E-03   -0.16253E-03 33393   0.190E-01    0.906E-03
RMM:  15    -0.388789993730E+02   -0.89965E-04   -0.74609E-04 31652   0.112E-01    0.930E-03
RMM:  16    -0.388790334913E+02   -0.34118E-04   -0.31071E-04 30520   0.738E-02    0.600E-03
RMM:  17    -0.388790466276E+02   -0.13136E-04   -0.12313E-04 28179   0.510E-02    0.337E-03
RMM:  18    -0.388790509374E+02   -0.43098E-05   -0.44423E-05 23987   0.372E-02
   1 F= -.38879051E+02 E0= -.38879051E+02  d E =0.000000E+00  mag=    -0.0000
