   26   26    1    2
  0.1064790E+02  0.5126484E-09  0.7045869E-09  0.8447245E-09  0.5000000E-15
  1.000000000000000E-004
  CAR 
 unknown system                          
    128     71     88
 
  0.0000000E+00  0.0000000E+00  0.0000000E+00  0.7142857E-02
    1      -41.313316    -41.313354   1.000000   1.000000
    2      -41.312408    -41.312446   1.000000   1.000000
    3      -41.135193    -41.135259   1.000000   1.000000
    4      -41.133065    -41.133130   1.000000   1.000000
    5      -41.097680    -41.097762   1.000000   1.000000
    6      -41.081577    -41.081661   1.000000   1.000000
    7      -41.036625    -41.036674   1.000000   1.000000
    8      -41.036566    -41.036615   1.000000   1.000000
    9      -20.063490    -20.063483   1.000000   1.000000
   10      -19.996660    -19.996655   1.000000   1.000000
   11      -18.730006    -18.730003   1.000000   1.000000
   12      -18.692450    -18.692445   1.000000   1.000000
   13      -17.364366    -17.364365   1.000000   1.000000
   14      -17.285481    -17.285481   1.000000   1.000000
   15      -16.722497    -16.722502   1.000000   1.000000
   16      -16.686062    -16.686066   1.000000   1.000000
   17      -16.509475    -16.509482   1.000000   1.000000
   18      -16.498199    -16.498206   1.000000   1.000000
   19      -16.444298    -16.444307   1.000000   1.000000
   20      -16.426557    -16.426566   1.000000   1.000000
   21      -16.374908    -16.374916   1.000000   1.000000
   22      -16.371001    -16.371010   1.000000   1.000000
   23       -8.326122     -8.326114   1.000000   1.000000
   24       -8.291981     -8.291972   1.000000   1.000000
   25       -5.635150     -5.635094   1.000000   1.000000
   26       -5.171962     -5.171928   1.000000   1.000000
   27       -4.729964     -4.729925   1.000000   1.000000
   28       -4.592609     -4.592582   1.000000   1.000000
   29       -4.346220     -4.346195   1.000000   1.000000
   30       -4.152785     -4.152761   1.000000   1.000000
   31       -4.013870     -4.013853   1.000000   1.000000
   32       -4.000740     -4.000726   1.000000   1.000000
   33       -3.551628     -3.551601   1.000000   1.000000
   34       -3.467061     -3.467030   1.000000   1.000000
   35       -3.404645     -3.404621   1.000000   1.000000
   36       -3.247474     -3.247453   1.000000   1.000000
   37       -2.875474     -2.875449   1.000000   1.000000
   38       -2.576496     -2.576477   1.000000   1.000000
   39       -2.219790     -2.219781   1.000000   1.000000
   40       -1.936308     -1.936304   1.000000   1.000000
   41       -1.924115     -1.924113   1.000000   1.000000
   42       -1.619628     -1.619616   1.000000   1.000000
   43       -1.578278     -1.578255   1.000000   1.000000
   44       -1.376678     -1.376668   1.000000   1.000000
   45       -1.247666     -1.247664   1.000000   1.000000
   46       -1.177014     -1.177013   1.000000   1.000000
   47       -1.126830     -1.126827   1.000000   1.000000
   48       -0.907416     -0.907413   1.000000   1.000000
   49       -0.765815     -0.765812   1.000000   1.000000
   50       -0.727309     -0.727303   1.000000   1.000000
   51       -0.681177     -0.681177   1.000000   1.000000
   52       -0.403679     -0.403678   1.000000   1.000000
   53       -0.284263     -0.284263   1.000000   1.000000
   54       -0.030684     -0.030678   1.000000   1.000000
   55        0.078561      0.078553   1.000000   1.000000
   56        0.080215      0.080207   1.000000   1.000000
   57        0.243020      0.243014   1.000000   1.000000
   58        0.313914      0.313946   1.000000   1.000000
   59        0.329083      0.329097   1.000000   1.000000
   60        0.458428      0.458437   1.000000   1.000000
   61        0.534244      0.534251   1.000000   1.000000
   62        0.599025      0.599019   1.000000   1.000000
   63        0.830583      0.830578   1.000000   1.000000
   64        0.848903      0.848903   1.000000   1.000000
   65        6.942561      6.942598   0.000003   0.000002
   66        9.270128      9.270119   0.000000   0.000000
   67        9.276220      9.276222   0.000000   0.000000
   68        9.668976      9.669005   0.000000   0.000000
   69        9.675178      9.675179   0.000000   0.000000
   70        9.830724      9.830753   0.000000   0.000000
   71       10.124990     10.125022   0.000000   0.000000
   72       10.194206     10.194215   0.000000   0.000000
   73       10.512824     10.512839   0.000000   0.000000
   74       10.692521     10.692537   0.000000   0.000000
   75       10.818338     10.818364   0.000000   0.000000
   76       11.130949     11.130999   0.000000   0.000000
   77       11.290046     11.290051   0.000000   0.000000
   78       11.320910     11.320934   0.000000   0.000000
   79       11.717130     11.717164   0.000000   0.000000
   80       11.717871     11.717915   0.000000   0.000000
   81       11.941390     11.941402   0.000000   0.000000
   82       11.991131     11.991139   0.000000   0.000000
   83       12.284099     12.284115   0.000000   0.000000
   84       12.354546     12.354567   0.000000   0.000000
   85       12.442836     12.442851   0.000000   0.000000
   86       12.714905     12.715059   0.000000   0.000000
   87       12.933003     12.932887   0.000000   0.000000
   88       12.991534     12.988759   0.000000   0.000000
 
  0.1428571E+00  0.5160891E-17  0.8799293E-15  0.1428571E-01
    1      -41.313288    -41.313325   1.000000   1.000000
    2      -41.312385    -41.312423   1.000000   1.000000
    3      -41.135088    -41.135154   1.000000   1.000000
    4      -41.132993    -41.133058   1.000000   1.000000
    5      -41.097641    -41.097722   1.000000   1.000000
    6      -41.081673    -41.081757   1.000000   1.000000
    7      -41.036656    -41.036705   1.000000   1.000000
    8      -41.036558    -41.036607   1.000000   1.000000
    9      -20.057821    -20.057814   1.000000   1.000000
   10      -19.997216    -19.997210   1.000000   1.000000
   11      -18.728259    -18.728255   1.000000   1.000000
   12      -18.694290    -18.694285   1.000000   1.000000
   13      -17.357410    -17.357409   1.000000   1.000000
   14      -17.286686    -17.286686   1.000000   1.000000
   15      -16.719567    -16.719572   1.000000   1.000000
   16      -16.685671    -16.685676   1.000000   1.000000
   17      -16.518106    -16.518112   1.000000   1.000000
   18      -16.504745    -16.504752   1.000000   1.000000
   19      -16.446939    -16.446948   1.000000   1.000000
   20      -16.429710    -16.429719   1.000000   1.000000
   21      -16.379471    -16.379480   1.000000   1.000000
   22      -16.374195    -16.374204   1.000000   1.000000
   23       -8.332656     -8.332647   1.000000   1.000000
   24       -8.298147     -8.298138   1.000000   1.000000
   25       -5.615618     -5.615565   1.000000   1.000000
   26       -5.171346     -5.171314   1.000000   1.000000
   27       -4.720820     -4.720784   1.000000   1.000000
   28       -4.577480     -4.577454   1.000000   1.000000
   29       -4.325190     -4.325164   1.000000   1.000000
   30       -4.144952     -4.144928   1.000000   1.000000
   31       -4.004446     -4.004430   1.000000   1.000000
   32       -3.955454     -3.955436   1.000000   1.000000
   33       -3.495675     -3.495646   1.000000   1.000000
   34       -3.466164     -3.466131   1.000000   1.000000
   35       -3.349265     -3.349242   1.000000   1.000000
   36       -3.218709     -3.218686   1.000000   1.000000
   37       -2.871567     -2.871540   1.000000   1.000000
   38       -2.530833     -2.530814   1.000000   1.000000
   39       -2.184589     -2.184580   1.000000   1.000000
   40       -1.977185     -1.977181   1.000000   1.000000
   41       -1.904899     -1.904896   1.000000   1.000000
   42       -1.683846     -1.683831   1.000000   1.000000
   43       -1.593632     -1.593612   1.000000   1.000000
   44       -1.354213     -1.354205   1.000000   1.000000
   45       -1.286405     -1.286399   1.000000   1.000000
   46       -1.149421     -1.149420   1.000000   1.000000
   47       -1.118814     -1.118810   1.000000   1.000000
   48       -0.929715     -0.929712   1.000000   1.000000
   49       -0.841818     -0.841814   1.000000   1.000000
   50       -0.803059     -0.803056   1.000000   1.000000
   51       -0.747805     -0.747799   1.000000   1.000000
   52       -0.446527     -0.446527   1.000000   1.000000
   53       -0.256260     -0.256259   1.000000   1.000000
   54       -0.051475     -0.051469   1.000000   1.000000
   55        0.047772      0.047763   1.000000   1.000000
   56        0.076790      0.076784   1.000000   1.000000
   57        0.206036      0.206031   1.000000   1.000000
   58        0.269858      0.269879   1.000000   1.000000
   59        0.364661      0.364674   1.000000   1.000000
   60        0.454041      0.454049   1.000000   1.000000
   61        0.552036      0.552044   1.000000   1.000000
   62        0.604751      0.604745   1.000000   1.000000
   63        0.822713      0.822708   1.000000   1.000000
   64        0.861375      0.861375   1.000000   1.000000
   65        7.142881      7.142915  -0.000000  -0.000000
   66        9.158765      9.158763   0.000000   0.000000
   67        9.274913      9.274906   0.000000   0.000000
   68        9.590431      9.590454   0.000000   0.000000
   69        9.625161      9.625168   0.000000   0.000000
   70        9.896023      9.896046   0.000000   0.000000
   71       10.059224     10.059242   0.000000   0.000000
   72       10.410097     10.410117   0.000000   0.000000
   73       10.549795     10.549813   0.000000   0.000000
   74       10.764043     10.764058   0.000000   0.000000
   75       10.839993     10.840018   0.000000   0.000000
   76       11.048558     11.048590   0.000000   0.000000
   77       11.159246     11.159270   0.000000   0.000000
   78       11.348806     11.348818   0.000000   0.000000
   79       11.427642     11.427657   0.000000   0.000000
   80       11.664953     11.664982   0.000000   0.000000
   81       11.802283     11.802305   0.000000   0.000000
   82       11.819069     11.819093   0.000000   0.000000
   83       12.043386     12.043416   0.000000   0.000000
   84       12.356599     12.356627   0.000000   0.000000
   85       12.570216     12.570244   0.000000   0.000000
   86       12.684840     12.684875   0.000000   0.000000
   87       12.821709     12.821783   0.000000   0.000000
   88       13.178453     13.180082   0.000000   0.000000
 
  0.2857143E+00  0.7535117E-18  0.1753456E-14  0.1428571E-01
    1      -41.313248    -41.313286   1.000000   1.000000
    2      -41.312384    -41.312421   1.000000   1.000000
    3      -41.134866    -41.134933   1.000000   1.000000
    4      -41.132865    -41.132930   1.000000   1.000000
    5      -41.097582    -41.097664   1.000000   1.000000
    6      -41.081950    -41.082034   1.000000   1.000000
    7      -41.036745    -41.036794   1.000000   1.000000
    8      -41.036596    -41.036645   1.000000   1.000000
    9      -20.043494    -20.043488   1.000000   1.000000
   10      -20.000211    -20.000206   1.000000   1.000000
   11      -18.724031    -18.724027   1.000000   1.000000
   12      -18.698936    -18.698931   1.000000   1.000000
   13      -17.339816    -17.339816   1.000000   1.000000
   14      -17.291364    -17.291365   1.000000   1.000000
   15      -16.712169    -16.712174   1.000000   1.000000
   16      -16.684975    -16.684980   1.000000   1.000000
   17      -16.537141    -16.537146   1.000000   1.000000
   18      -16.521490    -16.521496   1.000000   1.000000
   19      -16.452031    -16.452039   1.000000   1.000000
   20      -16.437767    -16.437776   1.000000   1.000000
   21      -16.388782    -16.388790   1.000000   1.000000
   22      -16.382071    -16.382078   1.000000   1.000000
   23       -8.346934     -8.346925   1.000000   1.000000
   24       -8.312658     -8.312649   1.000000   1.000000
   25       -5.570525     -5.570480   1.000000   1.000000
   26       -5.173377     -5.173344   1.000000   1.000000
   27       -4.689322     -4.689293   1.000000   1.000000
   28       -4.556426     -4.556401   1.000000   1.000000
   29       -4.283974     -4.283947   1.000000   1.000000
   30       -4.132207     -4.132183   1.000000   1.000000
   31       -3.937399     -3.937384   1.000000   1.000000
   32       -3.873485     -3.873465   1.000000   1.000000
   33       -3.510691     -3.510652   1.000000   1.000000
   34       -3.314448     -3.314420   1.000000   1.000000
   35       -3.218370     -3.218342   1.000000   1.000000
   36       -3.127136     -3.127114   1.000000   1.000000
   37       -2.848971     -2.848940   1.000000   1.000000
   38       -2.445049     -2.445032   1.000000   1.000000
   39       -2.131963     -2.131955   1.000000   1.000000
   40       -1.990113     -1.990103   1.000000   1.000000
   41       -1.912702     -1.912694   1.000000   1.000000
   42       -1.760072     -1.760057   1.000000   1.000000
   43       -1.612141     -1.612126   1.000000   1.000000
   44       -1.412417     -1.412407   1.000000   1.000000
   45       -1.312281     -1.312271   1.000000   1.000000
   46       -1.194749     -1.194745   1.000000   1.000000
   47       -1.188628     -1.188622   1.000000   1.000000
   48       -1.041560     -1.041554   1.000000   1.000000
   49       -0.954661     -0.954651   1.000000   1.000000
   50       -0.910689     -0.910685   1.000000   1.000000
   51       -0.823875     -0.823869   1.000000   1.000000
   52       -0.543234     -0.543234   1.000000   1.000000
   53       -0.212437     -0.212435   1.000000   1.000000
   54       -0.100578     -0.100574   1.000000   1.000000
   55       -0.026556     -0.026566   1.000000   1.000000
   56        0.049411      0.049405   1.000000   1.000000
   57        0.157554      0.157552   1.000000   1.000000
   58        0.224056      0.224066   1.000000   1.000000
   59        0.378407      0.378413   1.000000   1.000000
   60        0.436441      0.436444   1.000000   1.000000
   61        0.599779      0.599781   1.000000   1.000000
   62        0.618436      0.618430   1.000000   1.000000
   63        0.824634      0.824629   1.000000   1.000000
   64        0.873280      0.873278   1.000000   1.000000
   65        7.652368      7.652392   0.000000   0.000000
   66        9.056763      9.056764   0.000000   0.000000
   67        9.239696      9.239691   0.000000   0.000000
   68        9.444474      9.444483   0.000000   0.000000
   69        9.697243      9.697248   0.000000   0.000000
   70        9.874689      9.874703   0.000000   0.000000
   71       10.175456     10.175464   0.000000   0.000000
   72       10.388100     10.388131   0.000000   0.000000
   73       10.461311     10.461335   0.000000   0.000000
   74       10.614479     10.614478   0.000000   0.000000
   75       10.787254     10.787278   0.000000   0.000000
   76       10.911742     10.911757   0.000000   0.000000
   77       11.058157     11.058177   0.000000   0.000000
   78       11.188447     11.188459   0.000000   0.000000
   79       11.314021     11.314051   0.000000   0.000000
   80       11.507029     11.507070   0.000000   0.000000
   81       11.594936     11.594957   0.000000   0.000000
   82       11.696386     11.696412   0.000000   0.000000
   83       11.943435     11.943484   0.000000   0.000000
   84       12.263296     12.263319   0.000000   0.000000
   85       12.491675     12.491703   0.000000   0.000000
   86       12.728404     12.728450   0.000000   0.000000
   87       13.037055     13.037110   0.000000   0.000000
   88       13.308770     13.307801   0.000000   0.000000
 
  0.4285714E+00  0.5893727E-17  0.2611925E-14  0.1428571E-01
    1      -41.313197    -41.313234   1.000000   1.000000
    2      -41.312368    -41.312405   1.000000   1.000000
    3      -41.134665    -41.134731   1.000000   1.000000
    4      -41.132746    -41.132811   1.000000   1.000000
    5      -41.097525    -41.097607   1.000000   1.000000
    6      -41.082161    -41.082244   1.000000   1.000000
    7      -41.036804    -41.036852   1.000000   1.000000
    8      -41.036614    -41.036663   1.000000   1.000000
    9      -20.027647    -20.027641   1.000000   1.000000
   10      -20.006873    -20.006867   1.000000   1.000000
   11      -18.719783    -18.719780   1.000000   1.000000
   12      -18.703516    -18.703513   1.000000   1.000000
   13      -17.319020    -17.319020   1.000000   1.000000
   14      -17.301476    -17.301477   1.000000   1.000000
   15      -16.704761    -16.704765   1.000000   1.000000
   16      -16.684794    -16.684799   1.000000   1.000000
   17      -16.552354    -16.552358   1.000000   1.000000
   18      -16.536420    -16.536426   1.000000   1.000000
   19      -16.453481    -16.453490   1.000000   1.000000
   20      -16.446792    -16.446800   1.000000   1.000000
   21      -16.396910    -16.396917   1.000000   1.000000
   22      -16.387303    -16.387310   1.000000   1.000000
   23       -8.358045     -8.358037   1.000000   1.000000
   24       -8.324810     -8.324802   1.000000   1.000000
   25       -5.531284     -5.531246   1.000000   1.000000
   26       -5.181336     -5.181302   1.000000   1.000000
   27       -4.652268     -4.652243   1.000000   1.000000
   28       -4.552392     -4.552369   1.000000   1.000000
   29       -4.256964     -4.256936   1.000000   1.000000
   30       -4.127525     -4.127499   1.000000   1.000000
   31       -3.842027     -3.842014   1.000000   1.000000
   32       -3.804463     -3.804441   1.000000   1.000000
   33       -3.550151     -3.550109   1.000000   1.000000
   34       -3.193792     -3.193762   1.000000   1.000000
   35       -3.104457     -3.104425   1.000000   1.000000
   36       -2.994557     -2.994535   1.000000   1.000000
   37       -2.813281     -2.813247   1.000000   1.000000
   38       -2.397198     -2.397182   1.000000   1.000000
   39       -2.126871     -2.126859   1.000000   1.000000
   40       -1.932784     -1.932777   1.000000   1.000000
   41       -1.889676     -1.889660   1.000000   1.000000
   42       -1.824739     -1.824725   1.000000   1.000000
   43       -1.625197     -1.625188   1.000000   1.000000
   44       -1.519593     -1.519582   1.000000   1.000000
   45       -1.418096     -1.418083   1.000000   1.000000
   46       -1.359068     -1.359057   1.000000   1.000000
   47       -1.261625     -1.261619   1.000000   1.000000
   48       -1.105127     -1.105118   1.000000   1.000000
   49       -0.987675     -0.987661   1.000000   1.000000
   50       -0.939648     -0.939638   1.000000   1.000000
   51       -0.811041     -0.811041   1.000000   1.000000
   52       -0.655901     -0.655900   1.000000   1.000000
   53       -0.200042     -0.200037   1.000000   1.000000
   54       -0.134975     -0.134979   1.000000   1.000000
   55       -0.083079     -0.083086   1.000000   1.000000
   56        0.017430      0.017423   1.000000   1.000000
   57        0.147477      0.147477   1.000000   1.000000
   58        0.180565      0.180569   1.000000   1.000000
   59        0.375934      0.375939   1.000000   1.000000
   60        0.438988      0.438986   1.000000   1.000000
   61        0.618499      0.618490   1.000000   1.000000
   62        0.632736      0.632732   1.000000   1.000000
   63        0.846970      0.846965   1.000000   1.000000
   64        0.869984      0.869979   1.000000   1.000000
   65        8.202469      8.202479   0.000000   0.000000
   66        8.994173      8.994188   0.000000   0.000000
   67        9.322528      9.322523   0.000000   0.000000
   68        9.491999      9.491993   0.000000   0.000000
   69        9.672633      9.672637   0.000000   0.000000
   70        9.817939      9.817938   0.000000   0.000000
   71        9.963846      9.963851   0.000000   0.000000
   72       10.200488     10.200485   0.000000   0.000000
   73       10.314641     10.314663   0.000000   0.000000
   74       10.430728     10.430766   0.000000   0.000000
   75       10.571125     10.571157   0.000000   0.000000
   76       10.683031     10.683051   0.000000   0.000000
   77       11.059424     11.059438   0.000000   0.000000
   78       11.264505     11.264517   0.000000   0.000000
   79       11.342551     11.342589   0.000000   0.000000
   80       11.462698     11.462727   0.000000   0.000000
   81       11.599560     11.599604   0.000000   0.000000
   82       11.735515     11.735533   0.000000   0.000000
   83       11.912461     11.912510   0.000000   0.000000
   84       12.199818     12.199833   0.000000   0.000000
   85       12.442819     12.442848   0.000000   0.000000
   86       12.815718     12.815787   0.000000   0.000000
   87       13.270066     13.269253   0.000000   0.000000
   88       13.535976     13.521177   0.000000   0.000000
 
 -0.2163648E-20  0.2000000E+00 -0.7081194E-14  0.1428571E-01
    1      -41.313226    -41.313263   1.000000   1.000000
    2      -41.312490    -41.312528   1.000000   1.000000
    3      -41.135168    -41.135234   1.000000   1.000000
    4      -41.133063    -41.133129   1.000000   1.000000
    5      -41.097681    -41.097763   1.000000   1.000000
    6      -41.081617    -41.081701   1.000000   1.000000
    7      -41.036619    -41.036668   1.000000   1.000000
    8      -41.036538    -41.036587   1.000000   1.000000
    9      -20.053801    -20.053794   1.000000   1.000000
   10      -20.001411    -20.001406   1.000000   1.000000
   11      -18.727050    -18.727045   1.000000   1.000000
   12      -18.712776    -18.712772   1.000000   1.000000
   13      -17.344438    -17.344437   1.000000   1.000000
   14      -17.295526    -17.295526   1.000000   1.000000
   15      -16.730002    -16.730006   1.000000   1.000000
   16      -16.670496    -16.670502   1.000000   1.000000
   17      -16.511312    -16.511319   1.000000   1.000000
   18      -16.501026    -16.501033   1.000000   1.000000
   19      -16.442423    -16.442432   1.000000   1.000000
   20      -16.427185    -16.427194   1.000000   1.000000
   21      -16.375483    -16.375492   1.000000   1.000000
   22      -16.368010    -16.368019   1.000000   1.000000
   23       -8.331365     -8.331354   1.000000   1.000000
   24       -8.318129     -8.318120   1.000000   1.000000
   25       -5.622368     -5.622314   1.000000   1.000000
   26       -5.151100     -5.151068   1.000000   1.000000
   27       -4.731824     -4.731785   1.000000   1.000000
   28       -4.580412     -4.580383   1.000000   1.000000
   29       -4.334562     -4.334537   1.000000   1.000000
   30       -4.118630     -4.118606   1.000000   1.000000
   31       -4.025849     -4.025832   1.000000   1.000000
   32       -4.012522     -4.012505   1.000000   1.000000
   33       -3.557936     -3.557906   1.000000   1.000000
   34       -3.540430     -3.540404   1.000000   1.000000
   35       -3.398675     -3.398654   1.000000   1.000000
   36       -3.197969     -3.197946   1.000000   1.000000
   37       -2.842327     -2.842302   1.000000   1.000000
   38       -2.602072     -2.602052   1.000000   1.000000
   39       -2.084977     -2.084968   1.000000   1.000000
   40       -1.938191     -1.938186   1.000000   1.000000
   41       -1.932307     -1.932304   1.000000   1.000000
   42       -1.798631     -1.798623   1.000000   1.000000
   43       -1.645351     -1.645327   1.000000   1.000000
   44       -1.332332     -1.332327   1.000000   1.000000
   45       -1.255147     -1.255140   1.000000   1.000000
   46       -1.107900     -1.107899   1.000000   1.000000
   47       -0.972674     -0.972669   1.000000   1.000000
   48       -0.937635     -0.937632   1.000000   1.000000
   49       -0.772960     -0.772959   1.000000   1.000000
   50       -0.738411     -0.738407   1.000000   1.000000
   51       -0.706454     -0.706454   1.000000   1.000000
   52       -0.494474     -0.494474   1.000000   1.000000
   53       -0.294700     -0.294698   1.000000   1.000000
   54       -0.040831     -0.040829   1.000000   1.000000
   55        0.037678      0.037673   1.000000   1.000000
   56        0.093206      0.093202   1.000000   1.000000
   57        0.231242      0.231242   1.000000   1.000000
   58        0.309783      0.309802   1.000000   1.000000
   59        0.368906      0.368925   1.000000   1.000000
   60        0.437270      0.437282   1.000000   1.000000
   61        0.535356      0.535359   1.000000   1.000000
   62        0.621433      0.621429   1.000000   1.000000
   63        0.810241      0.810239   1.000000   1.000000
   64        0.847659      0.847657   1.000000   1.000000
   65        7.177465      7.177498  -0.000000  -0.000000
   66        8.935449      8.935435   0.000000   0.000000
   67        9.224953      9.224964   0.000000   0.000000
   68        9.608199      9.608211   0.000000   0.000000
   69        9.786148      9.786176   0.000000   0.000000
   70        9.930982      9.931003   0.000000   0.000000
   71       10.128916     10.128936   0.000000   0.000000
   72       10.252538     10.252562   0.000000   0.000000
   73       10.533828     10.533836   0.000000   0.000000
   74       10.606500     10.606520   0.000000   0.000000
   75       10.824559     10.824584   0.000000   0.000000
   76       11.106295     11.106334   0.000000   0.000000
   77       11.176465     11.176478   0.000000   0.000000
   78       11.470382     11.470412   0.000000   0.000000
   79       11.565694     11.565706   0.000000   0.000000
   80       11.833770     11.833798   0.000000   0.000000
   81       11.976245     11.976282   0.000000   0.000000
   82       12.131938     12.131950   0.000000   0.000000
   83       12.210812     12.210836   0.000000   0.000000
   84       12.343847     12.343873   0.000000   0.000000
   85       12.550593     12.550648   0.000000   0.000000
   86       12.784580     12.790479   0.000000   0.000000
   87       12.870952     12.871970   0.000000   0.000000
   88       13.037615     13.152326   0.000000   0.000000
 
  0.1428571E+00  0.2000000E+00 -0.6215602E-14  0.1428571E-01
    1      -41.313201    -41.313239   1.000000   1.000000
    2      -41.312479    -41.312517   1.000000   1.000000
    3      -41.135055    -41.135122   1.000000   1.000000
    4      -41.133005    -41.133070   1.000000   1.000000
    5      -41.097623    -41.097705   1.000000   1.000000
    6      -41.081774    -41.081857   1.000000   1.000000
    7      -41.036657    -41.036706   1.000000   1.000000
    8      -41.036527    -41.036576   1.000000   1.000000
    9      -20.043439    -20.043432   1.000000   1.000000
   10      -20.004291    -20.004286   1.000000   1.000000
   11      -18.742324    -18.742318   1.000000   1.000000
   12      -18.705215    -18.705212   1.000000   1.000000
   13      -17.328645    -17.328644   1.000000   1.000000
   14      -17.302242    -17.302243   1.000000   1.000000
   15      -16.726046    -16.726051   1.000000   1.000000
   16      -16.666765    -16.666771   1.000000   1.000000
   17      -16.524809    -16.524815   1.000000   1.000000
   18      -16.504484    -16.504491   1.000000   1.000000
   19      -16.442283    -16.442292   1.000000   1.000000
   20      -16.432848    -16.432857   1.000000   1.000000
   21      -16.379885    -16.379894   1.000000   1.000000
   22      -16.370485    -16.370493   1.000000   1.000000
   23       -8.359275     -8.359265   1.000000   1.000000
   24       -8.319018     -8.319010   1.000000   1.000000
   25       -5.601438     -5.601388   1.000000   1.000000
   26       -5.128562     -5.128530   1.000000   1.000000
   27       -4.719107     -4.719071   1.000000   1.000000
   28       -4.563548     -4.563520   1.000000   1.000000
   29       -4.315836     -4.315810   1.000000   1.000000
   30       -4.101862     -4.101839   1.000000   1.000000
   31       -4.013131     -4.013109   1.000000   1.000000
   32       -4.004788     -4.004774   1.000000   1.000000
   33       -3.577975     -3.577943   1.000000   1.000000
   34       -3.451462     -3.451437   1.000000   1.000000
   35       -3.317610     -3.317588   1.000000   1.000000
   36       -3.197513     -3.197489   1.000000   1.000000
   37       -2.805242     -2.805215   1.000000   1.000000
   38       -2.551784     -2.551766   1.000000   1.000000
   39       -2.043130     -2.043123   1.000000   1.000000
   40       -1.977264     -1.977256   1.000000   1.000000
   41       -1.891530     -1.891523   1.000000   1.000000
   42       -1.820713     -1.820706   1.000000   1.000000
   43       -1.696024     -1.696000   1.000000   1.000000
   44       -1.368892     -1.368887   1.000000   1.000000
   45       -1.229022     -1.229012   1.000000   1.000000
   46       -1.131550     -1.131548   1.000000   1.000000
   47       -0.970792     -0.970787   1.000000   1.000000
   48       -0.935197     -0.935194   1.000000   1.000000
   49       -0.851098     -0.851096   1.000000   1.000000
   50       -0.837020     -0.837017   1.000000   1.000000
   51       -0.755139     -0.755135   1.000000   1.000000
   52       -0.577377     -0.577378   1.000000   1.000000
   53       -0.257686     -0.257681   1.000000   1.000000
   54       -0.074793     -0.074791   1.000000   1.000000
   55       -0.012552     -0.012558   1.000000   1.000000
   56        0.094469      0.094468   1.000000   1.000000
   57        0.204456      0.204456   1.000000   1.000000
   58        0.261595      0.261608   1.000000   1.000000
   59        0.389917      0.389928   1.000000   1.000000
   60        0.453475      0.453490   1.000000   1.000000
   61        0.571481      0.571483   1.000000   1.000000
   62        0.603020      0.603016   1.000000   1.000000
   63        0.794912      0.794909   1.000000   1.000000
   64        0.864487      0.864485   1.000000   1.000000
   65        7.502114      7.502140   0.000000   0.000000
   66        8.811327      8.811313   0.000000   0.000000
   67        9.025628      9.025638   0.000000   0.000000