 running on    8 total cores
 distrk:  each k-point on    8 cores,    1 groups
 distr:  one band on    1 cores,    8 groups
 using from now: INCAR     
 vasp.6.1.2 22Jul20 (build Mar 20 2021 11:25:07) complex                        
  
 POSCAR found type information on POSCAR LiP 
 POSCAR found :  2 types and      16 ions
 scaLAPACK will be used
 -----------------------------------------------------------------------------
|                                                                             |
|           W    W    AA    RRRRR   N    N  II  N    N   GGGG   !!!           |
|           W    W   A  A   R    R  NN   N  II  NN   N  G    G  !!!           |
|           W    W  A    A  R    R  N N  N  II  N N  N  G       !!!           |
|           W WW W  AAAAAA  RRRRR   N  N N  II  N  N N  G  GGG   !            |
|           WW  WW  A    A  R   R   N   NN  II  N   NN  G    G                |
|           W    W  A    A  R    R  N    N  II  N    N   GGGG   !!!           |
|                                                                             |
|     The value NCORE = 6 specified in the INCAR file was overwritten,        |
|     because it was not compatible with the 8 processes available:           |
|     NCORE = 1                                                               |
|     was used instead, please check that this makes sense for your           |
|     machine.                                                                |
|                                                                             |
 -----------------------------------------------------------------------------

 -----------------------------------------------------------------------------
|                                                                             |
|           W    W    AA    RRRRR   N    N  II  N    N   GGGG   !!!           |
|           W    W   A  A   R    R  NN   N  II  NN   N  G    G  !!!           |
|           W    W  A    A  R    R  N N  N  II  N N  N  G       !!!           |
|           W WW W  AAAAAA  RRRRR   N  N N  II  N  N N  G  GGG   !            |
|           WW  WW  A    A  R   R   N   NN  II  N   NN  G    G                |
|           W    W  A    A  R    R  N    N  II  N    N   GGGG   !!!           |
|                                                                             |
|     For optimal performance we recommend to set                             |
|       NCORE = 4 - approx SQRT(number of cores).                             |
|     NCORE specifies how many cores store one orbital (NPAR=cpu/NCORE).      |
|     This setting can greatly improve the performance of VASP for DFT.       |
|     The default, NCORE=1 might be grossly inefficient on modern             |
|     multi-core architectures or massively parallel machines. Do your        |
|     own testing!!!!                                                         |
|     Unfortunately you need to use the default for GW and RPA                |
|     calculations (for HF NCORE is supported but not extensively tested      |
|     yet).                                                                   |
|                                                                             |
 -----------------------------------------------------------------------------

 LDA part: xc-table for Pade appr. of Perdew
 generate k-points for:    7    7    4
 POSCAR, INCAR and KPOINTS ok, starting setup
 FFT: planning ...
 WAVECAR not read
 entering main loop
       N       E                     dE             d eps       ncg     rms          rms(c)
DAV:   1     0.400729887526E+03    0.40073E+03   -0.25965E+04 11520   0.132E+03
DAV:   2    -0.403297380997E+01   -0.40476E+03   -0.37016E+03 12728   0.321E+02
DAV:   3    -0.558293706808E+02   -0.51796E+02   -0.51109E+02 16520   0.885E+01
DAV:   4    -0.632918866963E+02   -0.74625E+01   -0.73859E+01 19800   0.324E+01
DAV:   5    -0.639044298826E+02   -0.61254E+00   -0.61227E+00 15896   0.733E+00    0.219E+01
RMM:   6    -0.652319027323E+02   -0.13275E+01   -0.22446E+00 13970   0.591E+00    0.119E+01
RMM:   7    -0.665151812122E+02   -0.12833E+01   -0.55308E-01 16596   0.364E+00    0.640E+00
RMM:   8    -0.667269703882E+02   -0.21179E+00   -0.87696E-01 18375   0.335E+00    0.116E+00
RMM:   9    -0.667674980868E+02   -0.40528E-01   -0.14151E-01 19575   0.171E+00    0.534E-01
RMM:  10    -0.667784566430E+02   -0.10959E-01   -0.74405E-02 20784   0.945E-01    0.273E-01
RMM:  11    -0.667815242810E+02   -0.30676E-02   -0.27089E-02 20790   0.603E-01    0.177E-01
RMM:  12    -0.667828739468E+02   -0.13497E-02   -0.12946E-02 21647   0.408E-01    0.114E-01
RMM:  13    -0.667835226114E+02   -0.64866E-03   -0.57185E-03 21609   0.275E-01    0.476E-02
RMM:  14    -0.667838728532E+02   -0.35024E-03   -0.30000E-03 21547   0.184E-01    0.155E-02
RMM:  15    -0.667840416904E+02   -0.16884E-03   -0.15043E-03 20077   0.127E-01    0.155E-02
RMM:  16    -0.667841291445E+02   -0.87454E-04   -0.76668E-04 19899   0.912E-02    0.204E-02
RMM:  17    -0.667841803443E+02   -0.51200E-04   -0.41914E-04 19270   0.686E-02    0.342E-02
RMM:  18    -0.667842079510E+02   -0.27607E-04   -0.21261E-04 16708   0.538E-02    0.433E-02
RMM:  19    -0.667842414716E+02   -0.33521E-04   -0.19507E-04 18931   0.505E-02    0.710E-02
RMM:  20    -0.667842505236E+02   -0.90520E-05   -0.77352E-05 14536   0.400E-02
   1 F= -.66784251E+02 E0= -.66784251E+02  d E =0.000000E+00  mag=    -0.0002
