       N       E                     dE             d eps       ncg     rms          rms(c)
DAV:   1     0.105499134831E+04    0.10550E+04   -0.68353E+04  5856   0.132E+03
DAV:   2    -0.286452701709E+02   -0.10836E+04   -0.10008E+04  6840   0.286E+02
DAV:   3    -0.166163712708E+03   -0.13752E+03   -0.13579E+03  7932   0.962E+01
DAV:   4    -0.181835178198E+03   -0.15671E+02   -0.15573E+02 10416   0.288E+01
DAV:   5    -0.185112069838E+03   -0.32769E+01   -0.32750E+01  9752   0.863E+00    0.330E+01
DAV:   6    -0.185587271650E+03   -0.47520E+00   -0.93044E+00  7648   0.711E+00    0.180E+01
DAV:   7    -0.187746485851E+03   -0.21592E+01   -0.31359E+00  7600   0.426E+00    0.108E+01
DAV:   8    -0.188619283773E+03   -0.87280E+00   -0.13815E+00  7040   0.305E+00    0.247E+00
DAV:   9    -0.188701681250E+03   -0.82397E-01   -0.20538E-01  8232   0.134E+00    0.109E+00
DAV:  10    -0.188716418359E+03   -0.14737E-01   -0.37552E-02  7744   0.507E-01    0.395E-01
DAV:  11    -0.188720849533E+03   -0.44312E-02   -0.57985E-03  7128   0.240E-01    0.202E-01
DAV:  12    -0.188723134460E+03   -0.22849E-02   -0.23197E-03  7888   0.135E-01    0.105E-01
DAV:  13    -0.188724209234E+03   -0.10748E-02   -0.82120E-04  7208   0.734E-02    0.418E-02
DAV:  14    -0.188724538951E+03   -0.32972E-03   -0.30269E-04  6920   0.431E-02    0.231E-02
DAV:  15    -0.188724631279E+03   -0.92327E-04   -0.10294E-04  6096   0.259E-02    0.115E-02
DAV:  16    -0.188724651452E+03   -0.20173E-04   -0.22032E-05  5744   0.136E-02    0.529E-03
DAV:  17    -0.188724656187E+03   -0.47346E-05   -0.55334E-06  4440   0.765E-03
   1 F= -.18872466E+03 E0= -.18872466E+03  d E =0.000000E+00  mag=    -0.0003
