 running on   12 total cores
 distrk:  each k-point on   12 cores,    1 groups
 distr:  one band on    6 cores,    2 groups
 using from now: INCAR     
 vasp.6.1.2 22Jul20 (build Mar 20 2021 11:25:07) complex                        
  
 POSCAR found type information on POSCAR LiO 
 POSCAR found :  2 types and       8 ions
 scaLAPACK will be used
 -----------------------------------------------------------------------------
|                                                                             |
|               ----> ADVICE to this user running VASP <----                  |
|                                                                             |
|     You have a (more or less) 'small supercell' and for smaller cells       |
|     it is recommended to use the reciprocal-space projection scheme!        |
|     The real-space optimization is not efficient for small cells and it     |
|     is also less accurate ...                                               |
|     Therefore, set LREAL=.FALSE. in the INCAR file.                         |
|                                                                             |
 -----------------------------------------------------------------------------

 LDA part: xc-table for Pade appr. of Perdew
 generate k-points for:   13   12    4
 POSCAR, INCAR and KPOINTS ok, starting setup
 FFT: planning ...
 WAVECAR not read
 entering main loop
       N       E                     dE             d eps       ncg     rms          rms(c)
DAV:   1     0.260699308232E+03    0.26070E+03   -0.17950E+04 24648   0.149E+03
DAV:   2    -0.149057167053E+02   -0.27561E+03   -0.26644E+03 29554   0.377E+02
DAV:   3    -0.375517454631E+02   -0.22646E+02   -0.22496E+02 42326   0.893E+01
DAV:   4    -0.389160012836E+02   -0.13643E+01   -0.13613E+01 34312   0.208E+01
DAV:   5    -0.389552607996E+02   -0.39260E-01   -0.39256E-01 35790   0.294E+00    0.179E+01
RMM:   6    -0.377566781930E+02    0.11986E+01   -0.49561E+00 27154   0.122E+01    0.795E+00
RMM:   7    -0.383824975399E+02   -0.62582E+00   -0.89792E-01 31226   0.601E+00    0.396E+00
RMM:   8    -0.384605896322E+02   -0.78092E-01   -0.40794E-01 37564   0.372E+00    0.158E+00
RMM:   9    -0.384703269479E+02   -0.97373E-02   -0.14419E-01 39910   0.235E+00    0.416E-01
RMM:  10    -0.384816935079E+02   -0.11367E-01   -0.76912E-02 44125   0.140E+00    0.211E-01
RMM:  11    -0.384860996778E+02   -0.44062E-02   -0.29080E-02 45467   0.822E-01    0.162E-01
RMM:  12    -0.384877314470E+02   -0.16318E-02   -0.12724E-02 46771   0.493E-01    0.120E-01
RMM:  13    -0.384881585553E+02   -0.42711E-03   -0.43254E-03 44245   0.348E-01    0.566E-02
WARNING in EDDRMM: call to ZHEGV failed, returncode =   8  4      4
RMM:  14    -0.384885191674E+02   -0.36061E-03   -0.24718E-03 44387   0.248E-01    0.953E-03
RMM:  15    -0.384886509377E+02   -0.13177E-03   -0.12025E-03 42808   0.146E-01    0.113E-02
RMM:  16    -0.384887022972E+02   -0.51360E-04   -0.48879E-04 41592   0.941E-02    0.103E-02
RMM:  17    -0.384887171243E+02   -0.14827E-04   -0.18331E-04 40282   0.650E-02    0.469E-03
RMM:  18    -0.384887240308E+02   -0.69065E-05   -0.70854E-05 32138   0.447E-02
   1 F= -.38488724E+02 E0= -.38488724E+02  d E =0.000000E+00  mag=    -0.0000
