       N       E                     dE             d eps       ncg     rms          rms(c)
DAV:   1     0.104042592328E+04    0.10404E+04   -0.67871E+04  5856   0.131E+03
DAV:   2    -0.277630969600E+02   -0.10682E+04   -0.98823E+03  6880   0.280E+02
DAV:   3    -0.164315536291E+03   -0.13655E+03   -0.13470E+03  7910   0.952E+01
DAV:   4    -0.179923615001E+03   -0.15608E+02   -0.15509E+02 10296   0.290E+01
DAV:   5    -0.183378996955E+03   -0.34554E+01   -0.34533E+01  9904   0.872E+00    0.315E+01
DAV:   6    -0.183894738621E+03   -0.51574E+00   -0.91352E+00  7592   0.722E+00    0.171E+01
DAV:   7    -0.186014596139E+03   -0.21199E+01   -0.32082E+00  7648   0.430E+00    0.101E+01
DAV:   8    -0.186877867975E+03   -0.86327E+00   -0.13466E+00  7240   0.301E+00    0.254E+00
DAV:   9    -0.186978213500E+03   -0.10035E+00   -0.22045E-01  8160   0.140E+00    0.104E+00
DAV:  10    -0.186995629620E+03   -0.17416E-01   -0.37696E-02  8216   0.518E-01    0.397E-01
DAV:  11    -0.187000849963E+03   -0.52203E-02   -0.60557E-03  7096   0.242E-01    0.212E-01
DAV:  12    -0.187003802578E+03   -0.29526E-02   -0.26887E-03  7520   0.144E-01    0.103E-01
DAV:  13    -0.187005019667E+03   -0.12171E-02   -0.98566E-04  7184   0.804E-02    0.416E-02
DAV:  14    -0.187005349452E+03   -0.32979E-03   -0.30186E-04  6960   0.435E-02    0.253E-02
DAV:  15    -0.187005462555E+03   -0.11310E-03   -0.12919E-04  6216   0.295E-02    0.115E-02
DAV:  16    -0.187005487239E+03   -0.24684E-04   -0.29513E-05  5920   0.160E-02    0.538E-03
DAV:  17    -0.187005492708E+03   -0.54695E-05   -0.70290E-06  4600   0.895E-03
   1 F= -.18700549E+03 E0= -.18700549E+03  d E =0.000000E+00  mag=    -0.0004
