       N       E                     dE             d eps       ncg     rms          rms(c)
DAV:   1     0.106408377695E+04    0.10641E+04   -0.68787E+04  5856   0.133E+03
DAV:   2    -0.286505145959E+02   -0.10927E+04   -0.10078E+04  6840   0.289E+02
DAV:   3    -0.166439444056E+03   -0.13779E+03   -0.13602E+03  7948   0.973E+01
DAV:   4    -0.182363983320E+03   -0.15925E+02   -0.15825E+02 10616   0.290E+01
DAV:   5    -0.185456458367E+03   -0.30925E+01   -0.30909E+01  9520   0.844E+00    0.342E+01
DAV:   6    -0.185769055651E+03   -0.31260E+00   -0.93334E+00  7648   0.709E+00    0.188E+01
DAV:   7    -0.187970667688E+03   -0.22016E+01   -0.32323E+00  7584   0.430E+00    0.113E+01
DAV:   8    -0.188847724100E+03   -0.87706E+00   -0.14267E+00  7000   0.309E+00    0.248E+00
DAV:   9    -0.188922858786E+03   -0.75135E-01   -0.19998E-01  8152   0.132E+00    0.115E+00
DAV:  10    -0.188935917243E+03   -0.13058E-01   -0.40077E-02  7712   0.512E-01    0.408E-01
DAV:  11    -0.188939777195E+03   -0.38600E-02   -0.57419E-03  7160   0.242E-01    0.203E-01
DAV:  12    -0.188941674756E+03   -0.18976E-02   -0.21388E-03  7880   0.131E-01    0.105E-01
DAV:  13    -0.188942616971E+03   -0.94221E-03   -0.71212E-04  7368   0.690E-02    0.425E-02
DAV:  14    -0.188942923088E+03   -0.30612E-03   -0.28364E-04  6992   0.420E-02    0.227E-02
DAV:  15    -0.188943004037E+03   -0.80949E-04   -0.88563E-05  6184   0.245E-02    0.116E-02
DAV:  16    -0.188943022686E+03   -0.18649E-04   -0.19486E-05  5648   0.129E-02    0.524E-03
DAV:  17    -0.188943027007E+03   -0.43211E-05   -0.49482E-06  4424   0.712E-03
   1 F= -.18894303E+03 E0= -.18894303E+03  d E =0.000000E+00  mag=    -0.0003
