 running on   12 total cores
 distrk:  each k-point on   12 cores,    1 groups
 distr:  one band on    6 cores,    2 groups
 using from now: INCAR     
 vasp.6.1.2 22Jul20 (build Mar 20 2021 11:25:07) complex                        
  
 POSCAR found type information on POSCAR LiO 
 POSCAR found :  2 types and       3 ions
 scaLAPACK will be used
 -----------------------------------------------------------------------------
|                                                                             |
|               ----> ADVICE to this user running VASP <----                  |
|                                                                             |
|     You have a (more or less) 'small supercell' and for smaller cells       |
|     it is recommended to use the reciprocal-space projection scheme!        |
|     The real-space optimization is not efficient for small cells and it     |
|     is also less accurate ...                                               |
|     Therefore, set LREAL=.FALSE. in the INCAR file.                         |
|                                                                             |
 -----------------------------------------------------------------------------

 LDA part: xc-table for Pade appr. of Perdew
 generate k-points for:   13   12   12
 POSCAR, INCAR and KPOINTS ok, starting setup
 FFT: planning ...
 WAVECAR not read
 entering main loop
       N       E                     dE             d eps       ncg     rms          rms(c)
DAV:   1     0.447645576175E+02    0.44765E+02   -0.57236E+03 24644   0.104E+03
DAV:   2    -0.972286474410E+01   -0.54487E+02   -0.52539E+02 29388   0.230E+02
DAV:   3    -0.152290281684E+02   -0.55062E+01   -0.54606E+01 45784   0.542E+01
DAV:   4    -0.152764901482E+02   -0.47462E-01   -0.47456E-01 28224   0.655E+00
DAV:   5    -0.152768740704E+02   -0.38392E-03   -0.38392E-03 34212   0.430E-01    0.117E+01
RMM:   6    -0.141036231679E+02    0.11733E+01   -0.34390E+00 26823   0.125E+01    0.494E+00
RMM:   7    -0.142211959877E+02   -0.11757E+00   -0.11057E-01 31510   0.278E+00    0.216E+00
RMM:   8    -0.142307333130E+02   -0.95373E-02   -0.46208E-02 35750   0.208E+00    0.116E+00
RMM:   9    -0.142424750038E+02   -0.11742E-01   -0.31710E-02 35487   0.198E+00    0.242E-01
RMM:  10    -0.142438470688E+02   -0.13721E-02   -0.97252E-03 40658   0.764E-01    0.135E-01
RMM:  11    -0.142446629881E+02   -0.81592E-03   -0.48703E-03 39115   0.560E-01    0.145E-01
WARNING in EDDRMM: call to ZHEGV failed, returncode =   6  3      3
RMM:  12    -0.142446399101E+02    0.23078E-04   -0.17089E-03 40052   0.337E-01    0.682E-02
RMM:  13    -0.142446651496E+02   -0.25240E-04   -0.75203E-04 39981   0.224E-01    0.205E-02
WARNING in EDDRMM: call to ZHEGV failed, returncode =   6  3      4
WARNING in EDDRMM: call to ZHEGV failed, returncode =   6  3      3
RMM:  14    -0.142447067270E+02   -0.41577E-04   -0.32680E-04 38930   0.130E-01    0.346E-02
RMM:  15    -0.142447229026E+02   -0.16176E-04   -0.12384E-04 36252   0.847E-02    0.261E-02
RMM:  16    -0.142447273352E+02   -0.44326E-05   -0.59737E-05 33497   0.590E-02
   1 F= -.14244727E+02 E0= -.14244727E+02  d E =0.000000E+00  mag=     0.0000
