    9    9    1    2
  0.1231317E+02  0.5512540E-09  0.5112339E-09  0.5112339E-09  0.5000000E-15
  1.000000000000000E-004
  CAR 
 unknown system                          
     51    100     34
 
  0.0000000E+00  0.0000000E+00  0.0000000E+00  0.2915452E-02
    1      -45.347128    -45.347138   1.000000   1.000000
    2      -24.348914    -24.348455   1.000000   1.000000
    3      -23.292909    -23.288963   1.000000   1.000000
    4      -23.240071    -23.243134   1.000000   1.000000
    5      -22.661653    -22.659956   1.000000   1.000000
    6      -15.693440    -15.693341   1.000000   1.000000
    7      -14.844761    -14.848880   1.000000   1.000000
    8      -14.753958    -14.746729   1.000000   1.000000
    9      -13.982993    -13.982126   1.000000   1.000000
   10       -7.911735     -7.911602   1.000000   1.000000
   11       -7.439457     -7.439470   1.000000   1.000000
   12       -7.336877     -7.335875   1.000000   1.000000
   13       -6.781275     -6.780866   1.000000   1.000000
   14       -6.501847     -6.502843   1.000000   1.000000
   15       -6.368627     -6.366273   1.000000   1.000000
   16       -6.218580     -6.217782   1.000000   1.000000
   17       -5.812171     -5.810115   1.000000   1.000000
   18       -3.644385     -3.640113   1.000000   1.000000
   19       -3.612717     -3.613295   1.000000   1.000000
   20       -3.487933     -3.486395   1.000000   1.000000
   21       -3.283586     -3.284001   1.000000   1.000000
   22       -2.489935     -2.490013   1.000000   1.000000
   23       -2.335960     -2.334455   1.000000   1.000000
   24       -1.773625     -1.773869   1.000000   1.000000
   25       -1.072741     -1.069665   1.000000   1.000000
   26        0.591663      0.596830   0.000000   0.000000
   27        0.659169      0.658733   0.000000   0.000000
   28        0.675537      0.677390   0.000000   0.000000
   29        0.937678      0.937091   0.000000   0.000000
   30        4.864034      4.861931   0.000000   0.000000
   31        5.120946      5.124603   0.000000   0.000000
   32        5.826623      5.826088   0.000000   0.000000
   33        6.211756      6.212803   0.000000   0.000000
   34        7.643006      7.643274   0.000000   0.000000
 
  0.1428571E+00  0.1347289E-17 -0.3152566E-15  0.5830904E-02
    1      -45.347123    -45.347134   1.000000   1.000000
    2      -24.345832    -24.345372   1.000000   1.000000
    3      -23.294344    -23.290390   1.000000   1.000000
    4      -23.243265    -23.246329   1.000000   1.000000
    5      -22.660830    -22.659142   1.000000   1.000000
    6      -15.731688    -15.731565   1.000000   1.000000
    7      -14.817770    -14.821902   1.000000   1.000000
    8      -14.734784    -14.727577   1.000000   1.000000
    9      -13.989407    -13.988528   1.000000   1.000000
   10       -7.841404     -7.841292   1.000000   1.000000
   11       -7.395234     -7.395245   1.000000   1.000000
   12       -7.356070     -7.355097   1.000000   1.000000
   13       -6.800309     -6.799667   1.000000   1.000000
   14       -6.568261     -6.569296   1.000000   1.000000
   15       -6.427316     -6.425261   1.000000   1.000000
   16       -6.177528     -6.176674   1.000000   1.000000
   17       -5.804561     -5.802389   1.000000   1.000000
   18       -3.642657     -3.638425   1.000000   1.000000
   19       -3.612615     -3.613191   1.000000   1.000000
   20       -3.486264     -3.484714   1.000000   1.000000
   21       -3.282171     -3.282593   1.000000   1.000000
   22       -2.486967     -2.487040   1.000000   1.000000
   23       -2.311776     -2.310309   1.000000   1.000000
   24       -1.779759     -1.779980   1.000000   1.000000
   25       -1.100357     -1.097339   1.000000   1.000000
   26        0.587693      0.592981   0.000000   0.000000
   27        0.651818      0.651934   0.000000   0.000000
   28        0.681544      0.682802   0.000000   0.000000
   29        0.935611      0.935055   0.000000   0.000000
   30        5.075838      5.073703   0.000000   0.000000
   31        5.120859      5.122542   0.000000   0.000000
   32        5.259821      5.261599   0.000000   0.000000
   33        6.268246      6.268878   0.000000   0.000000
   34        8.190142      8.190908   0.000000   0.000000
 
  0.2857143E+00 -0.1974008E-16  0.2215765E-15  0.5830904E-02
    1      -45.347096    -45.347106   1.000000   1.000000
    2      -24.338723    -24.338261   1.000000   1.000000
    3      -23.297607    -23.293637   1.000000   1.000000
    4      -23.250304    -23.253367   1.000000   1.000000
    5      -22.659031    -22.657362   1.000000   1.000000
    6      -15.815581    -15.815415   1.000000   1.000000
    7      -14.755922    -14.760086   1.000000   1.000000
    8      -14.688891    -14.681702   1.000000   1.000000
    9      -14.006179    -14.005296   1.000000   1.000000
   10       -7.741500     -7.741442   1.000000   1.000000
   11       -7.393558     -7.392661   1.000000   1.000000
   12       -7.231311     -7.231367   1.000000   1.000000
   13       -6.830125     -6.828778   1.000000   1.000000
   14       -6.724590     -6.725632   1.000000   1.000000
   15       -6.523420     -6.521920   1.000000   1.000000
   16       -6.135913     -6.135172   1.000000   1.000000
   17       -5.787772     -5.785414   1.000000   1.000000
   18       -3.638353     -3.634203   1.000000   1.000000
   19       -3.611326     -3.611913   1.000000   1.000000
   20       -3.483520     -3.481930   1.000000   1.000000
   21       -3.279108     -3.279541   1.000000   1.000000
   22       -2.475902     -2.475960   1.000000   1.000000
   23       -2.247430     -2.246071   1.000000   1.000000
   24       -1.789925     -1.790090   1.000000   1.000000
   25       -1.160880     -1.157955   1.000000   1.000000
   26        0.580011      0.585561   0.000000   0.000000
   27        0.648452      0.648911   0.000000   0.000000
   28        0.682664      0.683468   0.000000   0.000000
   29        0.930610      0.930108   0.000000   0.000000
   30        4.115452      4.115765   0.000000   0.000000
   31        5.539051      5.541885   0.000000   0.000000
   32        5.557493      5.555283   0.000000   0.000000
   33        6.355768      6.356809   0.000000   0.000000
   34        8.871424      8.871749   0.000000   0.000000
 
  0.4285714E+00  0.2530173E-16 -0.9993138E-16  0.5830904E-02
    1      -45.347098    -45.347108   1.000000   1.000000
    2      -24.333145    -24.332681   1.000000   1.000000
    3      -23.300274    -23.296290   1.000000   1.000000
    4      -23.256063    -23.259125   1.000000   1.000000
    5      -22.657696    -22.656043   1.000000   1.000000
    6      -15.881309    -15.881116   1.000000   1.000000
    7      -14.705323    -14.709512   1.000000   1.000000
    8      -14.648816    -14.641598   1.000000   1.000000
    9      -14.022560    -14.021706   1.000000   1.000000
   10       -7.702186     -7.702164   1.000000   1.000000
   11       -7.416079     -7.415256   1.000000   1.000000
   12       -7.066084     -7.066253   1.000000   1.000000
   13       -6.858832     -6.859820   1.000000   1.000000
   14       -6.836315     -6.834105   1.000000   1.000000
   15       -6.579143     -6.578325   1.000000   1.000000
   16       -6.127811     -6.127157   1.000000   1.000000
   17       -5.774073     -5.771614   1.000000   1.000000
   18       -3.634564     -3.630471   1.000000   1.000000
   19       -3.609269     -3.609880   1.000000   1.000000
   20       -3.482398     -3.480760   1.000000   1.000000
   21       -3.276839     -3.277281   1.000000   1.000000
   22       -2.463816     -2.463861   1.000000   1.000000
   23       -2.187482     -2.186236   1.000000   1.000000
   24       -1.794402     -1.794514   1.000000   1.000000
   25       -1.207825     -1.204939   1.000000   1.000000
   26        0.574985      0.580745   0.000000   0.000000
   27        0.655974      0.657023   0.000000   0.000000
   28        0.674314      0.674426   0.000000   0.000000
   29        0.925988      0.925513   0.000000   0.000000
   30        3.467303      3.467550   0.000000   0.000000
   31        5.893842      5.896535   0.000000   0.000000
   32        5.947946      5.945670   0.000000   0.000000
   33        6.277047      6.278405   0.000000   0.000000
   34        9.513641      9.260307   0.000000   0.000000
 
 -0.1504929E-17  0.1428571E+00 -0.1348233E-15  0.1166181E-01
    1      -45.347113    -45.347124   1.000000   1.000000
    2      -24.330160    -24.329688   1.000000   1.000000
    3      -23.323076    -23.321566   1.000000   1.000000
    4      -23.225512    -23.226069   1.000000   1.000000
    5      -22.671840    -22.670227   1.000000   1.000000
    6      -15.676212    -15.676137   1.000000   1.000000
    7      -14.870672    -14.873491   1.000000   1.000000
    8      -14.743424    -14.737404   1.000000   1.000000
    9      -13.995002    -13.994209   1.000000   1.000000
   10       -7.873160     -7.873020   1.000000   1.000000
   11       -7.383426     -7.383269   1.000000   1.000000
   12       -7.293573     -7.292861   1.000000   1.000000
   13       -6.735545     -6.734994   1.000000   1.000000
   14       -6.515847     -6.516614   1.000000   1.000000
   15       -6.361005     -6.358844   1.000000   1.000000
   16       -6.201338     -6.200708   1.000000   1.000000
   17       -5.846643     -5.844591   1.000000   1.000000
   18       -3.790034     -3.786497   1.000000   1.000000
   19       -3.656234     -3.655800   1.000000   1.000000
   20       -3.507906     -3.506841   1.000000   1.000000
   21       -3.318340     -3.318477   1.000000   1.000000
   22       -2.444329     -2.444237   1.000000   1.000000
   23       -2.257558     -2.256356   1.000000   1.000000
   24       -1.712532     -1.712728   1.000000   1.000000
   25       -1.113444     -1.110506   1.000000   1.000000
   26        0.478592      0.483253   0.000000   0.000000
   27        0.612790      0.614072   0.000000   0.000000
   28        0.687191      0.687910   0.000000   0.000000
   29        0.906276      0.905874   0.000000   0.000000
   30        4.892002      4.889968   0.000000   0.000000
   31        5.107938      5.111559   0.000000   0.000000
   32        5.726563      5.726125   0.000000   0.000000
   33        6.198862      6.199672   0.000000   0.000000
   34        7.848615      7.848930   0.000000   0.000000
 
  0.1428571E+00  0.1428571E+00 -0.4408229E-15  0.1166181E-01
    1      -45.347113    -45.347123   1.000000   1.000000
    2      -24.329459    -24.328987   1.000000   1.000000
    3      -23.323252    -23.321701   1.000000   1.000000
    4      -23.226044    -23.226641   1.000000   1.000000
    5      -22.672014    -22.670402   1.000000   1.000000
    6      -15.684488    -15.684389   1.000000   1.000000
    7      -14.875261    -14.877962   1.000000   1.000000
    8      -14.731472    -14.725576   1.000000   1.000000
    9      -13.993161    -13.992379   1.000000   1.000000
   10       -7.854097     -7.853978   1.000000   1.000000
   11       -7.380493     -7.380275   1.000000   1.000000
   12       -7.278257     -7.277584   1.000000   1.000000
   13       -6.786653     -6.785991   1.000000   1.000000
   14       -6.520082     -6.520871   1.000000   1.000000
   15       -6.356970     -6.354925   1.000000   1.000000
   16       -6.187079     -6.186438   1.000000   1.000000
   17       -5.845821     -5.843778   1.000000   1.000000
   18       -3.794828     -3.791310   1.000000   1.000000
   19       -3.647397     -3.646996   1.000000   1.000000
   20       -3.509748     -3.508582   1.000000   1.000000
   21       -3.319673     -3.319843   1.000000   1.000000
   22       -2.434169     -2.434092   1.000000   1.000000
   23       -2.255900     -2.254684   1.000000   1.000000
   24       -1.718026     -1.718186   1.000000   1.000000
   25       -1.120694     -1.117713   1.000000   1.000000
   26        0.483291      0.487831   0.000000   0.000000
   27        0.594884      0.596127   0.000000   0.000000
   28        0.693961      0.694673   0.000000   0.000000
   29        0.907254      0.906903   0.000000   0.000000
   30        4.833626      4.832337   0.000000   0.000000
   31        5.191505      5.194440   0.000000   0.000000
   32        5.549692      5.549355   0.000000   0.000000
   33        6.264310      6.265077   0.000000   0.000000
   34        8.002330      8.002616   0.000000   0.000000
 
  0.2857143E+00  0.1428571E+00  0.6916627E-16  0.1166181E-01
    1      -45.347103    -45.347113   1.000000   1.000000
    2      -24.323798    -24.323324   1.000000   1.000000
    3      -23.326132    -23.324628   1.000000   1.000000
    4      -23.231498    -23.232035   1.000000   1.000000
    5      -22.670733    -22.669135   1.000000   1.000000
    6      -15.753812    -15.753664   1.000000   1.000000
    7      -14.834769    -14.837162   1.000000   1.000000
    8      -14.686252    -14.680693   1.000000   1.000000
    9      -14.005459    -14.004694   1.000000   1.000000
   10       -7.739069     -7.739001   1.000000   1.000000
   11       -7.343518     -7.342815   1.000000   1.000000
   12       -7.237109     -7.236979   1.000000   1.000000
   13       -6.845502     -6.844374   1.000000   1.000000
   14       -6.638449     -6.639367   1.000000   1.000000
   15       -6.433925     -6.432269   1.000000   1.000000
   16       -6.138399     -6.137742   1.000000   1.000000
   17       -5.834046     -5.831839   1.000000   1.000000
   18       -3.795225     -3.791782   1.000000   1.000000
   19       -3.640522     -3.640127   1.000000   1.000000
   20       -3.508212     -3.506976   1.000000   1.000000
   21       -3.318172     -3.318371   1.000000   1.000000
   22       -2.414115     -2.414097   1.000000   1.000000
   23       -2.215907     -2.214721   1.000000   1.000000
   24       -1.729289     -1.729377   1.000000   1.000000
   25       -1.170829     -1.167892   1.000000   1.000000
   26        0.478207      0.482779   0.000000   0.000000
   27        0.582103      0.583377   0.000000   0.000000
   28        0.696715      0.697395   0.000000   0.000000
   29        0.904172      0.903889   0.000000   0.000000
   30        4.527596      4.527953   0.000000   0.000000
   31        5.151065      5.150410   0.000000   0.000000
   32        5.542392      5.543983   0.000000   0.000000
   33        6.352510      6.353281   0.000000   0.000000
   34        8.745893      8.749029   0.000000   0.000000
 
  0.4285714E+00  0.1428571E+00 -0.2426209E-15  0.1166181E-01
    1      -45.347094    -45.347104   1.000000   1.000000
    2      -24.317414    -24.316938   1.000000   1.000000
    3      -23.329582    -23.328187   1.000000   1.000000
    4      -23.237579    -23.237993   1.000000   1.000000
    5      -22.668985    -22.667404   1.000000   1.000000
    6      -15.830978    -15.830800   1.000000   1.000000
    7      -14.776590    -14.778751   1.000000   1.000000
    8      -14.640082    -14.634743   1.000000   1.000000
    9      -14.024638    -14.023916   1.000000   1.000000
   10       -7.674269     -7.674238   1.000000   1.000000
   11       -7.367145     -7.366410   1.000000   1.000000
   12       -7.071821     -7.071958   1.000000   1.000000
   13       -6.855055     -6.853298   1.000000   1.000000
   14       -6.789870     -6.790605   1.000000   1.000000
   15       -6.511239     -6.510173   1.000000   1.000000
   16       -6.115585     -6.114979   1.000000   1.000000
   17       -5.820427     -5.818079   1.000000   1.000000
   18       -3.790714     -3.787340   1.000000   1.000000
   19       -3.640548     -3.640120   1.000000   1.000000
   20       -3.504851     -3.503633   1.000000   1.000000
   21       -3.315246     -3.315446   1.000000   1.000000
   22       -2.396702     -2.396706   1.000000   1.000000
   23       -2.157338     -2.156268   1.000000   1.000000
   24       -1.732924     -1.732949   1.000000   1.000000
   25       -1.224329     -1.221442   1.000000   1.000000
   26        0.467489      0.472241   0.000000   0.000000
   27        0.583950      0.585267   0.000000   0.000000
   28        0.693935      0.694558   0.000000   0.000000
   29        0.898425      0.898165   0.000000   0.000000
   30        3.717985      3.718248   0.000000   0.000000
   31        5.625820      5.625605   0.000000   0.000000
   32        5.922904      5.923948   0.000000   0.000000
   33        6.289656      6.290654   0.000000   0.000000
   34        9.254064      9.260339   0.000000   0.000000
 
 -0.4285714E+00  0.1428571E+00 -0.6913846E-16  0.1166181E-01
    1      -45.347084    -45.347094   1.000000   1.000000
    2      -24.315141    -24.314663   1.000000   1.000000
    3      -23.331070    -23.329760   1.000000   1.000000
    4      -23.239755    -23.240078   1.000000   1.000000
    5      -22.667998    -22.666424   1.000000   1.000000
    6      -15.858720    -15.858543   1.000000   1.000000
    7      -14.746106    -14.748188   1.000000   1.000000
    8      -14.630232    -14.624981   1.000000   1.000000
    9      -14.033085    -14.032360   1.000000   1.000000
   10       -7.666023     -7.665989   1.000000   1.000000
   11       -7.396478     -7.395790   1.000000   1.000000
   12       -7.005552     -7.005732   1.000000   1.000000
   13       -6.859892     -6.860170   1.000000   1.000000
   14       -6.808707     -6.806939   1.000000   1.000000
   15       -6.535419     -6.534777   1.000000   1.000000
   16       -6.113621     -6.112994   1.000000   1.000000
   17       -5.814905     -5.812503   1.000000   1.000000
   18       -3.784825     -3.781474   1.000000   1.000000
   19       -3.647930     -3.647454   1.000000   1.000000
   20       -3.502111     -3.500979   1.000000   1.000000
   21       -3.313002     -3.313175   1.000000   1.000000
   22       -2.397300     -2.397299   1.000000   1.000000
   23       -2.132580     -2.131578   1.000000   1.000000
   24       -1.728904     -1.728920   1.000000   1.000000
   25       -1.242095     -1.239256   1.000000   1.000000
   26        0.460605      0.465571   0.000000   0.000000
   27        0.599369      0.600734   0.000000   0.000000
   28        0.688080      0.688616   0.000000   0.000000
   29        0.894881      0.894596   0.000000   0.000000
   30        3.456681      3.456933   0.000000   0.000000
   31        5.902554      5.904133   0.000000   0.000000
   32        5.990582      5.989551   0.000000   0.000000
   33        6.254905      6.256156   0.000000   0.000000
   34        9.410630      9.426089   0.000000   0.000000
 
 -0.2857143E+00  0.1428571E+00 -0.3730595E-15  0.1166181E-01
    1      -45.347093    -45.347104   1.000000   1.000000
    2      -24.318641    -24.318164   1.000000   1.000000
    3      -23.329428    -23.328108   1.000000   1.000000
    4      -23.236400    -23.236743   1.000000   1.000000
    5      -22.668545    -22.666962   1.000000   1.000000
    6      -15.817052    -15.816903   1.000000   1.000000
    7      -14.769246    -14.771395   1.000000   1.000000
    8      -14.663790    -14.658512   1.000000   1.000000
    9      -14.023970    -14.023180   1.000000   1.000000
   10       -7.693957     -7.693875   1.000000   1.000000
   11       -7.394237     -7.393522   1.000000   1.000000
   12       -7.105713     -7.105840   1.000000   1.000000
   13       -6.799224     -6.798167   1.000000   1.000000
   14       -6.755928     -6.755945   1.000000   1.000000
   15       -6.515558     -6.514619   1.000000   1.000000
   16       -6.119445     -6.118754   1.000000   1.000000
   17       -5.822434     -5.820066   1.000000   1.000000
   18       -3.782145     -3.778751   1.000000   1.000000
   19       -3.657091     -3.656599   1.000000   1.000000
   20       -3.501656     -3.500615   1.000000   1.000000
   21       -3.312882     -3.313022   1.000000   1.000000
   22       -2.416550     -2.416534   1.000000   1.000000
   23       -2.165609     -2.164538   1.000000   1.000000
   24       -1.724314     -1.724395   1.000000   1.000000
   25       -1.212186     -1.209389   1.000000   1.000000
   26        0.461801      0.466815   0.000000   0.000000
   27        0.616575      0.618013   0.000000   0.000000
   28        0.682266      0.682771   0.000000   0.000000
   29        0.897061      0.896725   0.000000   0.000000
   30        3.862358      3.862646   0.000000   0.000000
   31        5.535665      5.537405   0.000000   0.000000
   32        5.856243      5.854693   0.000000   0.000000
   33        6.347502      6.348966   0.000000   0.000000
   34        9.178746      9.238266   0.000000   0.000000
 
 -0.1428571E+00  0.1428571E+00  0.1512711E-15  0.1166181E-01
    1      -45.347094    -45.347105   1.000000   1.000000
    2      -24.325295    -24.324821   1.000000   1.000000
    3      -23.325797    -23.324385   1.000000   1.000000
    4      -23.230098    -23.230546   1.000000   1.000000
    5      -22.670259    -22.668658   1.000000   1.000000
    6      -15.735798    -15.735695   1.000000   1.000000
    7      -14.824874    -14.827412   1.000000   1.000000
    8      -14.714094    -14.708404   1.000000   1.000000
    9      -14.007606    -14.006794   1.000000   1.000000
   10       -7.771739     -7.771612   1.000000   1.000000
   11       -7.357311     -7.356556   1.000000   1.000000
   12       -7.284311     -7.284285   1.000000   1.000000
   13       -6.745605     -6.744657   1.000000   1.000000
   14       -6.616208     -6.617057   1.000000   1.000000
   15       -6.446890     -6.445197   1.000000   1.000000
   16       -6.153076     -6.152326   1.000000   1.000000
   17       -5.836135     -5.833905   1.000000   1.000000
   18       -3.784525     -3.781047   1.000000   1.000000
   19       -3.660724     -3.660254   1.000000   1.000000
   20       -3.504139     -3.503129   1.000000   1.000000
   21       -3.315209     -3.315334   1.000000   1.000000
   22       -2.437958     -2.437907   1.000000   1.000000
   23       -2.222762     -2.221596   1.000000   1.000000
   24       -1.717822     -1.717987   1.000000   1.000000
   25       -1.155004     -1.152171   1.000000   1.000000
   26        0.469025      0.473892   0.000000   0.000000
   27        0.622542      0.623929   0.000000   0.000000
   28        0.681529      0.682157   0.000000   0.000000
   29        0.902233      0.901845   0.000000   0.000000
   30        4.769638      4.770158   0.000000   0.000000
   31        5.198086      5.198609   0.000000   0.000000
   32        5.401028      5.401043   0.000000   0.000000
   33        6.258963      6.259751   0.000000   0.000000
   34        8.582662      8.582089   0.000000   0.000000
 
 -0.1227725E-17  0.2857143E+00 -0.2976842E-15  0.1166181E-01
    1      -45.347100    -45.347110   1.000000   1.000000
    2      -24.284512    -24.284001   1.000000   1.000000
    3      -23.384766    -23.384640   1.000000   1.000000
    4      -23.201688    -23.200700   1.000000   1.000000
    5      -22.695841    -22.694430   1.000000   1.000000
    6      -15.633232    -15.633225   1.000000   1.000000
    7      -14.931958    -14.933337   1.000000   1.000000
    8      -14.719344    -14.714524   1.000000   1.000000
    9      -14.023286    -14.022673   1.000000   1.000000
   10       -7.773785     -7.773625   1.000000   1.000000
   11       -7.304131     -7.303673   1.000000   1.000000
   12       -7.152008     -7.151888   1.000000   1.000000
   13       -6.657723     -6.656982   1.000000   1.000000
   14       -6.531548     -6.531444   1.000000   1.000000
   15       -6.338119     -6.336508   1.000000   1.000000
   16       -6.192499     -6.192345   1.000000   1.000000
   17       -5.821866     -5.819869   1.000000   1.000000
   18       -4.224635     -4.221689   1.000000   1.000000
   19       -3.751376     -3.750300   1.000000   1.000000
   20       -3.607530     -3.606623   1.000000   1.000000
   21       -3.311480     -3.311272   1.000000   1.000000
   22       -2.360681     -2.360306   1.000000   1.000000
   23       -2.006218     -2.005755   1.000000   1.000000
   24       -1.628615     -1.628262   1.000000   1.000000
   25       -1.140766     -1.138627   1.000000   1.000000
   26        0.131214      0.135603  -0.005185  -0.009910
   27        0.558451      0.560277   0.000000   0.000000
   28        0.647712      0.648673   0.000000   0.000000
   29        0.877355      0.877223   0.000000   0.000000
   30        4.955522      4.953836   0.000000   0.000000
   31        5.083948      5.087459   0.000000   0.000000
   32        5.529283      5.528583   0.000000   0.000000
   33        6.171990      6.172667   0.000000   0.000000
   34        8.340363      8.341077   0.000000   0.000000
 
  0.1428571E+00  0.2857143E+00 -0.6170926E-15  0.1166181E-01
    1      -45.347112    -45.347122   1.000000   1.000000
    2      -24.285661    -24.285152   1.000000   1.000000
    3      -23.382934    -23.382764   1.000000   1.000000
    4      -23.201559    -23.200616   1.000000   1.000000
    5      -22.696661    -22.695248   1.000000   1.000000
    6      -15.619622    -15.619589   1.000000   1.000000
    7      -14.960436    -14.961849   1.000000   1.000000
    8      -14.710289    -14.705426   1.000000   1.000000
    9      -14.016349    -14.015762   1.000000   1.000000
   10       -7.809494     -7.809368   1.000000   1.000000
   11       -7.315760     -7.315336   1.000000   1.000000
   12       -7.100466     -7.100235   1.000000   1.000000
   13       -6.727247     -6.726579   1.000000   1.000000
   14       -6.500373     -6.500027   1.000000   1.000000
   15       -6.298583     -6.296998   1.000000   1.000000
   16       -6.190034     -6.190033   1.000000   1.000000
   17       -5.824697     -5.822805   1.000000   1.000000
   18       -4.235873     -4.232843   1.000000   1.000000
   19       -3.743959     -3.742957   1.000000   1.000000
   20       -3.602915     -3.601928   1.000000   1.000000
   21       -3.316443     -3.316251   1.000000   1.000000
   22       -2.352199     -2.351795   1.000000   1.000000
   23       -2.013816     -2.013329   1.000000   1.000000
   24       -1.627735     -1.627443   1.000000   1.000000
   25       -1.138596     -1.136193   1.000000   1.000000
   26        0.138835      0.142823  -0.009237  -0.013214
   27        0.544790      0.546810   0.000000   0.000000
   28        0.644599      0.645344   0.000000   0.000000
   29        0.883590      0.883533   0.000000   0.000000
   30        4.609744      4.609178   0.000000   0.000000
   31        5.180273      5.182467   0.000000   0.000000
   32        5.836434      5.835699   0.000000   0.000000
   33        6.257201      6.258395   0.000000   0.000000
   34        8.057271      8.057536   0.000000   0.000000
 
  0.2857143E+00  0.2857143E+00 -0.8768292E-16  0.1166181E-01
    1      -45.347109    -45.347119   1.000000   1.000000
    2      -24.282321    -24.281811   1.000000   1.000000
    3      -23.383716    -23.383542   1.000000   1.000000
    4      -23.205535    -23.204589   1.000000   1.000000
    5      -22.696151    -22.694744   1.000000   1.000000
    6      -15.660375    -15.660275   1.000000   1.000000
    7      -14.954227    -14.955521   1.000000   1.000000
    8      -14.667578    -14.662841   1.000000   1.000000
    9      -14.022431    -14.021896   1.000000   1.000000
   10       -7.716047     -7.715971   1.000000   1.000000
   11       -7.302784     -7.302331   1.000000   1.000000
   12       -7.066184     -7.065908   1.000000   1.000000
   13       -6.826095     -6.825211   1.000000   1.000000
   14       -6.541606     -6.541776   1.000000   1.000000
   15       -6.338147     -6.336613   1.000000   1.000000
   16       -6.154377     -6.154049   1.000000   1.000000
   17       -5.821704     -5.819853   1.000000   1.000000
   18       -4.243720     -4.240640   1.000000   1.000000
   19       -3.735420     -3.734465   1.000000   1.000000
   20       -3.595686     -3.594657   1.000000   1.000000
   21       -3.319689     -3.319516   1.000000   1.000000
   22       -2.320774     -2.320404   1.000000   1.000000
   23       -2.004700     -2.004251   1.000000   1.000000
   24       -1.638319     -1.637983   1.000000   1.000000
   25       -1.170044     -1.167477   1.000000   1.000000
   26        0.135931      0.139615  -0.006042  -0.009645
   27        0.530351      0.532493   0.000000   0.000000
   28        0.639512      0.640192   0.000000   0.000000
   29        0.887487      0.887509   0.000000   0.000000
   30        4.653379      4.653331   0.000000   0.000000
   31        5.085805      5.085834   0.000000   0.000000
   32        5.536221      5.537673   0.000000   0.000000
   33        6.335318      6.336029   0.000000   0.000000
   34        8.723034      8.723965   0.000000   0.000000
 
  0.4285714E+00  0.2857143E+00 -0.4124206E-15  0.1166181E-01
    1      -45.347088    -45.347099   1.000000   1.000000
    2      -24.277049    -24.276537   1.000000   1.000000
    3      -23.386397    -23.386269   1.000000   1.000000
    4      -23.210499    -23.209498   1.000000   1.000000
    5      -22.694733    -22.693338   1.000000   1.000000
    6      -15.727199    -15.727060   1.000000   1.000000
    7      -14.911771    -14.912948   1.000000   1.000000
    8      -14.622325    -14.617661   1.000000   1.000000
    9      -14.038688    -14.038233   1.000000   1.000000
   10       -7.625664     -7.625620   1.000000   1.000000
   11       -7.285416     -7.284954   1.000000   1.000000
   12       -6.992999     -6.992788   1.000000   1.000000
   13       -6.862668     -6.861418   1.000000   1.000000
   14       -6.655272     -6.655797   1.000000   1.000000
   15       -6.410609     -6.409196   1.000000   1.000000
   16       -6.117169     -6.116665   1.000000   1.000000
   17       -5.818582     -5.816691   1.000000   1.000000
   18       -4.242569     -4.239505   1.000000   1.000000
   19       -3.731737     -3.730768   1.000000   1.000000
   20       -3.591654     -3.590651   1.000000   1.000000
   21       -3.318844     -3.318675   1.000000   1.000000