 running on   12 total cores
 distrk:  each k-point on   12 cores,    1 groups
 distr:  one band on    6 cores,    2 groups
 using from now: INCAR     
 vasp.6.1.2 22Jul20 (build Mar 20 2021 11:25:07) complex                        
  
 POSCAR found type information on POSCAR LiO 
 POSCAR found :  2 types and       9 ions
 scaLAPACK will be used
 LDA part: xc-table for Pade appr. of Perdew
 generate k-points for:    7    7    7
 POSCAR, INCAR and KPOINTS ok, starting setup
 FFT: planning ...
 WAVECAR not read
 entering main loop
       N       E                     dE             d eps       ncg     rms          rms(c)
DAV:   1     0.358321359918E+03    0.35832E+03   -0.27447E+04 13600   0.145E+03
DAV:   2    -0.147403348332E+02   -0.37306E+03   -0.35959E+03 17796   0.340E+02
DAV:   3    -0.415817637145E+02   -0.26841E+02   -0.26409E+02 19650   0.919E+01
DAV:   4    -0.426170824159E+02   -0.10353E+01   -0.10309E+01 22836   0.131E+01
DAV:   5    -0.426927336080E+02   -0.75651E-01   -0.75643E-01 17702   0.183E+00    0.140E+01
RMM:   6    -0.430983834196E+02   -0.40565E+00   -0.23465E+00 15180   0.780E+00    0.903E+00
RMM:   7    -0.428682979862E+02    0.23009E+00   -0.90008E-01 14772   0.501E+00    0.599E+00
RMM:   8    -0.427048377151E+02    0.16346E+00   -0.40465E-01 15217   0.353E+00    0.444E+00
RMM:   9    -0.425982215115E+02    0.10662E+00   -0.16682E-01 15975   0.223E+00    0.218E+00
RMM:  10    -0.425935505681E+02    0.46709E-02   -0.52480E-02 16405   0.135E+00    0.788E-01
RMM:  11    -0.425933103043E+02    0.24026E-03   -0.12140E-02 18564   0.655E-01    0.431E-01
RMM:  12    -0.425933882809E+02   -0.77977E-04   -0.52343E-03 18810   0.459E-01    0.191E-01
WARNING in EDDRMM: call to ZHEGV failed, returncode =   6  3      5
RMM:  13    -0.425940845344E+02   -0.69625E-03   -0.25356E-03 20936   0.294E-01    0.693E-02
RMM:  14    -0.425943034897E+02   -0.21896E-03   -0.10811E-03 23623   0.161E-01    0.511E-02
RMM:  15    -0.425944499253E+02   -0.14644E-03   -0.49609E-04 23415   0.104E-01    0.389E-02
RMM:  16    -0.425945674745E+02   -0.11755E-03   -0.28152E-04 22314   0.864E-02    0.252E-02
WARNING in EDDRMM: call to ZHEGV failed, returncode =   6  3     11
RMM:  17    -0.425946284617E+02   -0.60987E-04   -0.16086E-04 21365   0.638E-02    0.218E-02
RMM:  18    -0.425946792023E+02   -0.50741E-04   -0.98038E-05 20180   0.527E-02    0.186E-02
RMM:  19    -0.425947410358E+02   -0.61834E-04   -0.10132E-04 20799   0.535E-02    0.169E-02
RMM:  20    -0.425948055023E+02   -0.64466E-04   -0.11567E-04 21562   0.577E-02    0.151E-02
RMM:  21    -0.425948563217E+02   -0.50819E-04   -0.89471E-05 20511   0.501E-02    0.132E-02
RMM:  22    -0.425949564806E+02   -0.10016E-03   -0.65375E-04 25343   0.137E-01    0.145E-02
RMM:  23    -0.425950141468E+02   -0.57666E-04   -0.25416E-04 23970   0.818E-02    0.107E-02
RMM:  24    -0.425950441746E+02   -0.30028E-04   -0.96442E-05 20561   0.519E-02    0.698E-03
WARNING in EDDRMM: call to ZHEGV failed, returncode =   6  3     16
RMM:  25    -0.425950583927E+02   -0.14218E-04   -0.12195E-04 20950   0.599E-02    0.628E-03
RMM:  26    -0.425950673741E+02   -0.89814E-05   -0.70308E-05 18967   0.456E-02
   1 F= -.42595067E+02 E0= -.42595067E+02  d E =0.000000E+00  mag=     0.0047
 -----------------------------------------------------------------------------
|                                                                             |
|           W    W    AA    RRRRR   N    N  II  N    N   GGGG   !!!           |
|           W    W   A  A   R    R  NN   N  II  NN   N  G    G  !!!           |
|           W    W  A    A  R    R  N N  N  II  N N  N  G       !!!           |
|           W WW W  AAAAAA  RRRRR   N  N N  II  N  N N  G  GGG   !            |
|           WW  WW  A    A  R   R   N   NN  II  N   NN  G    G                |
|           W    W  A    A  R    R  N    N  II  N    N   GGGG   !!!           |
|                                                                             |
|     Tetrahedron method does not include variations of the Fermi             |
|     occupations, so forces and stress will be inaccurate. We suggest        |
|     using a different smearing scheme ISMEAR = 1 or 2 for metals in         |
|     relaxations.                                                            |
|                                                                             |
 -----------------------------------------------------------------------------

