 running on   24 total cores
 distrk:  each k-point on   24 cores,    1 groups
 distr:  one band on    6 cores,    4 groups
 using from now: INCAR     
 vasp.6.1.2 22Jul20 (build Mar 31 2021 18:09:49) complex                        
  
 POSCAR found type information on POSCAR LiO 
 POSCAR found :  2 types and       8 ions
 scaLAPACK will be used
 -----------------------------------------------------------------------------
|                                                                             |
|               ----> ADVICE to this user running VASP <----                  |
|                                                                             |
|     You have a (more or less) 'small supercell' and for smaller cells       |
|     it is recommended to use the reciprocal-space projection scheme!        |
|     The real-space optimization is not efficient for small cells and it     |
|     is also less accurate ...                                               |
|     Therefore, set LREAL=.FALSE. in the INCAR file.                         |
|                                                                             |
 -----------------------------------------------------------------------------

 LDA part: xc-table for Pade appr. of Perdew
 generate k-points for:   12   12    4
 POSCAR, INCAR and KPOINTS ok, starting setup
 FFT: planning ...
 WAVECAR not read
 entering main loop
       N       E                     dE             d eps       ncg     rms          rms(c)
DAV:   1     0.252755286863E+03    0.25276E+03   -0.17316E+04 18376   0.137E+03
DAV:   2    -0.145156819204E+02   -0.26727E+03   -0.25713E+03 22032   0.347E+02
DAV:   3    -0.374273402643E+02   -0.22912E+02   -0.22715E+02 29464   0.848E+01
DAV:   4    -0.392001197951E+02   -0.17728E+01   -0.17657E+01 27464   0.214E+01
DAV:   5    -0.392453113262E+02   -0.45192E-01   -0.45188E-01 25956   0.312E+00    0.178E+01
RMM:   6    -0.381235708586E+02    0.11217E+01   -0.45259E+00 20486   0.109E+01    0.783E+00
RMM:   7    -0.387281253469E+02   -0.60455E+00   -0.68469E-01 23108   0.508E+00    0.389E+00
RMM:   8    -0.388050179693E+02   -0.76893E-01   -0.30478E-01 27261   0.315E+00    0.156E+00
RMM:   9    -0.388152620073E+02   -0.10244E-01   -0.10102E-01 28758   0.204E+00    0.385E-01
RMM:  10    -0.388246675128E+02   -0.94055E-02   -0.52605E-02 32425   0.115E+00    0.186E-01
RMM:  11    -0.388284162780E+02   -0.37488E-02   -0.20116E-02 33070   0.668E-01    0.126E-01
RMM:  12    -0.388296970285E+02   -0.12808E-02   -0.84112E-03 34286   0.401E-01    0.903E-02
RMM:  13    -0.388301081293E+02   -0.41110E-03   -0.31675E-03 32934   0.271E-01    0.360E-02
RMM:  14    -0.388303610885E+02   -0.25296E-03   -0.15817E-03 33427   0.189E-01    0.867E-03
RMM:  15    -0.388304484331E+02   -0.87345E-04   -0.72282E-04 31661   0.112E-01    0.914E-03
RMM:  16    -0.388304819215E+02   -0.33488E-04   -0.30447E-04 30540   0.737E-02    0.572E-03
RMM:  17    -0.388304948696E+02   -0.12948E-04   -0.12041E-04 28171   0.508E-02    0.315E-03
RMM:  18    -0.388304991765E+02   -0.43069E-05   -0.43325E-05 23953   0.372E-02
   1 F= -.38830499E+02 E0= -.38830499E+02  d E =0.000000E+00  mag=    -0.0000
