    9    9    1    2
  0.1027981E+02  0.4602212E-09  0.5112339E-09  0.5112339E-09  0.5000000E-15
  1.000000000000000E-004
  CAR 
 unknown system                          
     51    128     34
 
  0.0000000E+00  0.0000000E+00  0.0000000E+00  0.2267574E-02
    1      -43.085208    -43.084688   1.000000   1.000000
    2      -28.273982    -28.301776   1.000000   1.000000
    3      -27.171378    -27.141715   1.000000   1.000000
    4      -27.153198    -27.121093   1.000000   1.000000
    5      -26.405048    -26.466495   1.000000   1.000000
    6      -12.934823    -12.936455   1.000000   1.000000
    7      -12.520301    -12.537141   1.000000   1.000000
    8      -12.429340    -12.445826   1.000000   1.000000
    9      -11.505950    -11.512395   1.000000   1.000000
   10       -8.760886     -8.763836   1.000000   1.000000
   11       -8.427294     -8.443588   1.000000   1.000000
   12       -7.927752     -7.918382   1.000000   1.000000
   13       -7.761030     -7.760934   1.000000   1.000000
   14       -7.169019     -7.200634   1.000000   1.000000
   15       -6.028505     -6.051677   1.000000   1.000000
   16       -5.954312     -5.907539   1.000000   1.000000
   17       -5.819889     -5.862317   1.000000   1.000000
   18       -4.925069     -4.961668   1.000000   1.000000
   19       -4.914074     -4.912605   1.000000   1.000000
   20       -4.774818     -4.783409   1.000000   1.000000
   21       -4.729354     -4.736503   1.000000   1.000000
   22       -0.194580     -0.190489   1.000000   1.000000
   23       -0.088629     -0.118267   1.000000   1.000000
   24        0.550111      0.563207   1.000000   1.000000
   25        1.461013      1.425704   1.000000   1.000000
   26        2.963738      2.898740   0.000000   0.000000
   27        2.978040      2.973110   0.000000   0.000000
   28        3.095137      3.093196   0.000000   0.000000
   29        3.367418      3.376669   0.000000   0.000000
   30        9.798445      9.791482   0.000000   0.000000
   31       10.735608     10.759713   0.000000   0.000000
   32       11.250975     11.211892   0.000000   0.000000
   33       12.618863     12.621650   0.000000   0.000000
   34       13.306370     13.383430   0.000000   0.000000
 
  0.1111111E+00 -0.1247996E-17 -0.5228810E-16  0.4535147E-02
    1      -43.085095    -43.084576   1.000000   1.000000
    2      -28.271898    -28.299778   1.000000   1.000000
    3      -27.172907    -27.141382   1.000000   1.000000
    4      -27.152898    -27.122618   1.000000   1.000000
    5      -26.405915    -26.467315   1.000000   1.000000
    6      -13.032596    -13.036194   1.000000   1.000000
    7      -12.476217    -12.499519   1.000000   1.000000
    8      -12.394951    -12.401390   1.000000   1.000000
    9      -11.489696    -11.497844   1.000000   1.000000
   10       -8.760057     -8.762789   1.000000   1.000000
   11       -8.449207     -8.465652   1.000000   1.000000
   12       -7.894170     -7.881378   1.000000   1.000000
   13       -7.638834     -7.642034   1.000000   1.000000
   14       -7.168469     -7.199745   1.000000   1.000000
   15       -6.165377     -6.198853   1.000000   1.000000
   16       -6.011060     -5.964692   1.000000   1.000000
   17       -5.761873     -5.793306   1.000000   1.000000
   18       -4.920385     -4.964747   1.000000   1.000000
   19       -4.917440     -4.907954   1.000000   1.000000
   20       -4.766363     -4.775591   1.000000   1.000000
   21       -4.724297     -4.731749   1.000000   1.000000
   22       -0.185549     -0.181354   1.000000   1.000000
   23       -0.050287     -0.079381   1.000000   1.000000
   24        0.550202      0.562103   1.000000   1.000000
   25        1.401043      1.366258   1.000000   1.000000
   26        2.958620      2.897916   0.000000   0.000000
   27        2.963734      2.955782   0.000000   0.000000
   28        3.098274      3.095532   0.000000   0.000000
   29        3.360630      3.369260   0.000000   0.000000
   30        9.752175      9.745369   0.000000   0.000000
   31       10.993546     11.016870   0.000000   0.000000
   32       11.367569     11.331941   0.000000   0.000000
   33       12.349059     12.336545   0.000000   0.000000
   34       13.164949     13.100007   0.000000   0.000000
 
  0.2222222E+00  0.1063402E-16  0.9200069E-15  0.4535147E-02
    1      -43.084918    -43.084397   1.000000   1.000000
    2      -28.267616    -28.295697   1.000000   1.000000
    3      -27.177321    -27.140738   1.000000   1.000000
    4      -27.152341    -27.127025   1.000000   1.000000
    5      -26.408828    -26.470125   1.000000   1.000000
    6      -13.260975    -13.266397   1.000000   1.000000
    7      -12.361342    -12.395987   1.000000   1.000000
    8      -12.295092    -12.285567   1.000000   1.000000
    9      -11.462304    -11.473431   1.000000   1.000000
   10       -8.767375     -8.769702   1.000000   1.000000
   11       -8.498791     -8.515605   1.000000   1.000000
   12       -7.879148     -7.865455   1.000000   1.000000
   13       -7.253601     -7.257392   1.000000   1.000000
   14       -7.171347     -7.201319   1.000000   1.000000
   15       -6.377646     -6.417958   1.000000   1.000000
   16       -6.165713     -6.121296   1.000000   1.000000
   17       -5.765912     -5.788960   1.000000   1.000000
   18       -4.925839     -4.972370   1.000000   1.000000
   19       -4.911330     -4.899167   1.000000   1.000000
   20       -4.742650     -4.752848   1.000000   1.000000
   21       -4.712094     -4.720094   1.000000   1.000000
   22       -0.148008     -0.143667   1.000000   1.000000
   23        0.066973      0.039802   1.000000   1.000000
   24        0.551035      0.559764   1.000000   1.000000
   25        1.251411      1.217334   1.000000   1.000000
   26        2.920430      2.896770   0.000000   0.000000
   27        2.964941      2.920752   0.000000   0.000000
   28        3.095618      3.093384   0.000000   0.000000
   29        3.341561      3.348994   0.000000   0.000000
   30        9.585997      9.581110   0.000000   0.000000
   31       11.258724     11.263571   0.000000   0.000000
   32       11.666792     11.686963   0.000000   0.000000
   33       11.809072     11.771624   0.000000   0.000000
   34       12.795371     12.778348   0.000000   0.000000
 
  0.3333333E+00  0.8331074E-16  0.8759287E-15  0.4535147E-02
    1      -43.084714    -43.084192   1.000000   1.000000
    2      -28.262489    -28.290817   1.000000   1.000000
    3      -27.182367    -27.140218   1.000000   1.000000
    4      -27.151943    -27.132061   1.000000   1.000000
    5      -26.412170    -26.473358   1.000000   1.000000
    6      -13.492548    -13.498508   1.000000   1.000000
    7      -12.223641    -12.252978   1.000000   1.000000
    8      -12.151431    -12.146674   1.000000   1.000000
    9      -11.466181    -11.477427   1.000000   1.000000
   10       -8.775943     -8.777978   1.000000   1.000000
   11       -8.542009     -8.559222   1.000000   1.000000
   12       -7.861575     -7.847158   1.000000   1.000000
   13       -7.192309     -7.219034   1.000000   1.000000
   14       -6.817427     -6.824932   1.000000   1.000000
   15       -6.540713     -6.581798   1.000000   1.000000
   16       -6.351681     -6.311847   1.000000   1.000000
   17       -5.867675     -5.885095   1.000000   1.000000
   18       -4.934751     -4.980374   1.000000   1.000000
   19       -4.904400     -4.892710   1.000000   1.000000
   20       -4.713249     -4.723875   1.000000   1.000000
   21       -4.698873     -4.707263   1.000000   1.000000
   22       -0.080254     -0.075785   1.000000   1.000000
   23        0.231868      0.208194   1.000000   1.000000
   24        0.551126      0.555829   1.000000   1.000000
   25        1.085752      1.051371   1.000000   1.000000
   26        2.887228      2.889476   0.000000   0.000000
   27        2.970064      2.897987   0.000000   0.000000
   28        3.083166      3.083846   0.000000   0.000000
   29        3.316921      3.323955   0.000000   0.000000
   30        9.297114      9.291236   0.000000   0.000000
   31       10.413219     10.416012   0.000000   0.000000
   32       12.068760     12.042163   0.000000   0.000000
   33       12.156628     12.139923   0.000000   0.000000
   34       12.781133     12.881422   0.000000   0.000000
 
  0.4444444E+00  0.2126804E-16  0.1840014E-14  0.4535147E-02
    1      -43.084569    -43.084046   1.000000   1.000000
    2      -28.258905    -28.287399   1.000000   1.000000
    3      -27.185598    -27.139754   1.000000   1.000000
    4      -27.151566    -27.135287   1.000000   1.000000
    5      -26.414297    -26.475417   1.000000   1.000000
    6      -13.631002    -13.637063   1.000000   1.000000
    7      -12.129233    -12.132847   1.000000   1.000000
    8      -12.025341    -12.051419   1.000000   1.000000
    9      -11.505542    -11.511545   1.000000   1.000000
   10       -8.775866     -8.777815   1.000000   1.000000
   11       -8.559868     -8.577341   1.000000   1.000000
   12       -7.840108     -7.825048   1.000000   1.000000
   13       -7.228158     -7.250533   1.000000   1.000000
   14       -6.694450     -6.737523   1.000000   1.000000
   15       -6.468828     -6.473470   1.000000   1.000000
   16       -6.465292     -6.434430   1.000000   1.000000
   17       -5.974039     -5.988244   1.000000   1.000000
   18       -4.940128     -4.985173   1.000000   1.000000
   19       -4.900861     -4.889514   1.000000   1.000000
   20       -4.693447     -4.704217   1.000000   1.000000
   21       -4.690516     -4.699087   1.000000   1.000000
   22       -0.019933     -0.015207   1.000000   1.000000
   23        0.354862      0.334809   1.000000   1.000000
   24        0.546922      0.548567   1.000000   1.000000
   25        0.981152      0.945552   1.000000   1.000000
   26        2.869011      2.871916   0.000000   0.000000
   27        2.976534      2.900559   0.000000   0.000000
   28        3.071837      3.075400   0.000000   0.000000
   29        3.298404      3.306089   0.000000   0.000000
   30        9.008854      9.003090   0.000000   0.000000
   31       10.012752     10.014534   0.000000   0.000000
   32       11.863537     11.855032   0.000000   0.000000
   33       12.159013     12.146656   0.000000   0.000000
   34       12.738466     12.723144   0.000000   0.000000
 
 -0.2709037E-18  0.1428571E+00 -0.2822046E-14  0.9070295E-02
    1      -43.085136    -43.084617   1.000000   1.000000
    2      -28.266229    -28.294521   1.000000   1.000000
    3      -27.200235    -27.164274   1.000000   1.000000
    4      -27.127319    -27.100455   1.000000   1.000000
    5      -26.412061    -26.474066   1.000000   1.000000
    6      -12.948525    -12.948915   1.000000   1.000000
    7      -12.513293    -12.546458   1.000000   1.000000
    8      -12.425663    -12.426657   1.000000   1.000000
    9      -11.510818    -11.517602   1.000000   1.000000
   10       -8.720443     -8.724227   1.000000   1.000000
   11       -8.402636     -8.417857   1.000000   1.000000
   12       -7.865251     -7.855055   1.000000   1.000000
   13       -7.698338     -7.700050   1.000000   1.000000
   14       -7.193501     -7.222289   1.000000   1.000000
   15       -6.101893     -6.123100   1.000000   1.000000
   16       -5.970357     -5.930150   1.000000   1.000000
   17       -5.801210     -5.839494   1.000000   1.000000
   18       -5.009363     -5.047240   1.000000   1.000000
   19       -4.957196     -4.957846   1.000000   1.000000
   20       -4.806755     -4.815411   1.000000   1.000000
   21       -4.722413     -4.727678   1.000000   1.000000
   22       -0.158821     -0.161856   1.000000   1.000000
   23        0.002234     -0.018435   1.000000   1.000000
   24        0.619681      0.631999   1.000000   1.000000
   25        1.397352      1.366033   1.000000   1.000000
   26        2.827901      2.773758   0.000000   0.000000
   27        2.967279      2.946461   0.000000   0.000000
   28        3.093730      3.092841   0.000000   0.000000
   29        3.330188      3.337604   0.000000   0.000000
   30        9.906947      9.899237   0.000000   0.000000
   31       10.795572     10.818053   0.000000   0.000000
   32       11.244207     11.206803   0.000000   0.000000
   33       12.674823     12.715477   0.000000   0.000000
   34       13.378859     13.333769   0.000000   0.000000
 
  0.1111111E+00  0.1428571E+00 -0.2872136E-14  0.9070295E-02
    1      -43.085105    -43.084585   1.000000   1.000000
    2      -28.266004    -28.294297   1.000000   1.000000
    3      -27.199838    -27.164181   1.000000   1.000000
    4      -27.127663    -27.100533   1.000000   1.000000
    5      -26.413099    -26.475066   1.000000   1.000000
    6      -12.963965    -12.967554   1.000000   1.000000
    7      -12.537289    -12.539262   1.000000   1.000000
    8      -12.395270    -12.424931   1.000000   1.000000
    9      -11.501421    -11.507663   1.000000   1.000000
   10       -8.720330     -8.724200   1.000000   1.000000
   11       -8.398337     -8.413410   1.000000   1.000000
   12       -7.873535     -7.863530   1.000000   1.000000
   13       -7.689922     -7.691120   1.000000   1.000000
   14       -7.189486     -7.218351   1.000000   1.000000
   15       -6.106296     -6.129000   1.000000   1.000000
   16       -5.959169     -5.916367   1.000000   1.000000
   17       -5.810531     -5.850271   1.000000   1.000000
   18       -5.021408     -5.058096   1.000000   1.000000
   19       -4.953213     -4.953447   1.000000   1.000000
   20       -4.800736     -4.810533   1.000000   1.000000
   21       -4.725139     -4.730796   1.000000   1.000000
   22       -0.140412     -0.143923   1.000000   1.000000
   23        0.018648     -0.001739   1.000000   1.000000
   24        0.607329      0.618117   1.000000   1.000000
   25        1.388666      1.355291   1.000000   1.000000
   26        2.845042      2.795371   0.000000   0.000000
   27        2.939017      2.919382   0.000000   0.000000
   28        3.099572      3.098792   0.000000   0.000000
   29        3.330605      3.337312   0.000000   0.000000
   30        9.904073      9.896357   0.000000   0.000000
   31       10.739457     10.758412   0.000000   0.000000
   32       11.296607     11.263309   0.000000   0.000000
   33       12.576293     12.566914   0.000000   0.000000
   34       13.348542     13.303256   0.000000   0.000000
 
  0.2222222E+00  0.1428571E+00 -0.1903894E-14  0.9070295E-02
    1      -43.084942    -43.084420   1.000000   1.000000
    2      -28.262688    -28.291125   1.000000   1.000000
    3      -27.200889    -27.164425   1.000000   1.000000
    4      -27.128927    -27.102567   1.000000   1.000000
    5      -26.415862    -26.477729   1.000000   1.000000
    6      -13.132385    -13.138974   1.000000   1.000000
    7      -12.499220    -12.493309   1.000000   1.000000
    8      -12.292947    -12.326120   1.000000   1.000000
    9      -11.474581    -11.482474   1.000000   1.000000
   10       -8.721454     -8.725195   1.000000   1.000000
   11       -8.429015     -8.444216   1.000000   1.000000
   12       -7.852503     -7.839322   1.000000   1.000000
   13       -7.428848     -7.432965   1.000000   1.000000
   14       -7.185557     -7.213517   1.000000   1.000000
   15       -6.297973     -6.330562   1.000000   1.000000
   16       -6.051842     -6.009580   1.000000   1.000000
   17       -5.785626     -5.814856   1.000000   1.000000
   18       -5.034324     -5.071624   1.000000   1.000000
   19       -4.941809     -4.940385   1.000000   1.000000
   20       -4.785599     -4.796777   1.000000   1.000000
   21       -4.715639     -4.721962   1.000000   1.000000
   22       -0.091436     -0.091462   1.000000   1.000000
   23        0.092620      0.070320   1.000000   1.000000
   24        0.598037      0.605101   1.000000   1.000000
   25        1.278859      1.244471   1.000000   1.000000
   26        2.838714      2.803544   0.000000   0.000000
   27        2.910703      2.882736   0.000000   0.000000
   28        3.099975      3.098569   0.000000   0.000000
   29        3.319895      3.324969   0.000000   0.000000
   30        9.797141      9.791470   0.000000   0.000000
   31       11.057795     11.065824   0.000000   0.000000
   32       11.590751     11.583388   0.000000   0.000000
   33       12.020236     12.002771   0.000000   0.000000
   34       12.950578     12.775722   0.000000   0.000000
 
  0.3333333E+00  0.1428571E+00 -0.1950514E-14  0.9070295E-02
    1      -43.084744    -43.084222   1.000000   1.000000
    2      -28.257999    -28.286663   1.000000   1.000000
    3      -27.203442    -27.165354   1.000000   1.000000
    4      -27.130352    -27.105518   1.000000   1.000000
    5      -26.419052    -26.480796   1.000000   1.000000
    6      -13.364069    -13.370907   1.000000   1.000000
    7      -12.388441    -12.381885   1.000000   1.000000
    8      -12.151976    -12.185318   1.000000   1.000000
    9      -11.468426    -11.476792   1.000000   1.000000
   10       -8.730568     -8.734179   1.000000   1.000000
   11       -8.471841     -8.487300   1.000000   1.000000
   12       -7.845869     -7.831776   1.000000   1.000000
   13       -7.192424     -7.219666   1.000000   1.000000
   14       -6.992031     -6.996041   1.000000   1.000000
   15       -6.483188     -6.519884   1.000000   1.000000
   16       -6.232822     -6.195796   1.000000   1.000000
   17       -5.853271     -5.873967   1.000000   1.000000
   18       -5.041506     -5.079653   1.000000   1.000000
   19       -4.931582     -4.929020   1.000000   1.000000
   20       -4.767969     -4.779352   1.000000   1.000000
   21       -4.696862     -4.703880   1.000000   1.000000
   22       -0.020061     -0.017251   1.000000   1.000000
   23        0.223546      0.202189   1.000000   1.000000
   24        0.598281      0.600899   1.000000   1.000000
   25        1.120518      1.085359   1.000000   1.000000
   26        2.812008      2.795161   0.000000   0.000000
   27        2.901781      2.857573   0.000000   0.000000
   28        3.090359      3.089553   0.000000   0.000000
   29        3.300504      3.304389   0.000000   0.000000
   30        9.560260      9.554286   0.000000   0.000000
   31       10.818066     10.823138   0.000000   0.000000
   32       11.626793     11.618711   0.000000   0.000000
   33       12.204021     12.190771   0.000000   0.000000
   34       12.751418     12.700264   0.000000   0.000000
 
  0.4444444E+00  0.1428571E+00 -0.9637577E-15  0.9070295E-02
    1      -43.084583    -43.084059   1.000000   1.000000
    2      -28.253780    -28.282650   1.000000   1.000000
    3      -27.205951    -27.166300   1.000000   1.000000
    4      -27.131441    -27.108043   1.000000   1.000000
    5      -26.421170    -26.482835   1.000000   1.000000
    6      -13.546863    -13.553325   1.000000   1.000000
    7      -12.246784    -12.235489   1.000000   1.000000
    8      -12.031082    -12.073510   1.000000   1.000000
    9      -11.502751    -11.507111   1.000000   1.000000
   10       -8.733642     -8.737037   1.000000   1.000000
   11       -8.505967     -8.521830   1.000000   1.000000
   12       -7.816701     -7.801869   1.000000   1.000000
   13       -7.220644     -7.244351   1.000000   1.000000
   14       -6.680404     -6.711244   1.000000   1.000000
   15       -6.552355     -6.561367   1.000000   1.000000
   16       -6.411735     -6.386291   1.000000   1.000000
   17       -5.950939     -5.965020   1.000000   1.000000
   18       -5.038422     -5.077293   1.000000   1.000000
   19       -4.926961     -4.923814   1.000000   1.000000
   20       -4.756324     -4.767357   1.000000   1.000000
   21       -4.678002     -4.685296   1.000000   1.000000
   22        0.046180      0.049922   1.000000   1.000000
   23        0.351800      0.335277   1.000000   1.000000
   24        0.607647      0.606314   1.000000   1.000000
   25        0.990991      0.954638   1.000000   1.000000
   26        2.792351      2.780638   0.000000   0.000000
   27        2.903571      2.851219   0.000000   0.000000
   28        3.074077      3.074442   0.000000   0.000000
   29        3.278220      3.282724   0.000000   0.000000
   30        9.229728      9.223627   0.000000   0.000000
   31       10.259998     10.262333   0.000000   0.000000
   32       11.704244     11.696862   0.000000   0.000000
   33       12.265797     12.267316   0.000000   0.000000
   34       12.743028     12.730763   0.000000   0.000000
 
 -0.4444444E+00  0.1428571E+00 -0.2915603E-14  0.9070295E-02
    1      -43.084569    -43.084045   1.000000   1.000000
    2      -28.252502    -28.281452   1.000000   1.000000
    3      -27.207581    -27.167178   1.000000   1.000000
    4      -27.131635    -27.108914   1.000000   1.000000
    5      -26.421416    -26.483079   1.000000   1.000000
    6      -13.610720    -13.616788   1.000000   1.000000
    7      -12.157099    -12.149694   1.000000   1.000000
    8      -12.011684    -12.051933   1.000000   1.000000
    9      -11.522277    -11.525097   1.000000   1.000000
   10       -8.732885     -8.735861   1.000000   1.000000
   11       -8.527872     -8.544226   1.000000   1.000000
   12       -7.787745     -7.772685   1.000000   1.000000
   13       -7.248920     -7.270046   1.000000   1.000000
   14       -6.704616     -6.745604   1.000000   1.000000
   15       -6.510140     -6.473593   1.000000   1.000000
   16       -6.423344     -6.438680   1.000000   1.000000
   17       -5.975670     -5.987236   1.000000   1.000000
   18       -5.027922     -5.067730   1.000000   1.000000
   19       -4.927163     -4.923575   1.000000   1.000000
   20       -4.756473     -4.767391   1.000000   1.000000
   21       -4.669476     -4.676430   1.000000   1.000000
   22        0.058049      0.061861   1.000000   1.000000
   23        0.394430      0.380926   1.000000   1.000000
   24        0.621206      0.618624   1.000000   1.000000
   25        0.950085      0.914143   1.000000   1.000000
   26        2.786159      2.766156   0.000000   0.000000
   27        2.911516      2.863171   0.000000   0.000000
   28        3.062837      3.062456   0.000000   0.000000
   29        3.265353      3.271592   0.000000   0.000000
   30        9.050901      9.045005   0.000000   0.000000
   31       10.143869     10.145493   0.000000   0.000000
   32       11.681631     11.673369   0.000000   0.000000
   33       12.194768     12.178476   0.000000   0.000000
   34       12.789781     12.784800   0.000000   0.000000
 
 -0.3333333E+00  0.1428571E+00 -0.1935786E-14  0.9070295E-02
    1      -43.084693    -43.084171   1.000000   1.000000
    2      -28.254660    -28.283527   1.000000   1.000000
    3      -27.207307    -27.167202   1.000000   1.000000
    4      -27.130994    -27.107978   1.000000   1.000000
    5      -26.419552    -26.481289   1.000000   1.000000
    6      -13.533909    -13.539547   1.000000   1.000000
    7      -12.199431    -12.236306   1.000000   1.000000
    8      -12.096482    -12.085258   1.000000   1.000000
    9      -11.490982    -11.501279   1.000000   1.000000
   10       -8.736651     -8.739342   1.000000   1.000000
   11       -8.531310     -8.547794   1.000000   1.000000
   12       -7.785295     -7.770778   1.000000   1.000000
   13       -7.237954     -7.261166   1.000000   1.000000
   14       -6.720367     -6.745747   1.000000   1.000000
   15       -6.569169     -6.581050   1.000000   1.000000
   16       -6.413622     -6.391225   1.000000   1.000000
   17       -5.893760     -5.907517   1.000000   1.000000
   18       -5.016679     -5.057584   1.000000   1.000000
   19       -4.931493     -4.927917   1.000000   1.000000
   20       -4.768793     -4.779515   1.000000   1.000000
   21       -4.675131     -4.681370   1.000000   1.000000
   22       -0.000930      0.002335   1.000000   1.000000
   23        0.322391      0.305809   1.000000   1.000000
   24        0.632886      0.633713   1.000000   1.000000
   25        1.011242      0.978602   1.000000   1.000000
   26        2.786140      2.752001   0.000000   0.000000
   27        2.927693      2.890541   0.000000   0.000000
   28        3.063578      3.061263   0.000000   0.000000
   29        3.272409      3.279374   0.000000   0.000000
   30        9.215491      9.209355   0.000000   0.000000
   31       10.381467     10.383812   0.000000   0.000000
   32       11.887998     11.871803   0.000000   0.000000
   33       12.163191     12.072072   0.000000   0.000000
   34       13.218273     12.770698   0.000000   0.000000
 
 -0.2222222E+00  0.1428571E+00 -0.1978009E-14  0.9070295E-02
    1      -43.084874    -43.084354   1.000000   1.000000
    2      -28.258943    -28.287605   1.000000   1.000000
    3      -27.205083    -27.166186   1.000000   1.000000
    4      -27.129632    -27.105503   1.000000   1.000000
    5      -26.416262    -26.478106   1.000000   1.000000
    6      -13.340144    -13.344984   1.000000   1.000000
    7      -12.330730    -12.382994   1.000000   1.000000
    8      -12.222375    -12.194028   1.000000   1.000000
    9      -11.475065    -11.487795   1.000000   1.000000
   10       -8.732627     -8.735482   1.000000   1.000000
   11       -8.500494     -8.516663   1.000000   1.000000
   12       -7.798659     -7.784862   1.000000   1.000000
   13       -7.212700     -7.240358   1.000000   1.000000
   14       -7.035192     -7.037942   1.000000   1.000000
   15       -6.505192     -6.540146   1.000000   1.000000
   16       -6.256590     -6.223545   1.000000   1.000000
   17       -5.779564     -5.798359   1.000000   1.000000
   18       -5.007559     -5.049071   1.000000   1.000000
   19       -4.939861     -4.937173   1.000000   1.000000
   20       -4.787122     -4.797075   1.000000   1.000000
   21       -4.690959     -4.696557   1.000000   1.000000
   22       -0.083911     -0.081518   1.000000   1.000000
   23        0.176247      0.155423   1.000000   1.000000
   24        0.635871      0.642194   1.000000   1.000000
   25        1.149151      1.119216   1.000000   1.000000
   26        2.790546      2.744901   0.000000   0.000000
   27        2.952227      2.923688   0.000000   0.000000
   28        3.073190      3.070102   0.000000   0.000000
   29        3.294607      3.301484   0.000000   0.000000
   30        9.552660      9.546379   0.000000   0.000000
   31       11.013808     11.019807   0.000000   0.000000
   32       11.740417     11.709229   0.000000   0.000000
   33       12.078812     12.079824   0.000000   0.000000
   34       12.820642     12.821900   0.000000   0.000000
 
 -0.1111111E+00  0.1428571E+00 -0.1007913E-14  0.9070295E-02
    1      -43.085047    -43.084528   1.000000   1.000000
    2      -28.263491    -28.291924   1.000000   1.000000
    3      -27.202131    -27.164882   1.000000   1.000000
    4      -27.128211    -27.102544   1.000000   1.000000
    5      -26.413267    -26.475225   1.000000   1.000000
    6      -13.104185    -13.107029   1.000000   1.000000
    7      -12.443733    -12.496500   1.000000   1.000000
    8      -12.357981    -12.333756   1.000000   1.000000
    9      -11.493116    -11.503099   1.000000   1.000000
   10       -8.721539     -8.724879   1.000000   1.000000
   11       -8.445469     -8.461129   1.000000   1.000000
   12       -7.814548     -7.800943   1.000000   1.000000
   13       -7.464503     -7.470013   1.000000   1.000000
   14       -7.198413     -7.225751   1.000000   1.000000
   15       -6.301080     -6.332402   1.000000   1.000000
   16       -6.083711     -6.045192   1.000000   1.000000
   17       -5.738428     -5.764565   1.000000   1.000000
   18       -5.003841     -5.044365   1.000000   1.000000
   19       -4.950773     -4.949781   1.000000   1.000000
   20       -4.801781     -4.810658   1.000000   1.000000
   21       -4.709299     -4.714564   1.000000   1.000000
   22       -0.141771     -0.141493   1.000000   1.000000
   23        0.051318      0.029121   1.000000   1.000000
   24        0.629823      0.640530   1.000000   1.000000
   25        1.301941      1.272392   1.000000   1.000000
   26        2.805411      2.752847   0.000000   0.000000
   27        2.970670      2.947005   0.000000   0.000000
   28        3.085080      3.082664   0.000000   0.000000
   29        3.317339      3.324504   0.000000   0.000000
   30        9.804897      9.798449   0.000000   0.000000
   31       11.224818     11.232903   0.000000   0.000000
   32       11.459443     11.439518   0.000000   0.000000
   33       12.141264     12.139641   0.000000   0.000000
   34       12.993661     12.988711   0.000000   0.000000
 
 -0.1965897E-17  0.2857143E+00 -0.5664263E-14  0.9070295E-02
    1      -43.085084    -43.084565   1.000000   1.000000
    2      -28.249157    -28.278652   1.000000   1.000000
    3      -27.234952    -27.193636   1.000000   1.000000
    4      -27.100507    -27.076398   1.000000   1.000000
    5      -26.428850    -26.492249   1.000000   1.000000
    6      -12.978116    -12.976357   1.000000   1.000000
    7      -12.500530    -12.560005   1.000000   1.000000
    8      -12.416200    -12.391990   1.000000   1.000000
    9      -11.522690    -11.530364   1.000000   1.000000
   10       -8.625686     -8.631903   1.000000   1.000000
   11       -8.340852     -8.353263   1.000000   1.000000
   12       -7.735586     -7.727408   1.000000   1.000000
   13       -7.540649     -7.547399   1.000000   1.000000
   14       -7.203472     -7.219220   1.000000   1.000000
   15       -6.286979     -6.306096   1.000000   1.000000
   16       -6.009474     -5.978052   1.000000   1.000000
   17       -5.775488     -5.808848   1.000000   1.000000
   18       -5.257966     -5.293547   1.000000   1.000000
   19       -5.044406     -5.049104   1.000000   1.000000
   20       -4.882691     -4.897113   1.000000   1.000000
   21       -4.674181     -4.676403   1.000000   1.000000