Automatically generated mesh
      57
Reciprocal lattice
    0.00000000000000    0.00000000000000    0.00000000000000             1
    0.08333333333334    0.00000000000000    0.00000000000000             6
    0.16666666666666    0.00000000000000    0.00000000000000             6
    0.25000000000000    0.00000000000000    0.00000000000000             6
    0.33333333333334    0.00000000000000    0.00000000000000             6
    0.41666666666666    0.00000000000000    0.00000000000000             6
    0.50000000000000    0.00000000000000    0.00000000000000             3
    0.08333333333334    0.08333333333334    0.00000000000000             6
    0.16666666666666    0.08333333333334    0.00000000000000            12
    0.25000000000000    0.08333333333334    0.00000000000000            12
    0.33333333333334    0.08333333333334    0.00000000000000            12
    0.41666666666666    0.08333333333334    0.00000000000000            12
    0.16666666666666    0.16666666666666    0.00000000000000             6
    0.25000000000000    0.16666666666666    0.00000000000000            12
    0.33333333333334    0.16666666666666    0.00000000000000            12
    0.41666666666666    0.16666666666666    0.00000000000000             6
    0.25000000000000    0.25000000000000    0.00000000000000             6
    0.33333333333334    0.25000000000000    0.00000000000000            12
    0.33333333333334    0.33333333333334    0.00000000000000             2
    0.00000000000000    0.00000000000000    0.25000000000000             2
    0.08333333333334    0.00000000000000    0.25000000000000            12
    0.16666666666666    0.00000000000000    0.25000000000000            12
    0.25000000000000    0.00000000000000    0.25000000000000            12
    0.33333333333334    0.00000000000000    0.25000000000000            12
    0.41666666666666    0.00000000000000    0.25000000000000            12
    0.50000000000000    0.00000000000000    0.25000000000000             6
    0.08333333333334    0.08333333333334    0.25000000000000            12
    0.16666666666666    0.08333333333334    0.25000000000000            24
    0.25000000000000    0.08333333333334    0.25000000000000            24
    0.33333333333334    0.08333333333334    0.25000000000000            24
    0.41666666666666    0.08333333333334    0.25000000000000            24
    0.16666666666666    0.16666666666666    0.25000000000000            12
    0.25000000000000    0.16666666666666    0.25000000000000            24
    0.33333333333334    0.16666666666666    0.25000000000000            24
    0.41666666666666    0.16666666666666    0.25000000000000            12
    0.25000000000000    0.25000000000000    0.25000000000000            12
    0.33333333333334    0.25000000000000    0.25000000000000            24
    0.33333333333334    0.33333333333334    0.25000000000000             4
    0.00000000000000    0.00000000000000    0.50000000000000             1
    0.08333333333334    0.00000000000000    0.50000000000000             6
    0.16666666666666    0.00000000000000    0.50000000000000             6
    0.25000000000000    0.00000000000000    0.50000000000000             6
    0.33333333333334    0.00000000000000    0.50000000000000             6
    0.41666666666666    0.00000000000000    0.50000000000000             6
    0.50000000000000    0.00000000000000    0.50000000000000             3
    0.08333333333334    0.08333333333334    0.50000000000000             6
    0.16666666666666    0.08333333333334    0.50000000000000            12
    0.25000000000000    0.08333333333334    0.50000000000000            12
    0.33333333333334    0.08333333333334    0.50000000000000            12
    0.41666666666666    0.08333333333334    0.50000000000000            12
    0.16666666666666    0.16666666666666    0.50000000000000             6
    0.25000000000000    0.16666666666666    0.50000000000000            12
    0.33333333333334    0.16666666666666    0.50000000000000            12
    0.41666666666666    0.16666666666666    0.50000000000000             6
    0.25000000000000    0.25000000000000    0.50000000000000             6
    0.33333333333334    0.25000000000000    0.50000000000000            12
    0.33333333333334    0.33333333333334    0.50000000000000             2
Tetrahedra
       586    0.00028935185185
         8         1         2         2        21
         8         2         2         8        21
         4         2         8        21        27
         4         1         2        20        21
         8         2        20        21        21
         8         2        21        21        27
         8         2         3         8        22
         8         3         8         9        22
         4         8         9        22        28
         4         2         8        21        22
         8         8        21        22        27
         8         8        22        27        28
         8         3         4         9        23
         8         4         9        10        23
         4         9        10        23        29
         4         3         9        22        23
         8         9        22        23        28
         8         9        23        28        29
         8         4         5        10        24
         8         5        10        11        24
         4        10        11        24        30
         4         4        10        23        24
         8        10        23        24        29
         8        10        24        29        30
         8         5         6        11        25
         8         6        11        12        25
         4        11        12        25        31
         4         5        11        24        25
         8        11        24        25        30
         8        11        25        30        31
         8         6         7        12        26
         4         7        12        12        26
         4        12        12        26        31
         4         6        12        25        26
         8        12        25        26        31
         8        12        26        31        31
         8         6         7        12        25
         4        11        12        25        30
         4         7        12        25        26
         8        12        25        30        31
         8         5         6        11        24
         4        10        11        24        29
         4         6        11        24        25
         8        11        24        29        30
         8         4         5        10        23
         4         9        10        23        28
         4         5        10        23        24
         8        10        23        28        29
         8         3         4         9        22
         4         8         9        22        27
         4         4         9        22        23
         8         9        22        27        28
         8         2         3         8        21
         4         2         8        21        21
         4         3         8        21        22
         4         8        21        21        27
         4         1         2         2        20
         4         2         2        20        21
         8         2         3         8        27
         8         3         8         9        27
         4         3         9        27        28
         4         2         3        21        27
         8         3        21        22        27
         8         3        22        27        28
         8         8         9         9        28
         8         9         9        13        28
         4         9        13        28        32
         4         8         9        27        28
         8         9        27        28        28
         8         9        28        28        32
         8         9        10        13        29
         8        10        13        14        29
         4        13        14        29        33
         4         9        13        28        29
         8        13        28        29        32
         8        13        29        32        33
         8        10        11        14        30
         8        11        14        15        30
         4        14        15        30        34
         4        10        14        29        30
         8        14        29        30        33
         8        14        30        33        34
         8        11        12        15        31
         8        12        15        16        31
         4        15        16        31        35
         4        11        15        30        31
         8        15        30        31        34
         8        15        31        34        35
         8        12        12        16        31
         4        15        16        31        34
         4        12        16        31        31
         4        16        31        31        35
         8        16        31        34        35
         8        11        12        15        30
         4        14        15        30        33
         4        12        15        30        31
         8        15        30        33        34
         8        10        11        14        29
         4        13        14        29        32
         4        11        14        29        30
         8        14        29        32        33
         8         9        10        13        28
         4         9        13        28        28
         4        10        13        28        29
         4        13        28        28        32
         4         8         9         9        27
         4         3         9        22        27
         4         9         9        27        28
         4         3         8        21        27
         8         3         4         9        28
         8         4         9        10        28
         4         4        10        28        29
         4         3         4        22        28
         8         4        22        23        28
         8         4        23        28        29
         8         9        10        13        32
         8        10        13        14        32
         4        10        14        32        33
         4         9        10        28        32
         8        10        28        29        32
         8        10        29        32        33
         8        13        14        14        33
         8        14        14        17        33
         4        14        17        33        36
         4        13        14        32        33
         8        14        32        33        33
         8        14        33        33        36
         8        14        15        17        34
         8        15        17        18        34
         4        17        18        34        37
         4        14        17        33        34
         8        17        33        34        36
         8        17        34        36        37
         8        15        16        18        35
         4        16        18        18        35
         4        18        18        35        37
         4        15        18        34        35
         8        18        34        35        37
         8        18        35        37        37
         8        15        16        18        34
         4        17        18        34        36
         4        16        18        34        35
         8        18        34        36        37
         8        14        15        17        33
         4        14        17        33        33
         4        15        17        33        34
         4        17        33        33        36
         4        13        14        14        32
         4        10        14        29        32
         4        14        14        32        33
         4         4        10        23        28
         4        10        13        28        32
         4         4         9        22        28
         8         4         5        10        29
         8         5        10        11        29
         4         5        11        29        30
         4         4         5        23        29
         8         5        23        24        29
         8         5        24        29        30
         8        10        11        14        33
         8        11        14        15        33
         4        11        15        33        34
         4        10        11        29        33
         8        11        29        30        33
         8        11        30        33        34
         8        14        15        17        36
         8        15        17        18        36
         4        15        18        36        37
         4        14        15        33        36
         8        15        33        34        36
         8        15        34        36        37
         8        17        18        18        37
        16        18        18        19        37
         8        18        19        37        38
         4        17        18        36        37
         8        18        36        37        37
        16        18        37        37        38
         8        18        19        37        37
         8        19        37        37        38
         4        17        18        18        36
         4        15        18        34        36
         4        18        18        36        37
         4        11        15        30        33
         4        15        17        33        36
         4         5        11        24        29
         4        11        14        29        33
         4         5        10        23        29
         8         5         6        11        30
         8         6        11        12        30
         4         6        12        30        31
         4         5         6        24        30
         8         6        24        25        30
         8         6        25        30        31
         8        11        12        15        34
         8        12        15        16        34
         4        12        16        34        35
         4        11        12        30        34
         8        12        30        31        34
         8        12        31        34        35
         8        15        16        18        37
         8        16        18        18        37
         4        16        18        37        37
         4        15        16        34        37
         8        16        34        35        37
         4        16        35        37        37
         8        18        18        19        38
         8        18        18        37        38
         4        16        18        35        37
         4        12        16        31        34
         4        16        18        34        37
         4         6        12        25        30
         4        12        15        30        34
         4         6        11        24        30
         8         6         7        12        31
         8         7        12        12        31
         4         7        12        31        31
         4         6         7        25        31
         8         7        25        26        31
         4         7        26        31        31
         4        12        12        16        35
         8        12        15        16        35
         4        12        15        34        35
         4        12        12        31        35
         8        12        31        31        35
         8        15        17        18        37
         4        15        17        36        37
         4        15        16        35        37
         8        15        34        35        37
         4        15        17        34        37
         4        17        18        37        37
         4        17        36        37        37
         4        12        15        31        35
         4        15        18        35        37
         4         7        12        26        31
         4        12        16        31        35
         4         7        12        25        31
         8         6        11        12        31
         4         6        11        30        31
         4         6         7        26        31
         8         6        25        26        31
         8        11        14        15        34
         4        11        14        33        34
         4        11        12        31        34
         8        11        30        31        34
         4        14        14        17        36
         4        14        14        33        36
         4        14        15        34        36
         8        14        33        34        36
         4        11        14        30        34
         4        14        17        34        36
         4         6        11        25        31
         4        11        15        31        34
         4         6        12        26        31
         8         5        10        11        30
         4         5        10        29        30
         4         5         6        25        30
         8         5        24        25        30
         8        10        13        14        33
         4        10        13        32        33
         4        10        11        30        33
         8        10        29        30        33
         4        10        13        29        33
         4        13        14        33        33
         4        13        32        33        33
         4         5        10        24        30
         4        10        14        30        33
         4         5        11        25        30
         8         4         9        10        29
         4         4         9        28        29
         4         4         5        24        29
         8         4        23        24        29
         4         9         9        13        32
         4         9         9        28        32
         4         9        10        29        32
         8         9        28        29        32
         4         4         9        23        29
         4         9        13        29        32
         4         4        10        24        29
         8         3         8         9        28
         4         3         8        27        28
         4         3         4        23        28
         8         3        22        23        28
         4         3         8        22        28
         4         8         9        28        28
         4         8        27        28        28
         4         3         9        23        28
         4         2         2         8        27
         4         2         2        21        27
         4         2         3        22        27
         8         2        21        22        27
         4         2         8        22        27
         4         1         2        21        21
         4         1        20        21        21
         8        20        21        21        40
         8        21        21        27        40
         4        21        27        40        46
         4        20        21        39        40
         8        21        39        40        40
         8        21        40        40        46
         8        21        22        27        41
         8        22        27        28        41
         4        27        28        41        47
         4        21        27        40        41
         8        27        40        41        46
         8        27        41        46        47
         8        22        23        28        42
         8        23        28        29        42
         4        28        29        42        48
         4        22        28        41        42
         8        28        41        42        47
         8        28        42        47        48
         8        23        24        29        43
         8        24        29        30        43
         4        29        30        43        49
         4        23        29        42        43
         8        29        42        43        48
         8        29        43        48        49
         8        24        25        30        44
         8        25        30        31        44
         4        30        31        44        50
         4        24        30        43        44
         8        30        43        44        49
         8        30        44        49        50
         8        25        26        31        45
         4        26        31        31        45
         4        31        31        45        50
         4        25        31        44        45
         8        31        44        45        50
         8        31        45        50        50
         8        25        26        31        44
         4        30        31        44        49
         4        26        31        44        45
         8        31        44        49        50
         8        24        25        30        43
         4        29        30        43        48
         4        25        30        43        44
         8        30        43        48        49
         8        23        24        29        42
         4        28        29        42        47
         4        24        29        42        43
         8        29        42        47        48
         8        22        23        28        41
         4        27        28        41        46
         4        23        28        41        42
         8        28        41        46        47
         8        21        22        27        40
         4        21        27        40        40
         4        22        27        40        41
         4        27        40        40        46
         4        20        21        21        39
         4        21        21        39        40
         8        21        22        27        46
         8        22        27        28        46
         4        22        28        46        47
         4        21        22        40        46
         8        22        40        41        46
         8        22        41        46        47
         8        27        28        28        47
         8        28        28        32        47
         4        28        32        47        51
         4        27        28        46        47
         8        28        46        47        47
         8        28        47        47        51
         8        28        29        32        48
         8        29        32        33        48
         4        32        33        48        52
         4        28        32        47        48
         8        32        47        48        51
         8        32        48        51        52
         8        29        30        33        49
         8        30        33        34        49
         4        33        34        49        53
         4        29        33        48        49
         8        33        48        49        52
         8        33        49        52        53
         8        30        31        34        50
         8        31        34        35        50
         4        34        35        50        54
         4        30        34        49        50
         8        34        49        50        53
         8        34        50        53        54
         8        31        31        35        50
         4        34        35        50        53
         4        31        35        50        50
         4        35        50        50        54
         8        35        50        53        54
         8        30        31        34        49
         4        33        34        49        52
         4        31        34        49        50
         8        34        49        52        53
         8        29        30        33        48
         4        32        33        48        51
         4        30        33        48        49
         8        33        48        51        52
         8        28        29        32        47
         4        28        32        47        47
         4        29        32        47        48
         4        32        47        47        51
         4        27        28        28        46
         4        22        28        41        46
         4        28        28        46        47
         4        22        27        40        46
         8        22        23        28        47
         8        23        28        29        47
         4        23        29        47        48
         4        22        23        41        47
         8        23        41        42        47
         8        23        42        47        48
         8        28        29        32        51
         8        29        32        33        51
         4        29        33        51        52
         4        28        29        47        51
         8        29        47        48        51
         8        29        48        51        52
         8        32        33        33        52
         8        33        33        36        52
         4        33        36        52        55
         4        32        33        51        52
         8        33        51        52        52
         8        33        52        52        55
         8        33        34        36        53
         8        34        36        37        53
         4        36        37        53        56
         4        33        36        52        53
         8        36        52        53        55
         8        36        53        55        56
         8        34        35        37        54
         4        35        37        37        54
         4        37        37        54        56
         4        34        37        53        54
         8        37        53        54        56
         8        37        54        56        56
         8        34        35        37        53
         4        36        37        53        55
         4        35        37        53        54
         8        37        53        55        56
         8        33        34        36        52
         4        33        36        52        52
         4        34        36        52        53
         4        36        52        52        55
         4        32        33        33        51
         4        29        33        48        51
         4        33        33        51        52
         4        23        29        42        47
         4        29        32        47        51
         4        23        28        41        47
         8        23        24        29        48
         8        24        29        30        48
         4        24        30        48        49
         4        23        24        42        48
         8        24        42        43        48
         8        24        43        48        49
         8        29        30        33        52
         8        30        33        34        52
         4        30        34        52        53
         4        29        30        48        52
         8        30        48        49        52
         8        30        49        52        53
         8        33        34        36        55
         8        34        36        37        55
         4        34        37        55        56
         4        33        34        52        55
         8        34        52        53        55
         8        34        53        55        56
         8        36        37        37        56
        16        37        37        38        56
         8        37        38        56        57
         4        36        37        55        56
         8        37        55        56        56
        16        37        56        56        57
         8        37        38        56        56
         8        38        56        56        57
         4        36        37        37        55
         4        34        37        53        55
         4        37        37        55        56
         4        30        34        49        52
         4        34        36        52        55
         4        24        30        43        48
         4        30        33        48        52
         4        24        29        42        48
         8        24        25        30        49
         8        25        30        31        49
         4        25        31        49        50
         4        24        25        43        49
         8        25        43        44        49
         8        25        44        49        50
         8        30        31        34        53
         8        31        34        35        53
         4        31        35        53        54
         4        30        31        49        53
         8        31        49        50        53
         8        31        50        53        54
         8        34        35        37        56
         8        35        37        37        56
         4        35        37        56        56
         4        34        35        53        56
         8        35        53        54        56
         4        35        54        56        56
         8        37        37        38        57
         8        37        37        56        57
         4        35        37        54        56
         4        31        35        50        53