Automatically generated mesh
     201
Reciprocal lattice
    0.00000000000000    0.00000000000000    0.00000000000000             1
    0.09090909090909    0.00000000000000    0.00000000000000             2
    0.18181818181818   -0.00000000000000    0.00000000000000             2
    0.27272727272727    0.00000000000000    0.00000000000000             2
    0.36363636363637    0.00000000000000    0.00000000000000             2
    0.45454545454545    0.00000000000000    0.00000000000000             2
   -0.00000000000000    0.08333333333334    0.00000000000000             2
    0.09090909090909    0.08333333333334    0.00000000000000             2
    0.18181818181818    0.08333333333334    0.00000000000000             2
    0.27272727272727    0.08333333333334    0.00000000000000             2
    0.36363636363637    0.08333333333334    0.00000000000000             2
    0.45454545454545    0.08333333333334    0.00000000000000             2
   -0.45454545454545    0.08333333333334    0.00000000000000             2
   -0.36363636363637    0.08333333333334    0.00000000000000             2
   -0.27272727272727    0.08333333333334    0.00000000000000             2
   -0.18181818181818    0.08333333333334    0.00000000000000             2
   -0.09090909090909    0.08333333333334    0.00000000000000             2
   -0.00000000000000    0.16666666666666    0.00000000000000             2
    0.09090909090909    0.16666666666666    0.00000000000000             2
    0.18181818181818    0.16666666666666    0.00000000000000             2
    0.27272727272727    0.16666666666666    0.00000000000000             2
    0.36363636363637    0.16666666666666    0.00000000000000             2
    0.45454545454545    0.16666666666666    0.00000000000000             2
   -0.45454545454545    0.16666666666666    0.00000000000000             2
   -0.36363636363637    0.16666666666666    0.00000000000000             2
   -0.27272727272727    0.16666666666666    0.00000000000000             2
   -0.18181818181818    0.16666666666666    0.00000000000000             2
   -0.09090909090909    0.16666666666666    0.00000000000000             2
   -0.00000000000000    0.25000000000000    0.00000000000000             2
    0.09090909090909    0.25000000000000    0.00000000000000             2
    0.18181818181818    0.25000000000000    0.00000000000000             2
    0.27272727272727    0.25000000000000    0.00000000000000             2
    0.36363636363637    0.25000000000000    0.00000000000000             2
    0.45454545454545    0.25000000000000    0.00000000000000             2
   -0.45454545454545    0.25000000000000    0.00000000000000             2
   -0.36363636363637    0.25000000000000    0.00000000000000             2
   -0.27272727272727    0.25000000000000    0.00000000000000             2
   -0.18181818181818    0.25000000000000    0.00000000000000             2
   -0.09090909090909    0.25000000000000    0.00000000000000             2
   -0.00000000000000    0.33333333333334    0.00000000000000             2
    0.09090909090909    0.33333333333334    0.00000000000000             2
    0.18181818181818    0.33333333333334    0.00000000000000             2
    0.27272727272727    0.33333333333334    0.00000000000000             2
    0.36363636363637    0.33333333333334    0.00000000000000             2
    0.45454545454545    0.33333333333334    0.00000000000000             2
   -0.45454545454545    0.33333333333334    0.00000000000000             2
   -0.36363636363637    0.33333333333334    0.00000000000000             2
   -0.27272727272727    0.33333333333334    0.00000000000000             2
   -0.18181818181818    0.33333333333334    0.00000000000000             2
   -0.09090909090909    0.33333333333334    0.00000000000000             2
    0.00000000000000    0.41666666666666    0.00000000000000             2
    0.09090909090909    0.41666666666666    0.00000000000000             2
    0.18181818181818    0.41666666666666    0.00000000000000             2
    0.27272727272727    0.41666666666666    0.00000000000000             2
    0.36363636363637    0.41666666666666    0.00000000000000             2
    0.45454545454545    0.41666666666666    0.00000000000000             2
   -0.45454545454545    0.41666666666666    0.00000000000000             2
   -0.36363636363637    0.41666666666666    0.00000000000000             2
   -0.27272727272727    0.41666666666666    0.00000000000000             2
   -0.18181818181818    0.41666666666666    0.00000000000000             2
   -0.09090909090909    0.41666666666666    0.00000000000000             2
   -0.00000000000000    0.50000000000000    0.00000000000000             1
    0.09090909090909    0.50000000000000    0.00000000000000             2
    0.18181818181818    0.50000000000000    0.00000000000000             2
    0.27272727272727    0.50000000000000    0.00000000000000             2
    0.36363636363637    0.50000000000000    0.00000000000000             2
    0.45454545454545    0.50000000000000    0.00000000000000             2
    0.00000000000000    0.00000000000000    0.25000000000000             2
    0.09090909090909    0.00000000000000    0.25000000000000             4
    0.18181818181818   -0.00000000000000    0.25000000000000             4
    0.27272727272727    0.00000000000000    0.25000000000000             4
    0.36363636363637    0.00000000000000    0.25000000000000             4
    0.45454545454545    0.00000000000000    0.25000000000000             4
   -0.00000000000000    0.08333333333334    0.25000000000000             4
    0.09090909090909    0.08333333333334    0.25000000000000             4
    0.18181818181818    0.08333333333334    0.25000000000000             4
    0.27272727272727    0.08333333333334    0.25000000000000             4
    0.36363636363637    0.08333333333334    0.25000000000000             4
    0.45454545454545    0.08333333333334    0.25000000000000             4
   -0.45454545454545    0.08333333333334    0.25000000000000             4
   -0.36363636363637    0.08333333333334    0.25000000000000             4
   -0.27272727272727    0.08333333333334    0.25000000000000             4
   -0.18181818181818    0.08333333333334    0.25000000000000             4
   -0.09090909090909    0.08333333333334    0.25000000000000             4
   -0.00000000000000    0.16666666666666    0.25000000000000             4
    0.09090909090909    0.16666666666666    0.25000000000000             4
    0.18181818181818    0.16666666666666    0.25000000000000             4
    0.27272727272727    0.16666666666666    0.25000000000000             4
    0.36363636363637    0.16666666666666    0.25000000000000             4
    0.45454545454545    0.16666666666666    0.25000000000000             4
   -0.45454545454545    0.16666666666666    0.25000000000000             4
   -0.36363636363637    0.16666666666666    0.25000000000000             4
   -0.27272727272727    0.16666666666666    0.25000000000000             4
   -0.18181818181818    0.16666666666666    0.25000000000000             4
   -0.09090909090909    0.16666666666666    0.25000000000000             4
   -0.00000000000000    0.25000000000000    0.25000000000000             4
    0.09090909090909    0.25000000000000    0.25000000000000             4
    0.18181818181818    0.25000000000000    0.25000000000000             4
    0.27272727272727    0.25000000000000    0.25000000000000             4
    0.36363636363637    0.25000000000000    0.25000000000000             4
    0.45454545454545    0.25000000000000    0.25000000000000             4
   -0.45454545454545    0.25000000000000    0.25000000000000             4
   -0.36363636363637    0.25000000000000    0.25000000000000             4
   -0.27272727272727    0.25000000000000    0.25000000000000             4
   -0.18181818181818    0.25000000000000    0.25000000000000             4
   -0.09090909090909    0.25000000000000    0.25000000000000             4
   -0.00000000000000    0.33333333333334    0.25000000000000             4
    0.09090909090909    0.33333333333334    0.25000000000000             4
    0.18181818181818    0.33333333333334    0.25000000000000             4
    0.27272727272727    0.33333333333334    0.25000000000000             4
    0.36363636363637    0.33333333333334    0.25000000000000             4
    0.45454545454545    0.33333333333334    0.25000000000000             4
   -0.45454545454545    0.33333333333334    0.25000000000000             4
   -0.36363636363637    0.33333333333334    0.25000000000000             4
   -0.27272727272727    0.33333333333334    0.25000000000000             4
   -0.18181818181818    0.33333333333334    0.25000000000000             4
   -0.09090909090909    0.33333333333334    0.25000000000000             4
    0.00000000000000    0.41666666666666    0.25000000000000             4
    0.09090909090909    0.41666666666666    0.25000000000000             4
    0.18181818181818    0.41666666666666    0.25000000000000             4
    0.27272727272727    0.41666666666666    0.25000000000000             4
    0.36363636363637    0.41666666666666    0.25000000000000             4
    0.45454545454545    0.41666666666666    0.25000000000000             4
   -0.45454545454545    0.41666666666666    0.25000000000000             4
   -0.36363636363637    0.41666666666666    0.25000000000000             4
   -0.27272727272727    0.41666666666666    0.25000000000000             4
   -0.18181818181818    0.41666666666666    0.25000000000000             4
   -0.09090909090909    0.41666666666666    0.25000000000000             4
   -0.00000000000000    0.50000000000000    0.25000000000000             2
    0.09090909090909    0.50000000000000    0.25000000000000             4
    0.18181818181818    0.50000000000000    0.25000000000000             4
    0.27272727272727    0.50000000000000    0.25000000000000             4
    0.36363636363637    0.50000000000000    0.25000000000000             4
    0.45454545454545    0.50000000000000    0.25000000000000             4
    0.00000000000000    0.00000000000000    0.50000000000000             1
    0.09090909090909    0.00000000000000    0.50000000000000             2
    0.18181818181818   -0.00000000000000    0.50000000000000             2
    0.27272727272727    0.00000000000000    0.50000000000000             2
    0.36363636363637    0.00000000000000    0.50000000000000             2
    0.45454545454545    0.00000000000000    0.50000000000000             2
   -0.00000000000000    0.08333333333334    0.50000000000000             2
    0.09090909090909    0.08333333333334    0.50000000000000             2
    0.18181818181818    0.08333333333334    0.50000000000000             2
    0.27272727272727    0.08333333333334    0.50000000000000             2
    0.36363636363637    0.08333333333334    0.50000000000000             2
    0.45454545454545    0.08333333333334    0.50000000000000             2
   -0.45454545454545    0.08333333333334    0.50000000000000             2
   -0.36363636363637    0.08333333333334    0.50000000000000             2
   -0.27272727272727    0.08333333333334    0.50000000000000             2
   -0.18181818181818    0.08333333333334    0.50000000000000             2
   -0.09090909090909    0.08333333333334    0.50000000000000             2
   -0.00000000000000    0.16666666666666    0.50000000000000             2
    0.09090909090909    0.16666666666666    0.50000000000000             2
    0.18181818181818    0.16666666666666    0.50000000000000             2
    0.27272727272727    0.16666666666666    0.50000000000000             2
    0.36363636363637    0.16666666666666    0.50000000000000             2
    0.45454545454545    0.16666666666666    0.50000000000000             2
   -0.45454545454545    0.16666666666666    0.50000000000000             2
   -0.36363636363637    0.16666666666666    0.50000000000000             2
   -0.27272727272727    0.16666666666666    0.50000000000000             2
   -0.18181818181818    0.16666666666666    0.50000000000000             2
   -0.09090909090909    0.16666666666666    0.50000000000000             2
   -0.00000000000000    0.25000000000000    0.50000000000000             2
    0.09090909090909    0.25000000000000    0.50000000000000             2
    0.18181818181818    0.25000000000000    0.50000000000000             2
    0.27272727272727    0.25000000000000    0.50000000000000             2
    0.36363636363637    0.25000000000000    0.50000000000000             2
    0.45454545454545    0.25000000000000    0.50000000000000             2
   -0.45454545454545    0.25000000000000    0.50000000000000             2
   -0.36363636363637    0.25000000000000    0.50000000000000             2
   -0.27272727272727    0.25000000000000    0.50000000000000             2
   -0.18181818181818    0.25000000000000    0.50000000000000             2
   -0.09090909090909    0.25000000000000    0.50000000000000             2
   -0.00000000000000    0.33333333333334    0.50000000000000             2
    0.09090909090909    0.33333333333334    0.50000000000000             2
    0.18181818181818    0.33333333333334    0.50000000000000             2
    0.27272727272727    0.33333333333334    0.50000000000000             2
    0.36363636363637    0.33333333333334    0.50000000000000             2
    0.45454545454545    0.33333333333334    0.50000000000000             2
   -0.45454545454545    0.33333333333334    0.50000000000000             2
   -0.36363636363637    0.33333333333334    0.50000000000000             2
   -0.27272727272727    0.33333333333334    0.50000000000000             2
   -0.18181818181818    0.33333333333334    0.50000000000000             2
   -0.09090909090909    0.33333333333334    0.50000000000000             2
    0.00000000000000    0.41666666666666    0.50000000000000             2
    0.09090909090909    0.41666666666666    0.50000000000000             2
    0.18181818181818    0.41666666666666    0.50000000000000             2
    0.27272727272727    0.41666666666666    0.50000000000000             2
    0.36363636363637    0.41666666666666    0.50000000000000             2
    0.45454545454545    0.41666666666666    0.50000000000000             2
   -0.45454545454545    0.41666666666666    0.50000000000000             2
   -0.36363636363637    0.41666666666666    0.50000000000000             2
   -0.27272727272727    0.41666666666666    0.50000000000000             2
   -0.18181818181818    0.41666666666666    0.50000000000000             2
   -0.09090909090909    0.41666666666666    0.50000000000000             2
   -0.00000000000000    0.50000000000000    0.50000000000000             1
    0.09090909090909    0.50000000000000    0.50000000000000             2
    0.18181818181818    0.50000000000000    0.50000000000000             2
    0.27272727272727    0.50000000000000    0.50000000000000             2
    0.36363636363637    0.50000000000000    0.50000000000000             2
    0.45454545454545    0.50000000000000    0.50000000000000             2
Tetrahedra
      1584    0.00031565656566
         2         1         2         7        69
         2         2         7         8        69
         2         7         8        69        75
         2         1         7        68        69
         2         7        68        69        74
         2         7        69        74        75
         2         2         3         8        70
         2         3         8         9        70
         2         8         9        70        76
         2         2         8        69        70
         2         8        69        70        75
         2         8        70        75        76
         2         3         4         9        71
         2         4         9        10        71
         2         9        10        71        77
         2         3         9        70        71
         2         9        70        71        76
         2         9        71        76        77
         2         4         5        10        72
         2         5        10        11        72
         2        10        11        72        78
         2         4        10        71        72
         2        10        71        72        77
         2        10        72        77        78
         2         5         6        11        73
         2         6        11        12        73
         2        11        12        73        79
         2         5        11        72        73
         2        11        72        73        78
         2        11        73        78        79
         2         6         6        12        73
         2         6        12        13        73
         2        12        13        73        80
         2         6        12        73        73
         2        12        73        73        79
         2        12        73        79        80
         2         5         6        13        72
         2         5        13        14        72
         2        13        14        72        81
         2         6        13        72        73
         2        13        72        73        80
         2        13        72        80        81
         2         4         5        14        71
         2         4        14        15        71
         2        14        15        71        82
         2         5        14        71        72
         2        14        71        72        81
         2        14        71        81        82
         2         3         4        15        70
         2         3        15        16        70
         2        15        16        70        83
         2         4        15        70        71
         2        15        70        71        82
         2        15        70        82        83
         2         2         3        16        69
         2         2        16        17        69
         2        16        17        69        84
         2         3        16        69        70
         2        16        69        70        83
         2        16        69        83        84
         2         1         2        17        68
         2         1         7        17        68
         2         7        17        68        74
         2         2        17        68        69
         2        17        68        69        84
         2        17        68        74        84
         2         7         8        18        75
         2         8        18        19        75
         2        18        19        75        86
         2         7        18        74        75
         2        18        74        75        85
         2        18        75        85        86
         2         8         9        19        76
         2         9        19        20        76
         2        19        20        76        87
         2         8        19        75        76
         2        19        75        76        86
         2        19        76        86        87
         2         9        10        20        77
         2        10        20        21        77
         2        20        21        77        88
         2         9        20        76        77
         2        20        76        77        87
         2        20        77        87        88
         2        10        11        21        78
         2        11        21        22        78
         2        21        22        78        89
         2        10        21        77        78
         2        21        77        78        88
         2        21        78        88        89
         2        11        12        22        79
         2        12        22        23        79
         2        22        23        79        90
         2        11        22        78        79
         2        22        78        79        89
         2        22        79        89        90
         2        12        13        23        80
         2        13        23        24        80
         2        23        24        80        91
         2        12        23        79        80
         2        23        79        80        90
         2        23        80        90        91
         2        13        14        24        81
         2        14        24        25        81
         2        24        25        81        92
         2        13        24        80        81
         2        24        80        81        91
         2        24        81        91        92
         2        14        15        25        82
         2        15        25        26        82
         2        25        26        82        93
         2        14        25        81        82
         2        25        81        82        92
         2        25        82        92        93
         2        15        16        26        83
         2        16        26        27        83
         2        26        27        83        94
         2        15        26        82        83
         2        26        82        83        93
         2        26        83        93        94
         2        16        17        27        84
         2        17        27        28        84
         2        27        28        84        95
         2        16        27        83        84
         2        27        83        84        94
         2        27        84        94        95
         2         7        17        28        74
         2         7        18        28        74
         2        18        28        74        85
         2        17        28        74        84
         2        28        74        84        95
         2        28        74        85        95
         2        18        19        29        86
         2        19        29        30        86
         2        29        30        86        97
         2        18        29        85        86
         2        29        85        86        96
         2        29        86        96        97
         2        19        20        30        87
         2        20        30        31        87
         2        30        31        87        98
         2        19        30        86        87
         2        30        86        87        97
         2        30        87        97        98
         2        20        21        31        88
         2        21        31        32        88
         2        31        32        88        99
         2        20        31        87        88
         2        31        87        88        98
         2        31        88        98        99
         2        21        22        32        89
         2        22        32        33        89
         2        32        33        89       100
         2        21        32        88        89
         2        32        88        89        99
         2        32        89        99       100
         2        22        23        33        90
         2        23        33        34        90
         2        33        34        90       101
         2        22        33        89        90
         2        33        89        90       100
         2        33        90       100       101
         2        23        24        34        91
         2        24        34        35        91
         2        34        35        91       102
         2        23        34        90        91
         2        34        90        91       101
         2        34        91       101       102
         2        24        25        35        92
         2        25        35        36        92
         2        35        36        92       103
         2        24        35        91        92
         2        35        91        92       102
         2        35        92       102       103
         2        25        26        36        93
         2        26        36        37        93
         2        36        37        93       104
         2        25        36        92        93
         2        36        92        93       103
         2        36        93       103       104
         2        26        27        37        94
         2        27        37        38        94
         2        37        38        94       105
         2        26        37        93        94
         2        37        93        94       104
         2        37        94       104       105
         2        27        28        38        95
         2        28        38        39        95
         2        38        39        95       106
         2        27        38        94        95
         2        38        94        95       105
         2        38        95       105       106
         2        18        28        39        85
         2        18        29        39        85
         2        29        39        85        96
         2        28        39        85        95
         2        39        85        95       106
         2        39        85        96       106
         2        29        30        40        97
         2        30        40        41        97
         2        40        41        97       108
         2        29        40        96        97
         2        40        96        97       107
         2        40        97       107       108
         2        30        31        41        98
         2        31        41        42        98
         2        41        42        98       109
         2        30        41        97        98
         2        41        97        98       108
         2        41        98       108       109
         2        31        32        42        99
         2        32        42        43        99
         2        42        43        99       110
         2        31        42        98        99
         2        42        98        99       109
         2        42        99       109       110
         2        32        33        43       100
         2        33        43        44       100
         2        43        44       100       111
         2        32        43        99       100
         2        43        99       100       110
         2        43       100       110       111
         2        33        34        44       101
         2        34        44        45       101
         2        44        45       101       112
         2        33        44       100       101
         2        44       100       101       111
         2        44       101       111       112
         2        34        35        45       102
         2        35        45        46       102
         2        45        46       102       113
         2        34        45       101       102
         2        45       101       102       112
         2        45       102       112       113
         2        35        36        46       103
         2        36        46        47       103
         2        46        47       103       114
         2        35        46       102       103
         2        46       102       103       113
         2        46       103       113       114
         2        36        37        47       104
         2        37        47        48       104
         2        47        48       104       115
         2        36        47       103       104
         2        47       103       104       114
         2        47       104       114       115
         2        37        38        48       105
         2        38        48        49       105
         2        48        49       105       116
         2        37        48       104       105
         2        48       104       105       115
         2        48       105       115       116
         2        38        39        49       106
         2        39        49        50       106
         2        49        50       106       117
         2        38        49       105       106
         2        49       105       106       116
         2        49       106       116       117
         2        29        39        50        96
         2        29        40        50        96
         2        40        50        96       107
         2        39        50        96       106
         2        50        96       106       117
         2        50        96       107       117
         2        40        41        51       108
         2        41        51        52       108
         2        51        52       108       119
         2        40        51       107       108
         2        51       107       108       118
         2        51       108       118       119
         2        41        42        52       109
         2        42        52        53       109
         2        52        53       109       120
         2        41        52       108       109
         2        52       108       109       119
         2        52       109       119       120
         2        42        43        53       110
         2        43        53        54       110
         2        53        54       110       121
         2        42        53       109       110
         2        53       109       110       120
         2        53       110       120       121
         2        43        44        54       111
         2        44        54        55       111
         2        54        55       111       122
         2        43        54       110       111
         2        54       110       111       121
         2        54       111       121       122
         2        44        45        55       112
         2        45        55        56       112