       N       E                     dE             d eps       ncg     rms          rms(c)
DAV:   1     0.260216055330E+03    0.26022E+03   -0.17337E+04 20904   0.145E+03
DAV:   2    -0.133785026458E+02   -0.27359E+03   -0.26435E+03 25366   0.361E+02
DAV:   3    -0.369260217915E+02   -0.23548E+02   -0.23373E+02 32776   0.915E+01
DAV:   4    -0.389795425387E+02   -0.20535E+01   -0.20462E+01 32086   0.239E+01
DAV:   5    -0.390522718681E+02   -0.72729E-01   -0.72722E-01 28936   0.373E+00    0.177E+01
RMM:   6    -0.378684608525E+02    0.11838E+01   -0.54810E+00 23167   0.122E+01    0.780E+00
RMM:   7    -0.384560172473E+02   -0.58756E+00   -0.84199E-01 26920   0.563E+00    0.387E+00
RMM:   8    -0.385330530443E+02   -0.77036E-01   -0.37797E-01 31602   0.350E+00    0.158E+00
RMM:   9    -0.385464355779E+02   -0.13383E-01   -0.12728E-01 32284   0.238E+00    0.379E-01
RMM:  10    -0.385578559614E+02   -0.11420E-01   -0.69806E-02 36958   0.132E+00    0.191E-01
RMM:  11    -0.385623800942E+02   -0.45241E-02   -0.27094E-02 38082   0.785E-01    0.130E-01
RMM:  12    -0.385641256407E+02   -0.17455E-02   -0.12075E-02 39146   0.479E-01    0.958E-02
RMM:  13    -0.385646563792E+02   -0.53074E-03   -0.43458E-03 37230   0.336E-01    0.471E-02
RMM:  14    -0.385650176602E+02   -0.36128E-03   -0.24025E-03 38211   0.240E-01    0.129E-02
RMM:  15    -0.385651553461E+02   -0.13769E-03   -0.12075E-03 35948   0.143E-01    0.109E-02
RMM:  16    -0.385652110844E+02   -0.55738E-04   -0.49847E-04 34912   0.949E-02    0.984E-03
RMM:  17    -0.385652289437E+02   -0.17859E-04   -0.19325E-04 32796   0.655E-02    0.326E-03
RMM:  18    -0.385652373992E+02   -0.84555E-05   -0.81780E-05 27903   0.477E-02
   1 F= -.38565237E+02 E0= -.38565237E+02  d E =0.000000E+00  mag=    -0.0000
