 running on   48 total cores
 distrk:  each k-point on   48 cores,    1 groups
 distr:  one band on    6 cores,    8 groups
 using from now: INCAR     
 vasp.6.1.2 22Jul20 (build Mar 31 2021 18:09:49) complex                        
  
 POSCAR found type information on POSCAR LiP O 
 POSCAR found :  3 types and     100 ions
 scaLAPACK will be used
 LDA part: xc-table for Pade appr. of Perdew
 generate k-points for:    6    3    2
 POSCAR, INCAR and KPOINTS ok, starting setup
 FFT: planning ...
 WAVECAR not read
 entering main loop
       N       E                     dE             d eps       ncg     rms          rms(c)
DAV:   1     0.450021249842E+04    0.45002E+04   -0.25658E+05 27520   0.151E+03
DAV:   2    -0.255571315945E+03   -0.47558E+04   -0.45076E+04 32472   0.387E+02
DAV:   3    -0.709639873603E+03   -0.45407E+03   -0.45068E+03 34464   0.129E+02
DAV:   4    -0.740247997229E+03   -0.30608E+02   -0.30465E+02 47640   0.267E+01
DAV:   5    -0.746629479996E+03   -0.63815E+01   -0.63780E+01 44352   0.730E+00    0.108E+02
DAV:   6    -0.568339008111E+03    0.17829E+03   -0.43581E+02 33080   0.392E+01    0.603E+01
DAV:   7    -0.592756272361E+03   -0.24417E+02   -0.65005E+01 33840   0.143E+01    0.205E+01
DAV:   8    -0.608656124490E+03   -0.15900E+02   -0.11888E+01 33496   0.681E+00    0.122E+01
DAV:   9    -0.629221659740E+03   -0.20566E+02   -0.99545E+00 33360   0.534E+00    0.767E+00
DAV:  10    -0.653489505336E+03   -0.24268E+02   -0.22414E+01 33824   0.678E+00    0.407E+00
DAV:  11    -0.663454707099E+03   -0.99652E+01   -0.11323E+01 34384   0.468E+00    0.284E+00
DAV:  12    -0.666141252198E+03   -0.26865E+01   -0.36291E+00 33480   0.292E+00    0.176E+00
DAV:  13    -0.666333345640E+03   -0.19209E+00   -0.56250E-01 31504   0.131E+00    0.960E-01
DAV:  14    -0.666348887988E+03   -0.15542E-01   -0.77630E-02 33960   0.607E-01    0.576E-01
DAV:  15    -0.666347502068E+03    0.13859E-02   -0.18758E-02 31824   0.317E-01    0.287E-01
DAV:  16    -0.666348010638E+03   -0.50857E-03   -0.48083E-03 35336   0.154E-01    0.103E-01
DAV:  17    -0.666348591077E+03   -0.58044E-03   -0.15764E-03 35720   0.840E-02    0.564E-02
DAV:  18    -0.666348725054E+03   -0.13398E-03   -0.23248E-04 33568   0.388E-02    0.316E-02
DAV:  19    -0.666348758774E+03   -0.33719E-04   -0.58149E-05 28968   0.185E-02    0.143E-02
DAV:  20    -0.666348764976E+03   -0.62024E-05   -0.12846E-05 22440   0.996E-03
   1 F= -.66634876E+03 E0= -.66634876E+03  d E =0.000000E+00  mag=     0.0001
