 running on   12 total cores
 distrk:  each k-point on   12 cores,    1 groups
 distr:  one band on    6 cores,    2 groups
 using from now: INCAR     
 vasp.6.1.2 22Jul20 (build Mar 20 2021 11:25:07) complex                        
  
 POSCAR found type information on POSCAR LiO 
 POSCAR found :  2 types and       9 ions
 scaLAPACK will be used
 LDA part: xc-table for Pade appr. of Perdew
 generate k-points for:    8    7    7
 POSCAR, INCAR and KPOINTS ok, starting setup
 FFT: planning ...
 WAVECAR not read
 entering main loop
       N       E                     dE             d eps       ncg     rms          rms(c)
DAV:   1     0.362082981966E+03    0.36208E+03   -0.28053E+04 26800   0.147E+03
DAV:   2    -0.183241360312E+02   -0.38041E+03   -0.36691E+03 34956   0.350E+02
DAV:   3    -0.434731536265E+02   -0.25149E+02   -0.24873E+02 39676   0.908E+01
DAV:   4    -0.443711498837E+02   -0.89800E+00   -0.89394E+00 44736   0.126E+01
DAV:   5    -0.444439170810E+02   -0.72767E-01   -0.72762E-01 36032   0.174E+00    0.145E+01
RMM:   6    -0.447100671538E+02   -0.26615E+00   -0.30074E+00 30794   0.898E+00    0.995E+00
RMM:   7    -0.442858108274E+02    0.42426E+00   -0.10646E+00 29882   0.562E+00    0.546E+00
RMM:   8    -0.440195473756E+02    0.26626E+00   -0.46979E-01 30562   0.400E+00    0.279E+00
RMM:   9    -0.440539217865E+02   -0.34374E-01   -0.16380E-01 31951   0.238E+00    0.222E+00
RMM:  10    -0.440283934330E+02    0.25528E-01   -0.48750E-02 33320   0.124E+00    0.931E-01
RMM:  11    -0.440286063466E+02   -0.21291E-03   -0.12062E-02 36074   0.648E-01    0.683E-01
RMM:  12    -0.440270198175E+02    0.15865E-02   -0.53742E-03 37370   0.429E-01    0.327E-01
WARNING in EDDRMM: call to ZHEGV failed, returncode =   8  4      5
RMM:  13    -0.440268707383E+02    0.14908E-03   -0.27602E-03 38409   0.318E-01    0.919E-02
RMM:  14    -0.440271259905E+02   -0.25525E-03   -0.10444E-03 45917   0.167E-01    0.416E-02
RMM:  15    -0.440272343746E+02   -0.10838E-03   -0.48489E-04 45617   0.108E-01    0.225E-02
RMM:  16    -0.440272712811E+02   -0.36907E-04   -0.24334E-04 44231   0.727E-02    0.136E-02
WARNING in EDDRMM: call to ZHEGV failed, returncode =   6  3      3
RMM:  17    -0.440272893761E+02   -0.18095E-04   -0.11355E-04 37680   0.494E-02    0.942E-03
RMM:  18    -0.440272997299E+02   -0.10354E-04   -0.44640E-05 30813   0.384E-02    0.566E-03
WARNING in EDDRMM: call to ZHEGV failed, returncode =   6  3     14
RMM:  19    -0.440273030025E+02   -0.32726E-05   -0.24635E-05 27899   0.320E-02
   1 F= -.44027303E+02 E0= -.44027303E+02  d E =0.000000E+00  mag=     0.0071
 -----------------------------------------------------------------------------
|                                                                             |
|           W    W    AA    RRRRR   N    N  II  N    N   GGGG   !!!           |
|           W    W   A  A   R    R  NN   N  II  NN   N  G    G  !!!           |
|           W    W  A    A  R    R  N N  N  II  N N  N  G       !!!           |
|           W WW W  AAAAAA  RRRRR   N  N N  II  N  N N  G  GGG   !            |
|           WW  WW  A    A  R   R   N   NN  II  N   NN  G    G                |
|           W    W  A    A  R    R  N    N  II  N    N   GGGG   !!!           |
|                                                                             |
|     Tetrahedron method does not include variations of the Fermi             |
|     occupations, so forces and stress will be inaccurate. We suggest        |
|     using a different smearing scheme ISMEAR = 1 or 2 for metals in         |
|     relaxations.                                                            |
|                                                                             |
 -----------------------------------------------------------------------------

