 running on   12 total cores
 distrk:  each k-point on   12 cores,    1 groups
 distr:  one band on    6 cores,    2 groups
 using from now: INCAR     
 vasp.6.1.2 22Jul20 (build Mar 20 2021 11:25:07) complex                        
  
 POSCAR found type information on POSCAR LiN 
 POSCAR found :  2 types and       4 ions
 scaLAPACK will be used
 -----------------------------------------------------------------------------
|                                                                             |
|               ----> ADVICE to this user running VASP <----                  |
|                                                                             |
|     You have a (more or less) 'small supercell' and for smaller cells       |
|     it is recommended to use the reciprocal-space projection scheme!        |
|     The real-space optimization is not efficient for small cells and it     |
|     is also less accurate ...                                               |
|     Therefore, set LREAL=.FALSE. in the INCAR file.                         |
|                                                                             |
 -----------------------------------------------------------------------------

 LDA part: xc-table for Pade appr. of Perdew
 generate k-points for:   11   10    8
 POSCAR, INCAR and KPOINTS ok, starting setup
 FFT: planning ...
 WAVECAR not read
 entering main loop
       N       E                     dE             d eps       ncg     rms          rms(c)
DAV:   1     0.617415958893E+02    0.61742E+02   -0.64283E+03 13480   0.120E+03
DAV:   2    -0.899782279875E+01   -0.70739E+02   -0.66393E+02 17420   0.258E+02
DAV:   3    -0.183210357312E+02   -0.93232E+01   -0.92645E+01 22892   0.732E+01
DAV:   4    -0.188194729028E+02   -0.49844E+00   -0.49795E+00 18992   0.164E+01
DAV:   5    -0.188266732235E+02   -0.72003E-02   -0.72000E-02 19640   0.216E+00    0.144E+01
RMM:   6    -0.154000930774E+02    0.34266E+01   -0.86593E+00 15676   0.166E+01    0.638E+00
RMM:   7    -0.154597176737E+02   -0.59625E-01   -0.74694E-01 18719   0.900E+00    0.265E+00
RMM:   8    -0.154099287819E+02    0.49789E-01   -0.33842E-01 22032   0.396E+00    0.152E+00
RMM:   9    -0.154102522859E+02   -0.32350E-03   -0.15707E-01 20885   0.321E+00    0.472E-01
RMM:  10    -0.154170493173E+02   -0.67970E-02   -0.69906E-02 23697   0.187E+00    0.286E-01
RMM:  11    -0.154207444055E+02   -0.36951E-02   -0.28200E-02 23818   0.970E-01    0.160E-01
RMM:  12    -0.154219601559E+02   -0.12158E-02   -0.10549E-02 23856   0.681E-01    0.607E-02
RMM:  13    -0.154226492348E+02   -0.68908E-03   -0.51447E-03 23559   0.421E-01    0.483E-02
RMM:  14    -0.154228886821E+02   -0.23945E-03   -0.21594E-03 22862   0.263E-01    0.202E-02
RMM:  15    -0.154230024459E+02   -0.11376E-03   -0.10285E-03 21841   0.170E-01    0.568E-03
RMM:  16    -0.154230556286E+02   -0.53183E-04   -0.44753E-04 20350   0.113E-01    0.503E-03
RMM:  17    -0.154230789612E+02   -0.23333E-04   -0.21101E-04 19130   0.790E-02    0.211E-03
RMM:  18    -0.154230914153E+02   -0.12454E-04   -0.98565E-05 18169   0.591E-02    0.241E-03
RMM:  19    -0.154230957641E+02   -0.43488E-05   -0.44260E-05 17008   0.466E-02
   1 F= -.15423096E+02 E0= -.15423096E+02  d E =0.000000E+00  mag=     0.0000
