 running on    8 total cores
 distrk:  each k-point on    8 cores,    1 groups
 distr:  one band on    4 cores,    2 groups
 using from now: INCAR     
 vasp.6.1.2 22Jul20 (build Mar 20 2021 11:25:07) complex                        
  
 POSCAR found type information on POSCAR LiP 
 POSCAR found :  2 types and      40 ions
 scaLAPACK will be used
 LDA part: xc-table for Pade appr. of Perdew
 generate k-points for:    4    3    3
 POSCAR, INCAR and KPOINTS ok, starting setup
 FFT: planning ...
 WAVECAR not read
 entering main loop
       N       E                     dE             d eps       ncg     rms          rms(c)
DAV:   1     0.106421342409E+04    0.10642E+04   -0.68723E+04  6832   0.133E+03
DAV:   2    -0.275002277933E+02   -0.10917E+04   -0.10081E+04  7976   0.288E+02
DAV:   3    -0.165471480657E+03   -0.13797E+03   -0.13616E+03  9218   0.972E+01
DAV:   4    -0.181381998594E+03   -0.15911E+02   -0.15807E+02 12328   0.291E+01
DAV:   5    -0.184529208947E+03   -0.31472E+01   -0.31456E+01 11304   0.856E+00    0.340E+01
DAV:   6    -0.184720590107E+03   -0.19138E+00   -0.95530E+00  8936   0.719E+00    0.187E+01
DAV:   7    -0.186882536563E+03   -0.21619E+01   -0.33313E+00  8704   0.438E+00    0.113E+01
DAV:   8    -0.187754653225E+03   -0.87212E+00   -0.14472E+00  8040   0.314E+00    0.252E+00
DAV:   9    -0.187833244469E+03   -0.78591E-01   -0.21646E-01  9592   0.135E+00    0.118E+00
DAV:  10    -0.187846627546E+03   -0.13383E-01   -0.40284E-02  8928   0.522E-01    0.453E-01
DAV:  11    -0.187850618178E+03   -0.39906E-02   -0.63608E-03  8296   0.252E-01    0.221E-01
DAV:  12    -0.187852626787E+03   -0.20086E-02   -0.24013E-03  9240   0.137E-01    0.106E-01
DAV:  13    -0.187853541124E+03   -0.91434E-03   -0.68254E-04  8520   0.696E-02    0.447E-02
DAV:  14    -0.187853854088E+03   -0.31296E-03   -0.27336E-04  8096   0.420E-02    0.257E-02
DAV:  15    -0.187853953801E+03   -0.99713E-04   -0.10792E-04  7168   0.265E-02    0.128E-02
DAV:  16    -0.187853974346E+03   -0.20544E-04   -0.22493E-05  6880   0.134E-02    0.612E-03
DAV:  17    -0.187853978886E+03   -0.45401E-05   -0.54098E-06  5184   0.746E-03
   1 F= -.18785398E+03 E0= -.18785398E+03  d E =0.000000E+00  mag=    -0.0002
