  16  16   1   0
  0.1006373E+02  0.4922448E-09  0.5296402E-09  0.6176136E-09  0.5000000E-15
  1.000000000000000E-004
  CAR 
 unknown system                          
     15.25041486    -43.87380198  301      1.30695372      1.00000000
    -43.874  0.0000E+00  0.0000E+00  0.0000E+00  0.0000E+00
    -43.677  0.0000E+00  0.0000E+00  0.0000E+00  0.0000E+00
    -43.480  0.0000E+00  0.0000E+00  0.0000E+00  0.0000E+00
    -43.283  0.0000E+00  0.0000E+00  0.0000E+00  0.0000E+00
    -43.085  0.0000E+00  0.0000E+00  0.0000E+00  0.0000E+00
    -42.888  0.0000E+00  0.0000E+00  0.0000E+00  0.0000E+00
    -42.691  0.0000E+00  0.0000E+00  0.0000E+00  0.0000E+00
    -42.494  0.0000E+00  0.0000E+00  0.0000E+00  0.0000E+00
    -42.297  0.0000E+00  0.0000E+00  0.0000E+00  0.0000E+00
    -42.100  0.0000E+00  0.0000E+00  0.0000E+00  0.0000E+00
    -41.903  0.0000E+00  0.0000E+00  0.0000E+00  0.0000E+00
    -41.706  0.0000E+00  0.0000E+00  0.0000E+00  0.0000E+00
    -41.509  0.0000E+00  0.0000E+00  0.0000E+00  0.0000E+00
    -41.312  0.0000E+00  0.0000E+00  0.0000E+00  0.0000E+00
    -41.115  0.0000E+00  0.0000E+00  0.2020E-01  0.2020E-01
    -40.918  0.0000E+00  0.0000E+00  0.2020E-01  0.2020E-01
    -40.721  0.0000E+00  0.0000E+00  0.6061E-01  0.6061E-01
    -40.523  0.0000E+00  0.0000E+00  0.6061E-01  0.6061E-01
    -40.326  0.0000E+00  0.0000E+00  0.6061E-01  0.6061E-01
    -40.129  0.0000E+00  0.0000E+00  0.6061E-01  0.6061E-01
    -39.932  0.0000E+00  0.0000E+00  0.6061E-01  0.6061E-01
    -39.735  0.0000E+00  0.0000E+00  0.6061E-01  0.6061E-01
    -39.538  0.0000E+00  0.0000E+00  0.6061E-01  0.6061E-01
    -39.341  0.0000E+00  0.0000E+00  0.6061E-01  0.6061E-01
    -39.144  0.0000E+00  0.0000E+00  0.6061E-01  0.6061E-01
    -38.947  0.0000E+00  0.0000E+00  0.6061E-01  0.6061E-01
    -38.750  0.0000E+00  0.0000E+00  0.6061E-01  0.6061E-01
    -38.553  0.0000E+00  0.0000E+00  0.6061E-01  0.6061E-01
    -38.356  0.0000E+00  0.0000E+00  0.6061E-01  0.6061E-01
    -38.158  0.0000E+00  0.0000E+00  0.6061E-01  0.6061E-01
    -37.961  0.0000E+00  0.0000E+00  0.6061E-01  0.6061E-01
    -37.764  0.0000E+00  0.0000E+00  0.6061E-01  0.6061E-01
    -37.567  0.0000E+00  0.0000E+00  0.6061E-01  0.6061E-01
    -37.370  0.0000E+00  0.0000E+00  0.6061E-01  0.6061E-01
    -37.173  0.0000E+00  0.0000E+00  0.6061E-01  0.6061E-01
    -36.976  0.0000E+00  0.0000E+00  0.6061E-01  0.6061E-01
    -36.779  0.0000E+00  0.0000E+00  0.6061E-01  0.6061E-01
    -36.582  0.0000E+00  0.0000E+00  0.6061E-01  0.6061E-01
    -36.385  0.0000E+00  0.0000E+00  0.6061E-01  0.6061E-01
    -36.188  0.0000E+00  0.0000E+00  0.6061E-01  0.6061E-01
    -35.991  0.0000E+00  0.0000E+00  0.6061E-01  0.6061E-01
    -35.793  0.0000E+00  0.0000E+00  0.6061E-01  0.6061E-01
    -35.596  0.0000E+00  0.0000E+00  0.6061E-01  0.6061E-01
    -35.399  0.0000E+00  0.0000E+00  0.6061E-01  0.6061E-01
    -35.202  0.0000E+00  0.0000E+00  0.6061E-01  0.6061E-01
    -35.005  0.0000E+00  0.0000E+00  0.6061E-01  0.6061E-01
    -34.808  0.0000E+00  0.0000E+00  0.6061E-01  0.6061E-01
    -34.611  0.0000E+00  0.0000E+00  0.6061E-01  0.6061E-01
    -34.414  0.0000E+00  0.0000E+00  0.6061E-01  0.6061E-01
    -34.217  0.0000E+00  0.0000E+00  0.6061E-01  0.6061E-01
    -34.020  0.0000E+00  0.0000E+00  0.6061E-01  0.6061E-01
    -33.823  0.0000E+00  0.0000E+00  0.6061E-01  0.6061E-01
    -33.626  0.0000E+00  0.0000E+00  0.6061E-01  0.6061E-01
    -33.429  0.0000E+00  0.0000E+00  0.6061E-01  0.6061E-01
    -33.231  0.0000E+00  0.0000E+00  0.6061E-01  0.6061E-01
    -33.034  0.0000E+00  0.0000E+00  0.6061E-01  0.6061E-01
    -32.837  0.0000E+00  0.0000E+00  0.6061E-01  0.6061E-01
    -32.640  0.0000E+00  0.0000E+00  0.6061E-01  0.6061E-01
    -32.443  0.0000E+00  0.0000E+00  0.6061E-01  0.6061E-01
    -32.246  0.0000E+00  0.0000E+00  0.6061E-01  0.6061E-01
    -32.049  0.0000E+00  0.0000E+00  0.6061E-01  0.6061E-01
    -31.852  0.0000E+00  0.0000E+00  0.6061E-01  0.6061E-01
    -31.655  0.0000E+00  0.0000E+00  0.6061E-01  0.6061E-01
    -31.458  0.0000E+00  0.0000E+00  0.6061E-01  0.6061E-01
    -31.261  0.0000E+00  0.0000E+00  0.6061E-01  0.6061E-01
    -31.064  0.0000E+00  0.0000E+00  0.6061E-01  0.6061E-01
    -30.866  0.0000E+00  0.0000E+00  0.6061E-01  0.6061E-01
    -30.669  0.0000E+00  0.0000E+00  0.6061E-01  0.6061E-01
    -30.472  0.0000E+00  0.0000E+00  0.6061E-01  0.6061E-01
    -30.275  0.0000E+00  0.0000E+00  0.6061E-01  0.6061E-01
    -30.078  0.0000E+00  0.0000E+00  0.6061E-01  0.6061E-01
    -29.881  0.0000E+00  0.0000E+00  0.6061E-01  0.6061E-01
    -29.684  0.0000E+00  0.0000E+00  0.6061E-01  0.6061E-01
    -29.487  0.0000E+00  0.0000E+00  0.6061E-01  0.6061E-01
    -29.290  0.0000E+00  0.0000E+00  0.6061E-01  0.6061E-01
    -29.093  0.0000E+00  0.0000E+00  0.6061E-01  0.6061E-01
    -28.896  0.0000E+00  0.0000E+00  0.6061E-01  0.6061E-01
    -28.699  0.0000E+00  0.0000E+00  0.6061E-01  0.6061E-01
    -28.502  0.0000E+00  0.0000E+00  0.6061E-01  0.6061E-01
    -28.304  0.0000E+00  0.0000E+00  0.6061E-01  0.6061E-01
    -28.107  0.0000E+00  0.0000E+00  0.6061E-01  0.6061E-01
    -27.910  0.0000E+00  0.0000E+00  0.6061E-01  0.6061E-01
    -27.713  0.0000E+00  0.0000E+00  0.6061E-01  0.6061E-01
    -27.516  0.0000E+00  0.0000E+00  0.6061E-01  0.6061E-01
    -27.319  0.0000E+00  0.0000E+00  0.6061E-01  0.6061E-01
    -27.122  0.0000E+00  0.0000E+00  0.6061E-01  0.6061E-01
    -26.925  0.0000E+00  0.0000E+00  0.6061E-01  0.6061E-01
    -26.728  0.0000E+00  0.0000E+00  0.6061E-01  0.6061E-01
    -26.531  0.0000E+00  0.0000E+00  0.6061E-01  0.6061E-01
    -26.334  0.0000E+00  0.0000E+00  0.6061E-01  0.6061E-01
    -26.137  0.0000E+00  0.0000E+00  0.6061E-01  0.6061E-01
    -25.939  0.0000E+00  0.0000E+00  0.6061E-01  0.6061E-01
    -25.742  0.0000E+00  0.0000E+00  0.6061E-01  0.6061E-01
    -25.545  0.0000E+00  0.0000E+00  0.6061E-01  0.6061E-01
    -25.348  0.0000E+00  0.0000E+00  0.6061E-01  0.6061E-01
    -25.151  0.0000E+00  0.0000E+00  0.6061E-01  0.6061E-01
    -24.954  0.0000E+00  0.0000E+00  0.6061E-01  0.6061E-01
    -24.757  0.0000E+00  0.0000E+00  0.6061E-01  0.6061E-01
    -24.560  0.0000E+00  0.0000E+00  0.6061E-01  0.6061E-01
    -24.363  0.0000E+00  0.0000E+00  0.6061E-01  0.6061E-01
    -24.166  0.0000E+00  0.0000E+00  0.6061E-01  0.6061E-01
    -23.969  0.0000E+00  0.0000E+00  0.6061E-01  0.6061E-01
    -23.772  0.0000E+00  0.0000E+00  0.6061E-01  0.6061E-01
    -23.574  0.0000E+00  0.0000E+00  0.6061E-01  0.6061E-01
    -23.377  0.0000E+00  0.0000E+00  0.6061E-01  0.6061E-01
    -23.180  0.0000E+00  0.0000E+00  0.6061E-01  0.6061E-01
    -22.983  0.0000E+00  0.0000E+00  0.6061E-01  0.6061E-01
    -22.786  0.0000E+00  0.0000E+00  0.6061E-01  0.6061E-01
    -22.589  0.0000E+00  0.0000E+00  0.6061E-01  0.6061E-01
    -22.392  0.0000E+00  0.0000E+00  0.6061E-01  0.6061E-01
    -22.195  0.0000E+00  0.0000E+00  0.6061E-01  0.6061E-01
    -21.998  0.0000E+00  0.0000E+00  0.6061E-01  0.6061E-01
    -21.801  0.0000E+00  0.0000E+00  0.6061E-01  0.6061E-01
    -21.604  0.0000E+00  0.0000E+00  0.6061E-01  0.6061E-01
    -21.407  0.0000E+00  0.0000E+00  0.6061E-01  0.6061E-01
    -21.210  0.0000E+00  0.0000E+00  0.6061E-01  0.6061E-01
    -21.012  0.0000E+00  0.0000E+00  0.6061E-01  0.6061E-01
    -20.815  0.0000E+00  0.0000E+00  0.6061E-01  0.6061E-01
    -20.618  0.0000E+00  0.0000E+00  0.6061E-01  0.6061E-01
    -20.421  0.0000E+00  0.0000E+00  0.6061E-01  0.6061E-01
    -20.224  0.0000E+00  0.0000E+00  0.6061E-01  0.6061E-01
    -20.027  0.0000E+00  0.0000E+00  0.6061E-01  0.6061E-01
    -19.830  0.0000E+00  0.0000E+00  0.6061E-01  0.6061E-01
    -19.633  0.0000E+00  0.0000E+00  0.6061E-01  0.6061E-01
    -19.436  0.0000E+00  0.0000E+00  0.6061E-01  0.6061E-01
    -19.239  0.0000E+00  0.0000E+00  0.6061E-01  0.6061E-01
    -19.042  0.0000E+00  0.0000E+00  0.6061E-01  0.6061E-01
    -18.845  0.0000E+00  0.0000E+00  0.6061E-01  0.6061E-01
    -18.647  0.0000E+00  0.0000E+00  0.6061E-01  0.6061E-01
    -18.450  0.0000E+00  0.0000E+00  0.6061E-01  0.6061E-01
    -18.253  0.1537E+00  0.1537E+00  0.7925E-01  0.7925E-01
    -18.056  0.0000E+00  0.0000E+00  0.8081E-01  0.8081E-01
    -17.859  0.0000E+00  0.0000E+00  0.8081E-01  0.8081E-01
    -17.662  0.0000E+00  0.0000E+00  0.8081E-01  0.8081E-01
    -17.465  0.0000E+00  0.0000E+00  0.8081E-01  0.8081E-01
    -17.268  0.0000E+00  0.0000E+00  0.8081E-01  0.8081E-01
    -17.071  0.0000E+00  0.0000E+00  0.8081E-01  0.8081E-01
    -16.874  0.0000E+00  0.0000E+00  0.8081E-01  0.8081E-01
    -16.677  0.0000E+00  0.0000E+00  0.8081E-01  0.8081E-01
    -16.480  0.0000E+00  0.0000E+00  0.8081E-01  0.8081E-01
    -16.283  0.0000E+00  0.0000E+00  0.8081E-01  0.8081E-01
    -16.085  0.0000E+00  0.0000E+00  0.8081E-01  0.8081E-01
    -15.888  0.4059E+00  0.4059E+00  0.8697E-01  0.8697E-01
    -15.691  0.0000E+00  0.0000E+00  0.1414E+00  0.1414E+00
    -15.494  0.0000E+00  0.0000E+00  0.1414E+00  0.1414E+00
    -15.297  0.0000E+00  0.0000E+00  0.1414E+00  0.1414E+00
    -15.100  0.0000E+00  0.0000E+00  0.1414E+00  0.1414E+00
    -14.903  0.0000E+00  0.0000E+00  0.1414E+00  0.1414E+00
    -14.706  0.0000E+00  0.0000E+00  0.1414E+00  0.1414E+00
    -14.509  0.0000E+00  0.0000E+00  0.1414E+00  0.1414E+00
    -14.312  0.0000E+00  0.0000E+00  0.1414E+00  0.1414E+00
    -14.115  0.0000E+00  0.0000E+00  0.1414E+00  0.1414E+00
    -13.918  0.0000E+00  0.0000E+00  0.1414E+00  0.1414E+00
    -13.720  0.0000E+00  0.0000E+00  0.1414E+00  0.1414E+00
    -13.523  0.0000E+00  0.0000E+00  0.1414E+00  0.1414E+00
    -13.326  0.0000E+00  0.0000E+00  0.1414E+00  0.1414E+00
    -13.129  0.0000E+00  0.0000E+00  0.1414E+00  0.1414E+00
    -12.932  0.0000E+00  0.0000E+00  0.1414E+00  0.1414E+00
    -12.735  0.0000E+00  0.0000E+00  0.1414E+00  0.1414E+00
    -12.538  0.0000E+00  0.0000E+00  0.1414E+00  0.1414E+00
    -12.341  0.0000E+00  0.0000E+00  0.1414E+00  0.1414E+00
    -12.144  0.0000E+00  0.0000E+00  0.1414E+00  0.1414E+00
    -11.947  0.0000E+00  0.0000E+00  0.1414E+00  0.1414E+00
    -11.750  0.0000E+00  0.0000E+00  0.1414E+00  0.1414E+00
    -11.553  0.0000E+00  0.0000E+00  0.1414E+00  0.1414E+00
    -11.355  0.0000E+00  0.0000E+00  0.1414E+00  0.1414E+00
    -11.158  0.0000E+00  0.0000E+00  0.1414E+00  0.1414E+00
    -10.961  0.0000E+00  0.0000E+00  0.1414E+00  0.1414E+00
    -10.764  0.0000E+00  0.0000E+00  0.1414E+00  0.1414E+00
    -10.567  0.0000E+00  0.0000E+00  0.1414E+00  0.1414E+00
    -10.370  0.0000E+00  0.0000E+00  0.1414E+00  0.1414E+00
    -10.173  0.0000E+00  0.0000E+00  0.1414E+00  0.1414E+00
     -9.976  0.0000E+00  0.0000E+00  0.1414E+00  0.1414E+00
     -9.779  0.0000E+00  0.0000E+00  0.1414E+00  0.1414E+00
     -9.582  0.0000E+00  0.0000E+00  0.1414E+00  0.1414E+00
     -9.385  0.0000E+00  0.0000E+00  0.1414E+00  0.1414E+00
     -9.188  0.0000E+00  0.0000E+00  0.1414E+00  0.1414E+00
     -8.991  0.0000E+00  0.0000E+00  0.1414E+00  0.1414E+00
     -8.793  0.0000E+00  0.0000E+00  0.1414E+00  0.1414E+00
     -8.596  0.0000E+00  0.0000E+00  0.1414E+00  0.1414E+00
     -8.399  0.0000E+00  0.0000E+00  0.1414E+00  0.1414E+00
     -8.202  0.0000E+00  0.0000E+00  0.1414E+00  0.1414E+00
     -8.005  0.0000E+00  0.0000E+00  0.1414E+00  0.1414E+00
     -7.808  0.0000E+00  0.0000E+00  0.1414E+00  0.1414E+00
     -7.611  0.0000E+00  0.0000E+00  0.1414E+00  0.1414E+00
     -7.414  0.0000E+00  0.0000E+00  0.1414E+00  0.1414E+00
     -7.217  0.0000E+00  0.0000E+00  0.1414E+00  0.1414E+00
     -7.020  0.0000E+00  0.0000E+00  0.1414E+00  0.1414E+00
     -6.823  0.0000E+00  0.0000E+00  0.1414E+00  0.1414E+00
     -6.626  0.0000E+00  0.0000E+00  0.1414E+00  0.1414E+00
     -6.428  0.0000E+00  0.0000E+00  0.1414E+00  0.1414E+00
     -6.231  0.0000E+00  0.0000E+00  0.1414E+00  0.1414E+00
     -6.034  0.0000E+00  0.0000E+00  0.1414E+00  0.1414E+00
     -5.837  0.0000E+00  0.0000E+00  0.1414E+00  0.1414E+00
     -5.640  0.1764E-02  0.1764E-02  0.1414E+00  0.1414E+00
     -5.443  0.7159E-01  0.7158E-01  0.1609E+00  0.1609E+00
     -5.246  0.0000E+00  0.0000E+00  0.1616E+00  0.1616E+00
     -5.049  0.0000E+00  0.0000E+00  0.1616E+00  0.1616E+00
     -4.852  0.0000E+00  0.0000E+00  0.1616E+00  0.1616E+00
     -4.655  0.0000E+00  0.0000E+00  0.1616E+00  0.1616E+00
     -4.458  0.0000E+00  0.0000E+00  0.1616E+00  0.1616E+00
     -4.261  0.0000E+00  0.0000E+00  0.1616E+00  0.1616E+00
     -4.063  0.0000E+00  0.0000E+00  0.1616E+00  0.1616E+00
     -3.866  0.0000E+00  0.0000E+00  0.1616E+00  0.1616E+00
     -3.669  0.1334E-02  0.1334E-02  0.1616E+00  0.1616E+00
     -3.472  0.5004E-01  0.5004E-01  0.1678E+00  0.1678E+00
     -3.275  0.9181E-01  0.9181E-01  0.1815E+00  0.1815E+00
     -3.078  0.1555E+00  0.1555E+00  0.2003E+00  0.2003E+00
     -2.881  0.2803E-01  0.2803E-01  0.2164E+00  0.2164E+00
     -2.684  0.0000E+00  0.0000E+00  0.2222E+00  0.2222E+00
     -2.487  0.0000E+00  0.0000E+00  0.2222E+00  0.2222E+00
     -2.290  0.0000E+00  0.0000E+00  0.2222E+00  0.2222E+00
     -2.093  0.0000E+00  0.0000E+00  0.2222E+00  0.2222E+00
     -1.896  0.0000E+00  0.0000E+00  0.2222E+00  0.2222E+00
     -1.699  0.0000E+00  0.0000E+00  0.2222E+00  0.2222E+00
     -1.501  0.0000E+00  0.0000E+00  0.2222E+00  0.2222E+00
     -1.304  0.8523E-01  0.8523E-01  0.2340E+00  0.2340E+00
     -1.107  0.6959E-01  0.6959E-01  0.2526E+00  0.2526E+00
     -0.910  0.6256E-01  0.6256E-01  0.2642E+00  0.2642E+00
     -0.713  0.5320E-01  0.5320E-01  0.2753E+00  0.2753E+00
     -0.516  0.2080E-01  0.2080E-01  0.2827E+00  0.2827E+00
     -0.319  0.7121E-01  0.7121E-01  0.2954E+00  0.2954E+00
     -0.122  0.6120E-01  0.6120E-01  0.3102E+00  0.3102E+00
      0.075  0.3811E-01  0.3811E-01  0.3214E+00  0.3214E+00
      0.272  0.0000E+00  0.0000E+00  0.3232E+00  0.3232E+00
      0.469  0.0000E+00  0.0000E+00  0.3232E+00  0.3232E+00
      0.666  0.5598E-01  0.5599E-01  0.3261E+00  0.3261E+00
      0.864  0.1144E+00  0.1144E+00  0.3470E+00  0.3470E+00
      1.061  0.2148E+00  0.2148E+00  0.3734E+00  0.3734E+00
      1.258  0.0000E+00  0.0000E+00  0.3838E+00  0.3838E+00
      1.455  0.0000E+00  0.0000E+00  0.3838E+00  0.3838E+00
      1.652  0.0000E+00  0.0000E+00  0.3838E+00  0.3838E+00
      1.849  0.0000E+00  0.0000E+00  0.3838E+00  0.3838E+00
      2.046  0.0000E+00  0.0000E+00  0.3838E+00  0.3838E+00
      2.243  0.0000E+00  0.0000E+00  0.3838E+00  0.3838E+00
      2.440  0.0000E+00  0.0000E+00  0.3838E+00  0.3838E+00
      2.637  0.0000E+00  0.0000E+00  0.3838E+00  0.3838E+00
      2.834  0.0000E+00  0.0000E+00  0.3838E+00  0.3838E+00
      3.031  0.0000E+00  0.0000E+00  0.3838E+00  0.3838E+00
      3.228  0.0000E+00  0.0000E+00  0.3838E+00  0.3838E+00
      3.426  0.0000E+00  0.0000E+00  0.3838E+00  0.3838E+00
      3.623  0.0000E+00  0.0000E+00  0.3838E+00  0.3838E+00
      3.820  0.0000E+00  0.0000E+00  0.3838E+00  0.3838E+00
      4.017  0.0000E+00  0.0000E+00  0.3838E+00  0.3838E+00
      4.214  0.0000E+00  0.0000E+00  0.3838E+00  0.3838E+00
      4.411  0.0000E+00  0.0000E+00  0.3838E+00  0.3838E+00
      4.608  0.0000E+00  0.0000E+00  0.3838E+00  0.3838E+00
      4.805  0.0000E+00  0.0000E+00  0.3838E+00  0.3838E+00
      5.002  0.0000E+00  0.0000E+00  0.3838E+00  0.3838E+00
      5.199  0.0000E+00  0.0000E+00  0.3838E+00  0.3838E+00
      5.396  0.0000E+00  0.0000E+00  0.3838E+00  0.3838E+00
      5.593  0.0000E+00  0.0000E+00  0.3838E+00  0.3838E+00
      5.791  0.0000E+00  0.0000E+00  0.3838E+00  0.3838E+00
      5.988  0.0000E+00  0.0000E+00  0.3838E+00  0.3838E+00
      6.185  0.0000E+00  0.0000E+00  0.3838E+00  0.3838E+00
      6.382  0.0000E+00  0.0000E+00  0.3838E+00  0.3838E+00
      6.579  0.0000E+00  0.0000E+00  0.3838E+00  0.3838E+00
      6.776  0.0000E+00  0.0000E+00  0.3838E+00  0.3838E+00
      6.973  0.0000E+00  0.0000E+00  0.3838E+00  0.3838E+00
      7.170  0.0000E+00  0.0000E+00  0.3838E+00  0.3838E+00
      7.367  0.6505E-03  0.6505E-03  0.3839E+00  0.3839E+00
      7.564  0.1945E-02  0.1945E-02  0.3841E+00  0.3841E+00
      7.761  0.2488E-02  0.2488E-02  0.3846E+00  0.3846E+00
      7.958  0.3542E-02  0.3542E-02  0.3852E+00  0.3852E+00
      8.156  0.5648E-02  0.5648E-02  0.3860E+00  0.3860E+00
      8.353  0.6498E-02  0.6498E-02  0.3872E+00  0.3872E+00
      8.550  0.8874E-02  0.8874E-02  0.3887E+00  0.3887E+00
      8.747  0.1002E-01  0.1002E-01  0.3906E+00  0.3906E+00
      8.944  0.2289E-01  0.2289E-01  0.3935E+00  0.3935E+00
      9.141  0.2787E-01  0.2787E-01  0.4003E+00  0.4003E+00
      9.338  0.1240E-01  0.1240E-01  0.4036E+00  0.4036E+00
      9.535  0.1401E-01  0.1401E-01  0.4065E+00  0.4065E+00
      9.732  0.1750E-01  0.1750E-01  0.4097E+00  0.4097E+00
      9.929  0.2735E-01  0.2735E-01  0.4138E+00  0.4138E+00
     10.126  0.3228E-01  0.3228E-01  0.4197E+00  0.4197E+00
     10.323  0.3494E-01  0.3494E-01  0.4273E+00  0.4273E+00
     10.520  0.3479E-01  0.3479E-01  0.4340E+00  0.4340E+00
     10.718  0.4174E-01  0.4174E-01  0.4416E+00  0.4416E+00
     10.915  0.3840E-01  0.3840E-01  0.4497E+00  0.4497E+00
     11.112  0.2455E-01  0.2455E-01  0.4558E+00  0.4558E+00
     11.309  0.1675E-01  0.1675E-01  0.4598E+00  0.4598E+00
     11.506  0.1283E-01  0.1283E-01  0.4627E+00  0.4627E+00
     11.703  0.4111E-01  0.4117E-01  0.4674E+00  0.4674E+00
     11.900  0.4043E-01  0.4052E-01  0.4759E+00  0.4759E+00
     12.097  0.1874E-01  0.1878E-01  0.4817E+00  0.4817E+00
     12.294  0.2873E-02  0.2591E-02  0.4846E+00  0.4846E+00
     12.491  0.1712E-03  0.1954E-03  0.4848E+00  0.4848E+00
     12.688  0.0000E+00  0.0000E+00  0.4848E+00  0.4848E+00
     12.885  0.0000E+00  0.0000E+00  0.4848E+00  0.4848E+00
     13.083  0.0000E+00  0.0000E+00  0.4848E+00  0.4848E+00
     13.280  0.0000E+00  0.0000E+00  0.4848E+00  0.4848E+00
     13.477  0.0000E+00  0.0000E+00  0.4848E+00  0.4848E+00
     13.674  0.0000E+00  0.0000E+00  0.4848E+00  0.4848E+00
     13.871  0.0000E+00  0.0000E+00  0.4848E+00  0.4848E+00
     14.068  0.0000E+00  0.0000E+00  0.4848E+00  0.4848E+00
     14.265  0.0000E+00  0.0000E+00  0.4848E+00  0.4848E+00
     14.462  0.0000E+00  0.0000E+00  0.4848E+00  0.4848E+00
     14.659  0.0000E+00  0.0000E+00  0.4848E+00  0.4848E+00
     14.856  0.0000E+00  0.0000E+00  0.4848E+00  0.4848E+00
     15.053  0.0000E+00  0.0000E+00  0.4848E+00  0.4848E+00
     15.250  0.0000E+00  0.0000E+00  0.4848E+00  0.4848E+00
     15.25041486    -43.87380198  301      1.30695372      1.00000000
    -43.874  0.0000E+00  0.0000E+00  0.0000E+00  0.0000E+00  0.0000E+00  0.0000E+00  0.0000E+00  0.0000E+00  0.0000E+00  0.0000E+00  0.0000E+00  0.0000E+00  0.0000E+00  0.0000E+00  0.0000E+00  0.0000E+00  0.0000E+00  0.0000E+00
    -43.677  0.0000E+00  0.0000E+00  0.0000E+00  0.0000E+00  0.0000E+00  0.0000E+00  0.0000E+00  0.0000E+00  0.0000E+00  0.0000E+00  0.0000E+00  0.0000E+00  0.0000E+00  0.0000E+00  0.0000E+00  0.0000E+00  0.0000E+00  0.0000E+00
    -43.480  0.0000E+00  0.0000E+00  0.0000E+00  0.0000E+00  0.0000E+00  0.0000E+00  0.0000E+00  0.0000E+00  0.0000E+00  0.0000E+00  0.0000E+00  0.0000E+00  0.0000E+00  0.0000E+00  0.0000E+00  0.0000E+00  0.0000E+00  0.0000E+00
    -43.283  0.0000E+00  0.0000E+00  0.0000E+00  0.0000E+00  0.0000E+00  0.0000E+00  0.0000E+00  0.0000E+00  0.0000E+00  0.0000E+00  0.0000E+00  0.0000E+00  0.0000E+00  0.0000E+00  0.0000E+00  0.0000E+00  0.0000E+00  0.0000E+00
    -43.085  0.0000E+00  0.0000E+00  0.0000E+00  0.0000E+00  0.0000E+00  0.0000E+00  0.0000E+00  0.0000E+00  0.0000E+00  0.0000E+00  0.0000E+00  0.0000E+00  0.0000E+00  0.0000E+00  0.0000E+00  0.0000E+00  0.0000E+00  0.0000E+00
    -42.888  0.0000E+00  0.0000E+00  0.0000E+00  0.0000E+00  0.0000E+00  0.0000E+00  0.0000E+00  0.0000E+00  0.0000E+00  0.0000E+00  0.0000E+00  0.0000E+00  0.0000E+00  0.0000E+00  0.0000E+00  0.0000E+00  0.0000E+00  0.0000E+00
    -42.691  0.0000E+00  0.0000E+00  0.0000E+00  0.0000E+00  0.0000E+00  0.0000E+00  0.0000E+00  0.0000E+00  0.0000E+00  0.0000E+00  0.0000E+00  0.0000E+00  0.0000E+00  0.0000E+00  0.0000E+00  0.0000E+00  0.0000E+00  0.0000E+00
    -42.494  0.0000E+00  0.0000E+00  0.0000E+00  0.0000E+00  0.0000E+00  0.0000E+00  0.0000E+00  0.0000E+00  0.0000E+00  0.0000E+00  0.0000E+00  0.0000E+00  0.0000E+00  0.0000E+00  0.0000E+00  0.0000E+00  0.0000E+00  0.0000E+00
    -42.297  0.0000E+00  0.0000E+00  0.0000E+00  0.0000E+00  0.0000E+00  0.0000E+00  0.0000E+00  0.0000E+00  0.0000E+00  0.0000E+00  0.0000E+00  0.0000E+00  0.0000E+00  0.0000E+00  0.0000E+00  0.0000E+00  0.0000E+00  0.0000E+00
    -42.100  0.0000E+00  0.0000E+00  0.0000E+00  0.0000E+00  0.0000E+00  0.0000E+00  0.0000E+00  0.0000E+00  0.0000E+00  0.0000E+00  0.0000E+00  0.0000E+00  0.0000E+00  0.0000E+00  0.0000E+00  0.0000E+00  0.0000E+00  0.0000E+00
    -41.903  0.0000E+00  0.0000E+00  0.0000E+00  0.0000E+00  0.0000E+00  0.0000E+00  0.0000E+00  0.0000E+00  0.0000E+00  0.0000E+00  0.0000E+00  0.0000E+00  0.0000E+00  0.0000E+00  0.0000E+00  0.0000E+00  0.0000E+00  0.0000E+00
    -41.706  0.0000E+00  0.0000E+00  0.0000E+00  0.0000E+00  0.0000E+00  0.0000E+00  0.0000E+00  0.0000E+00  0.0000E+00  0.0000E+00  0.0000E+00  0.0000E+00  0.0000E+00  0.0000E+00  0.0000E+00  0.0000E+00  0.0000E+00  0.0000E+00
    -41.509  0.0000E+00  0.0000E+00  0.0000E+00  0.0000E+00  0.0000E+00  0.0000E+00  0.0000E+00  0.0000E+00  0.0000E+00  0.0000E+00  0.0000E+00  0.0000E+00  0.0000E+00  0.0000E+00  0.0000E+00  0.0000E+00  0.0000E+00  0.0000E+00
    -41.312  0.0000E+00  0.0000E+00  0.0000E+00  0.0000E+00  0.0000E+00  0.0000E+00  0.0000E+00  0.0000E+00  0.0000E+00  0.0000E+00  0.0000E+00  0.0000E+00  0.0000E+00  0.0000E+00  0.0000E+00  0.0000E+00  0.0000E+00  0.0000E+00
    -41.115  0.0000E+00  0.0000E+00  0.0000E+00  0.0000E+00  0.0000E+00  0.0000E+00  0.0000E+00  0.0000E+00  0.0000E+00  0.0000E+00  0.0000E+00  0.0000E+00  0.0000E+00  0.0000E+00  0.0000E+00  0.0000E+00  0.0000E+00  0.0000E+00
    -40.918  0.0000E+00  0.0000E+00  0.0000E+00  0.0000E+00  0.0000E+00  0.0000E+00  0.0000E+00  0.0000E+00  0.0000E+00  0.0000E+00  0.0000E+00  0.0000E+00  0.0000E+00  0.0000E+00  0.0000E+00  0.0000E+00  0.0000E+00  0.0000E+00
    -40.721  0.0000E+00  0.0000E+00  0.0000E+00  0.0000E+00  0.0000E+00  0.0000E+00  0.0000E+00  0.0000E+00  0.0000E+00  0.0000E+00  0.0000E+00  0.0000E+00  0.0000E+00  0.0000E+00  0.0000E+00  0.0000E+00  0.0000E+00  0.0000E+00
    -40.523  0.0000E+00  0.0000E+00  0.0000E+00  0.0000E+00  0.0000E+00  0.0000E+00  0.0000E+00  0.0000E+00  0.0000E+00  0.0000E+00  0.0000E+00  0.0000E+00  0.0000E+00  0.0000E+00  0.0000E+00  0.0000E+00  0.0000E+00  0.0000E+00
    -40.326  0.0000E+00  0.0000E+00  0.0000E+00  0.0000E+00  0.0000E+00  0.0000E+00  0.0000E+00  0.0000E+00  0.0000E+00  0.0000E+00  0.0000E+00  0.0000E+00  0.0000E+00  0.0000E+00  0.0000E+00  0.0000E+00  0.0000E+00  0.0000E+00
    -40.129  0.0000E+00  0.0000E+00  0.0000E+00  0.0000E+00  0.0000E+00  0.0000E+00  0.0000E+00  0.0000E+00  0.0000E+00  0.0000E+00  0.0000E+00  0.0000E+00  0.0000E+00  0.0000E+00  0.0000E+00  0.0000E+00  0.0000E+00  0.0000E+00
    -39.932  0.0000E+00  0.0000E+00  0.0000E+00  0.0000E+00  0.0000E+00  0.0000E+00  0.0000E+00  0.0000E+00  0.0000E+00  0.0000E+00  0.0000E+00  0.0000E+00  0.0000E+00  0.0000E+00  0.0000E+00  0.0000E+00  0.0000E+00  0.0000E+00
    -39.735  0.0000E+00  0.0000E+00  0.0000E+00  0.0000E+00  0.0000E+00  0.0000E+00  0.0000E+00  0.0000E+00  0.0000E+00  0.0000E+00  0.0000E+00  0.0000E+00  0.0000E+00  0.0000E+00  0.0000E+00  0.0000E+00  0.0000E+00  0.0000E+00
    -39.538  0.0000E+00  0.0000E+00  0.0000E+00  0.0000E+00  0.0000E+00  0.0000E+00  0.0000E+00  0.0000E+00  0.0000E+00  0.0000E+00  0.0000E+00  0.0000E+00  0.0000E+00  0.0000E+00  0.0000E+00  0.0000E+00  0.0000E+00  0.0000E+00
    -39.341  0.0000E+00  0.0000E+00  0.0000E+00  0.0000E+00  0.0000E+00  0.0000E+00  0.0000E+00  0.0000E+00  0.0000E+00  0.0000E+00  0.0000E+00  0.0000E+00  0.0000E+00  0.0000E+00  0.0000E+00  0.0000E+00  0.0000E+00  0.0000E+00
    -39.144  0.0000E+00  0.0000E+00  0.0000E+00  0.0000E+00  0.0000E+00  0.0000E+00  0.0000E+00  0.0000E+00  0.0000E+00  0.0000E+00  0.0000E+00  0.0000E+00  0.0000E+00  0.0000E+00  0.0000E+00  0.0000E+00  0.0000E+00  0.0000E+00
    -38.947  0.0000E+00  0.0000E+00  0.0000E+00  0.0000E+00  0.0000E+00  0.0000E+00  0.0000E+00  0.0000E+00  0.0000E+00  0.0000E+00  0.0000E+00  0.0000E+00  0.0000E+00  0.0000E+00  0.0000E+00  0.0000E+00  0.0000E+00  0.0000E+00
    -38.750  0.0000E+00  0.0000E+00  0.0000E+00  0.0000E+00  0.0000E+00  0.0000E+00  0.0000E+00  0.0000E+00  0.0000E+00  0.0000E+00  0.0000E+00  0.0000E+00  0.0000E+00  0.0000E+00  0.0000E+00  0.0000E+00  0.0000E+00  0.0000E+00
    -38.553  0.0000E+00  0.0000E+00  0.0000E+00  0.0000E+00  0.0000E+00  0.0000E+00  0.0000E+00  0.0000E+00  0.0000E+00  0.0000E+00  0.0000E+00  0.0000E+00  0.0000E+00  0.0000E+00  0.0000E+00  0.0000E+00  0.0000E+00  0.0000E+00
    -38.356  0.0000E+00  0.0000E+00  0.0000E+00  0.0000E+00  0.0000E+00  0.0000E+00  0.0000E+00  0.0000E+00  0.0000E+00  0.0000E+00  0.0000E+00  0.0000E+00  0.0000E+00  0.0000E+00  0.0000E+00  0.0000E+00  0.0000E+00  0.0000E+00
    -38.158  0.0000E+00  0.0000E+00  0.0000E+00  0.0000E+00  0.0000E+00  0.0000E+00  0.0000E+00  0.0000E+00  0.0000E+00  0.0000E+00  0.0000E+00  0.0000E+00  0.0000E+00  0.0000E+00  0.0000E+00  0.0000E+00  0.0000E+00  0.0000E+00
    -37.961  0.0000E+00  0.0000E+00  0.0000E+00  0.0000E+00  0.0000E+00  0.0000E+00  0.0000E+00  0.0000E+00  0.0000E+00  0.0000E+00  0.0000E+00  0.0000E+00  0.0000E+00  0.0000E+00  0.0000E+00  0.0000E+00  0.0000E+00  0.0000E+00
    -37.764  0.0000E+00  0.0000E+00  0.0000E+00  0.0000E+00  0.0000E+00  0.0000E+00  0.0000E+00  0.0000E+00  0.0000E+00  0.0000E+00  0.0000E+00  0.0000E+00  0.0000E+00  0.0000E+00  0.0000E+00  0.0000E+00  0.0000E+00  0.0000E+00
    -37.567  0.0000E+00  0.0000E+00  0.0000E+00  0.0000E+00  0.0000E+00  0.0000E+00  0.0000E+00  0.0000E+00  0.0000E+00  0.0000E+00  0.0000E+00  0.0000E+00  0.0000E+00  0.0000E+00  0.0000E+00  0.0000E+00  0.0000E+00  0.0000E+00
    -37.370  0.0000E+00  0.0000E+00  0.0000E+00  0.0000E+00  0.0000E+00  0.0000E+00  0.0000E+00  0.0000E+00  0.0000E+00  0.0000E+00  0.0000E+00  0.0000E+00  0.0000E+00  0.0000E+00  0.0000E+00  0.0000E+00  0.0000E+00  0.0000E+00
    -37.173  0.0000E+00  0.0000E+00  0.0000E+00  0.0000E+00  0.0000E+00  0.0000E+00  0.0000E+00  0.0000E+00  0.0000E+00  0.0000E+00  0.0000E+00  0.0000E+00  0.0000E+00  0.0000E+00  0.0000E+00  0.0000E+00  0.0000E+00  0.0000E+00
    -36.976  0.0000E+00  0.0000E+00  0.0000E+00  0.0000E+00  0.0000E+00  0.0000E+00  0.0000E+00  0.0000E+00  0.0000E+00  0.0000E+00  0.0000E+00  0.0000E+00  0.0000E+00  0.0000E+00  0.0000E+00  0.0000E+00  0.0000E+00  0.0000E+00
    -36.779  0.0000E+00  0.0000E+00  0.0000E+00  0.0000E+00  0.0000E+00  0.0000E+00  0.0000E+00  0.0000E+00  0.0000E+00  0.0000E+00  0.0000E+00  0.0000E+00  0.0000E+00  0.0000E+00  0.0000E+00  0.0000E+00  0.0000E+00  0.0000E+00
    -36.582  0.0000E+00  0.0000E+00  0.0000E+00  0.0000E+00  0.0000E+00  0.0000E+00  0.0000E+00  0.0000E+00  0.0000E+00  0.0000E+00  0.0000E+00  0.0000E+00  0.0000E+00  0.0000E+00  0.0000E+00  0.0000E+00  0.0000E+00  0.0000E+00
    -36.385  0.0000E+00  0.0000E+00  0.0000E+00  0.0000E+00  0.0000E+00  0.0000E+00  0.0000E+00  0.0000E+00  0.0000E+00  0.0000E+00  0.0000E+00  0.0000E+00  0.0000E+00  0.0000E+00  0.0000E+00  0.0000E+00  0.0000E+00  0.0000E+00
    -36.188  0.0000E+00  0.0000E+00  0.0000E+00  0.0000E+00  0.0000E+00  0.0000E+00  0.0000E+00  0.0000E+00  0.0000E+00  0.0000E+00  0.0000E+00  0.0000E+00  0.0000E+00  0.0000E+00  0.0000E+00  0.0000E+00  0.0000E+00  0.0000E+00
    -35.991  0.0000E+00  0.0000E+00  0.0000E+00  0.0000E+00  0.0000E+00  0.0000E+00  0.0000E+00  0.0000E+00  0.0000E+00  0.0000E+00  0.0000E+00  0.0000E+00  0.0000E+00  0.0000E+00  0.0000E+00  0.0000E+00  0.0000E+00  0.0000E+00
    -35.793  0.0000E+00  0.0000E+00  0.0000E+00  0.0000E+00  0.0000E+00  0.0000E+00  0.0000E+00  0.0000E+00  0.0000E+00  0.0000E+00  0.0000E+00  0.0000E+00  0.0000E+00  0.0000E+00  0.0000E+00  0.0000E+00  0.0000E+00  0.0000E+00
    -35.596  0.0000E+00  0.0000E+00  0.0000E+00  0.0000E+00  0.0000E+00  0.0000E+00  0.0000E+00  0.0000E+00  0.0000E+00  0.0000E+00  0.0000E+00  0.0000E+00  0.0000E+00  0.0000E+00  0.0000E+00  0.0000E+00  0.0000E+00  0.0000E+00
    -35.399  0.0000E+00  0.0000E+00  0.0000E+00  0.0000E+00  0.0000E+00  0.0000E+00  0.0000E+00  0.0000E+00  0.0000E+00  0.0000E+00  0.0000E+00  0.0000E+00  0.0000E+00  0.0000E+00  0.0000E+00  0.0000E+00  0.0000E+00  0.0000E+00
    -35.202  0.0000E+00  0.0000E+00  0.0000E+00  0.0000E+00  0.0000E+00  0.0000E+00  0.0000E+00  0.0000E+00  0.0000E+00  0.0000E+00  0.0000E+00  0.0000E+00  0.0000E+00  0.0000E+00  0.0000E+00  0.0000E+00  0.0000E+00  0.0000E+00
    -35.005  0.0000E+00  0.0000E+00  0.0000E+00  0.0000E+00  0.0000E+00  0.0000E+00  0.0000E+00  0.0000E+00  0.0000E+00  0.0000E+00  0.0000E+00  0.0000E+00  0.0000E+00  0.0000E+00  0.0000E+00  0.0000E+00  0.0000E+00  0.0000E+00
    -34.808  0.0000E+00  0.0000E+00  0.0000E+00  0.0000E+00  0.0000E+00  0.0000E+00  0.0000E+00  0.0000E+00  0.0000E+00  0.0000E+00  0.0000E+00  0.0000E+00  0.0000E+00  0.0000E+00  0.0000E+00  0.0000E+00  0.0000E+00  0.0000E+00
    -34.611  0.0000E+00  0.0000E+00  0.0000E+00  0.0000E+00  0.0000E+00  0.0000E+00  0.0000E+00  0.0000E+00  0.0000E+00  0.0000E+00  0.0000E+00  0.0000E+00  0.0000E+00  0.0000E+00  0.0000E+00  0.0000E+00  0.0000E+00  0.0000E+00
    -34.414  0.0000E+00  0.0000E+00  0.0000E+00  0.0000E+00  0.0000E+00  0.0000E+00  0.0000E+00  0.0000E+00  0.0000E+00  0.0000E+00  0.0000E+00  0.0000E+00  0.0000E+00  0.0000E+00  0.0000E+00  0.0000E+00  0.0000E+00  0.0000E+00
    -34.217  0.0000E+00  0.0000E+00  0.0000E+00  0.0000E+00  0.0000E+00  0.0000E+00  0.0000E+00  0.0000E+00  0.0000E+00  0.0000E+00  0.0000E+00  0.0000E+00  0.0000E+00  0.0000E+00  0.0000E+00  0.0000E+00  0.0000E+00  0.0000E+00
    -34.020  0.0000E+00  0.0000E+00  0.0000E+00  0.0000E+00  0.0000E+00  0.0000E+00  0.0000E+00  0.0000E+00  0.0000E+00  0.0000E+00  0.0000E+00  0.0000E+00  0.0000E+00  0.0000E+00  0.0000E+00  0.0000E+00  0.0000E+00  0.0000E+00