   16   16   99    2
  0.1006373E+02  0.4922448E-09  0.5296402E-09  0.6176136E-09  0.5000000E-15
  1.000000000000000E-004
  CAR 
 unknown system                          
     76     48     48
 
  0.0000000E+00  0.0000000E+00  0.0000000E+00  0.4761905E-02
    1      -41.186338    -41.186303   1.000000   1.000000
    2      -41.185644    -41.185609   1.000000   1.000000
    3      -40.863772    -40.863764   1.000000   1.000000
    4      -40.855550    -40.855542   1.000000   1.000000
    5      -40.855412    -40.855405   1.000000   1.000000
    6      -40.846943    -40.846935   1.000000   1.000000
    7      -18.426950    -18.426950   1.000000   1.000000
    8      -18.229193    -18.229193   1.000000   1.000000
    9      -15.868907    -15.868908   1.000000   1.000000
   10      -15.859026    -15.859025   1.000000   1.000000
   11      -15.802490    -15.802490   1.000000   1.000000
   12      -15.783813    -15.783813   1.000000   1.000000
   13      -15.757001    -15.757002   1.000000   1.000000
   14      -15.723051    -15.723050   1.000000   1.000000
   15       -5.625869     -5.625868   1.000000   1.000000
   16       -5.457054     -5.457055   1.000000   1.000000
   17       -3.619331     -3.619333   1.000000   1.000000
   18       -3.564644     -3.564644   1.000000   1.000000
   19       -3.388181     -3.388181   1.000000   1.000000
   20       -3.267539     -3.267540   1.000000   1.000000
   21       -3.143578     -3.143578   1.000000   1.000000
   22       -3.027469     -3.027469   1.000000   1.000000
   23       -1.214714     -1.214715   1.000000   1.000000
   24       -1.153702     -1.153704   1.000000   1.000000
   25       -1.064960     -1.064963   1.000000   1.000000
   26       -0.892002     -0.892004   1.000000   1.000000
   27       -0.698021     -0.698024   1.000000   1.000000
   28       -0.668820     -0.668820   1.000000   1.000000
   29       -0.555779     -0.555780   1.000000   1.000000
   30        0.136475      0.136472   1.000000   1.000000
   31        0.143899      0.143895   1.000000   1.000000
   32        0.270363      0.270363   1.000000   1.000000
   33        0.618397      0.618397   1.000000   1.000000
   34        0.732677      0.732675   1.000000   1.000000
   35        0.741099      0.741099   1.000000   1.000000
   36        0.879307      0.879306   1.000000   1.000000
   37        1.045383      1.045379   1.000000   1.000000
   38        1.148333      1.148332   1.000000   1.000000
   39        7.176053      7.176058   0.000000   0.000000
   40        9.561738      9.561738   0.000000   0.000000
   41       10.109329     10.109327   0.000000   0.000000
   42       10.263454     10.263451   0.000000   0.000000
   43       10.592501     10.592500   0.000000   0.000000
   44       10.609865     10.609865   0.000000   0.000000
   45       10.653346     10.653341   0.000000   0.000000
   46       11.455765     11.455763   0.000000   0.000000
   47       11.908466     11.908318   0.000000   0.000000
   48       12.562950     12.562749   0.000000   0.000000
 
  0.1428571E+00  0.0000000E+00  0.0000000E+00  0.9523810E-02
    1      -41.186258    -41.186223   1.000000   1.000000
    2      -41.185643    -41.185608   1.000000   1.000000
    3      -40.863411    -40.863403   1.000000   1.000000
    4      -40.855827    -40.855820   1.000000   1.000000
    5      -40.855077    -40.855070   1.000000   1.000000
    6      -40.847349    -40.847341   1.000000   1.000000
    7      -18.410475    -18.410475   1.000000   1.000000
    8      -18.230857    -18.230857   1.000000   1.000000
    9      -15.864933    -15.864932   1.000000   1.000000
   10      -15.864062    -15.864063   1.000000   1.000000
   11      -15.806752    -15.806752   1.000000   1.000000
   12      -15.787631    -15.787631   1.000000   1.000000
   13      -15.763378    -15.763380   1.000000   1.000000
   14      -15.743078    -15.743077   1.000000   1.000000
   15       -5.638288     -5.638288   1.000000   1.000000
   16       -5.456597     -5.456597   1.000000   1.000000
   17       -3.505604     -3.505603   1.000000   1.000000
   18       -3.500563     -3.500564   1.000000   1.000000
   19       -3.348145     -3.348144   1.000000   1.000000
   20       -3.242589     -3.242589   1.000000   1.000000
   21       -3.127435     -3.127435   1.000000   1.000000
   22       -3.025693     -3.025693   1.000000   1.000000
   23       -1.250956     -1.250957   1.000000   1.000000
   24       -1.215804     -1.215805   1.000000   1.000000
   25       -1.112587     -1.112589   1.000000   1.000000
   26       -0.962970     -0.962972   1.000000   1.000000
   27       -0.701693     -0.701693   1.000000   1.000000
   28       -0.614398     -0.614400   1.000000   1.000000
   29       -0.491905     -0.491906   1.000000   1.000000
   30        0.072949      0.072949   1.000000   1.000000
   31        0.103632      0.103628   1.000000   1.000000
   32        0.105706      0.105702   1.000000   1.000000
   33        0.662749      0.662747   1.000000   1.000000
   34        0.761033      0.761031   1.000000   1.000000
   35        0.806204      0.806203   1.000000   1.000000
   36        0.893442      0.893441   1.000000   1.000000
   37        1.021194      1.021191   1.000000   1.000000
   38        1.160570      1.160569   1.000000   1.000000
   39        7.373304      7.373309   0.000000   0.000000
   40        9.501398      9.501397   0.000000   0.000000
   41        9.741950      9.741947   0.000000   0.000000
   42       10.074035     10.074033   0.000000   0.000000
   43       10.647254     10.647253   0.000000   0.000000
   44       10.657515     10.657513   0.000000   0.000000
   45       10.973454     10.973449   0.000000   0.000000
   46       11.384608     11.384607   0.000000   0.000000
   47       11.994735     11.994740   0.000000   0.000000
   48       12.425217     12.455683   0.000000   0.000000
 
  0.2857143E+00  0.0000000E+00  0.0000000E+00  0.9523810E-02
    1      -41.186078    -41.186043   1.000000   1.000000
    2      -41.185678    -41.185643   1.000000   1.000000
    3      -40.862280    -40.862272   1.000000   1.000000
    4      -40.857038    -40.857030   1.000000   1.000000
    5      -40.853870    -40.853862   1.000000   1.000000
    6      -40.848516    -40.848508   1.000000   1.000000
    7      -18.367152    -18.367152   1.000000   1.000000
    8      -18.240619    -18.240618   1.000000   1.000000
    9      -15.879472    -15.879471   1.000000   1.000000
   10      -15.850219    -15.850221   1.000000   1.000000
   11      -15.810275    -15.810275   1.000000   1.000000
   12      -15.807473    -15.807473   1.000000   1.000000
   13      -15.781840    -15.781840   1.000000   1.000000
   14      -15.780539    -15.780540   1.000000   1.000000
   15       -5.646138     -5.646138   1.000000   1.000000
   16       -5.480288     -5.480289   1.000000   1.000000
   17       -3.390681     -3.390680   1.000000   1.000000
   18       -3.312005     -3.312004   1.000000   1.000000
   19       -3.178142     -3.178142   1.000000   1.000000
   20       -3.167673     -3.167673   1.000000   1.000000
   21       -3.026899     -3.026899   1.000000   1.000000
   22       -2.998084     -2.998085   1.000000   1.000000
   23       -1.334117     -1.334119   1.000000   1.000000
   24       -1.330595     -1.330596   1.000000   1.000000
   25       -1.204922     -1.204922   1.000000   1.000000
   26       -1.083670     -1.083672   1.000000   1.000000
   27       -0.816367     -0.816367   1.000000   1.000000
   28       -0.481518     -0.481519   1.000000   1.000000
   29       -0.382549     -0.382550   1.000000   1.000000
   30       -0.357521     -0.357522   1.000000   1.000000
   31        0.006207      0.006203   1.000000   1.000000
   32        0.028160      0.028157   1.000000   1.000000
   33        0.720284      0.720282   1.000000   1.000000
   34        0.884665      0.884664   1.000000   1.000000
   35        0.927664      0.927663   1.000000   1.000000
   36        0.937309      0.937307   1.000000   1.000000
   37        0.951577      0.951574   1.000000   1.000000
   38        1.178963      1.178961   1.000000   1.000000
   39        7.870846      7.870849   0.000000   0.000000
   40        9.107331      9.107328   0.000000   0.000000
   41        9.613738      9.613738   0.000000   0.000000
   42        9.960368      9.960364   0.000000   0.000000
   43       10.540945     10.540942   0.000000   0.000000
   44       10.771634     10.771633   0.000000   0.000000
   45       10.827700     10.827700   0.000000   0.000000
   46       11.214035     11.214034   0.000000   0.000000
   47       11.988907     11.988989   0.000000   0.000000
   48       12.198441     12.198261   0.000000   0.000000
 
  0.4285714E+00  0.0000000E+00  0.0000000E+00  0.9523810E-02
    1      -41.185883    -41.185848   1.000000   1.000000
    2      -41.185728    -41.185693   1.000000   1.000000
    3      -40.860578    -40.860570   1.000000   1.000000
    4      -40.858724    -40.858716   1.000000   1.000000
    5      -40.852140    -40.852132   1.000000   1.000000
    6      -40.850244    -40.850236   1.000000   1.000000
    7      -18.313148    -18.313148   1.000000   1.000000
    8      -18.267263    -18.267262   1.000000   1.000000
    9      -15.882266    -15.882265   1.000000   1.000000
   10      -15.854522    -15.854521   1.000000   1.000000
   11      -15.829070    -15.829072   1.000000   1.000000
   12      -15.806438    -15.806439   1.000000   1.000000
   13      -15.804185    -15.804186   1.000000   1.000000
   14      -15.797484    -15.797484   1.000000   1.000000
   15       -5.612834     -5.612834   1.000000   1.000000
   16       -5.544049     -5.544050   1.000000   1.000000
   17       -3.315704     -3.315701   1.000000   1.000000
   18       -3.279731     -3.279729   1.000000   1.000000
   19       -3.102589     -3.102590   1.000000   1.000000
   20       -3.048223     -3.048223   1.000000   1.000000
   21       -2.862848     -2.862850   1.000000   1.000000
   22       -2.775393     -2.775395   1.000000   1.000000
   23       -1.407404     -1.407406   1.000000   1.000000
   24       -1.404622     -1.404624   1.000000   1.000000
   25       -1.252031     -1.252032   1.000000   1.000000
   26       -1.194716     -1.194717   1.000000   1.000000
   27       -0.961280     -0.961279   1.000000   1.000000
   28       -0.871179     -0.871178   1.000000   1.000000
   29       -0.281741     -0.281745   1.000000   1.000000
   30       -0.212495     -0.212497   1.000000   1.000000
   31       -0.125675     -0.125679   1.000000   1.000000
   32       -0.080383     -0.080385   1.000000   1.000000
   33        0.779536      0.779534   1.000000   1.000000
   34        0.861203      0.861200   1.000000   1.000000
   35        0.990636      0.990634   1.000000   1.000000
   36        1.000173      1.000171   1.000000   1.000000
   37        1.044128      1.044127   1.000000   1.000000
   38        1.151031      1.151029   1.000000   1.000000
   39        8.436175      8.436176   0.000000   0.000000
   40        8.805266      8.805265   0.000000   0.000000
   41        9.710634      9.710632   0.000000   0.000000
   42        9.835650      9.835647   0.000000   0.000000
   43       10.271391     10.271390   0.000000   0.000000
   44       10.368064     10.368064   0.000000   0.000000
   45       10.900396     10.900394   0.000000   0.000000
   46       11.037133     11.037130   0.000000   0.000000
   47       11.996269     11.996278   0.000000   0.000000
   48       12.094988     12.094971   0.000000   0.000000
 
  0.0000000E+00  0.1666667E+00  0.0000000E+00  0.9523810E-02
    1      -41.186266    -41.186231   1.000000   1.000000
    2      -41.185639    -41.185604   1.000000   1.000000
    3      -40.863860    -40.863852   1.000000   1.000000
    4      -40.855471    -40.855463   1.000000   1.000000
    5      -40.855360    -40.855352   1.000000   1.000000
    6      -40.846991    -40.846983   1.000000   1.000000
    7      -18.415674    -18.415674   1.000000   1.000000
    8      -18.234992    -18.234992   1.000000   1.000000
    9      -15.870052    -15.870052   1.000000   1.000000
   10      -15.863546    -15.863547   1.000000   1.000000
   11      -15.809429    -15.809428   1.000000   1.000000
   12      -15.777545    -15.777545   1.000000   1.000000
   13      -15.763403    -15.763404   1.000000   1.000000
   14      -15.725082    -15.725081   1.000000   1.000000
   15       -5.609035     -5.609035   1.000000   1.000000
   16       -5.451172     -5.451173   1.000000   1.000000
   17       -3.612587     -3.612589   1.000000   1.000000
   18       -3.550741     -3.550741   1.000000   1.000000
   19       -3.364679     -3.364678   1.000000   1.000000
   20       -3.285364     -3.285364   1.000000   1.000000
   21       -3.098999     -3.098998   1.000000   1.000000
   22       -2.998469     -2.998469   1.000000   1.000000
   23       -1.262358     -1.262359   1.000000   1.000000
   24       -1.133467     -1.133469   1.000000   1.000000
   25       -1.099099     -1.099100   1.000000   1.000000
   26       -0.893222     -0.893224   1.000000   1.000000
   27       -0.768966     -0.768969   1.000000   1.000000
   28       -0.561893     -0.561894   1.000000   1.000000
   29       -0.474227     -0.474227   1.000000   1.000000
   30       -0.044691     -0.044694   1.000000   1.000000
   31        0.132531      0.132528   1.000000   1.000000
   32        0.233819      0.233819   1.000000   1.000000
   33        0.647210      0.647209   1.000000   1.000000
   34        0.695425      0.695422   1.000000   1.000000
   35        0.740500      0.740500   1.000000   1.000000
   36        0.881929      0.881928   1.000000   1.000000
   37        1.062290      1.062286   1.000000   1.000000
   38        1.145949      1.145948   1.000000   1.000000
   39        7.414227      7.414232   0.000000   0.000000
   40        9.454150      9.454148   0.000000   0.000000
   41        9.894030      9.894027   0.000000   0.000000
   42       10.128166     10.128164   0.000000   0.000000
   43       10.523504     10.523504   0.000000   0.000000
   44       10.693713     10.693709   0.000000   0.000000
   45       11.108403     11.108402   0.000000   0.000000
   46       11.394514     11.394514   0.000000   0.000000
   47       11.708646     11.708630   0.000000   0.000000
   48       12.317357     12.317317   0.000000   0.000000
 
  0.1428571E+00  0.1666667E+00  0.0000000E+00  0.1904762E-01
    1      -41.186196    -41.186161   1.000000   1.000000
    2      -41.185635    -41.185600   1.000000   1.000000
    3      -40.863458    -40.863450   1.000000   1.000000
    4      -40.855781    -40.855773   1.000000   1.000000
    5      -40.855058    -40.855051   1.000000   1.000000
    6      -40.847381    -40.847373   1.000000   1.000000
    7      -18.399874    -18.399874   1.000000   1.000000
    8      -18.235779    -18.235779   1.000000   1.000000
    9      -15.873405    -15.873405   1.000000   1.000000
   10      -15.859255    -15.859256   1.000000   1.000000
   11      -15.815545    -15.815544   1.000000   1.000000
   12      -15.784276    -15.784277   1.000000   1.000000
   13      -15.769052    -15.769054   1.000000   1.000000
   14      -15.743276    -15.743275   1.000000   1.000000
   15       -5.620587     -5.620587   1.000000   1.000000
   16       -5.453839     -5.453840   1.000000   1.000000
   17       -3.510172     -3.510172   1.000000   1.000000
   18       -3.462272     -3.462272   1.000000   1.000000
   19       -3.325064     -3.325064   1.000000   1.000000
   20       -3.264154     -3.264154   1.000000   1.000000
   21       -3.093972     -3.093971   1.000000   1.000000
   22       -3.000321     -3.000321   1.000000   1.000000
   23       -1.302693     -1.302694   1.000000   1.000000
   24       -1.150748     -1.150750   1.000000   1.000000
   25       -1.134060     -1.134061   1.000000   1.000000
   26       -0.934017     -0.934018   1.000000   1.000000
   27       -0.795753     -0.795755   1.000000   1.000000
   28       -0.509541     -0.509542   1.000000   1.000000
   29       -0.460438     -0.460439   1.000000   1.000000
   30       -0.125964     -0.125966   1.000000   1.000000
   31        0.098106      0.098105   1.000000   1.000000
   32        0.100394      0.100391   1.000000   1.000000
   33        0.684522      0.684520   1.000000   1.000000
   34        0.726540      0.726538   1.000000   1.000000
   35        0.785350      0.785349   1.000000   1.000000
   36        0.906587      0.906586   1.000000   1.000000
   37        1.054982      1.054979   1.000000   1.000000
   38        1.143810      1.143809   1.000000   1.000000
   39        7.592431      7.592436   0.000000   0.000000
   40        9.434571      9.434570   0.000000   0.000000
   41        9.501359      9.501356   0.000000   0.000000
   42       10.159540     10.159538   0.000000   0.000000
   43       10.531569     10.531568   0.000000   0.000000
   44       10.799082     10.799077   0.000000   0.000000
   45       11.038344     11.038343   0.000000   0.000000
   46       11.327324     11.327323   0.000000   0.000000
   47       11.871856     11.871870   0.000000   0.000000
   48       12.281300     12.276844   0.000000   0.000000
 
  0.2857143E+00  0.1666667E+00  0.0000000E+00  0.1904762E-01
    1      -41.186049    -41.186014   1.000000   1.000000
    2      -41.185645    -41.185610   1.000000   1.000000
    3      -40.862344    -40.862337   1.000000   1.000000
    4      -40.857011    -40.857003   1.000000   1.000000
    5      -40.853849    -40.853841   1.000000   1.000000
    6      -40.848528    -40.848520   1.000000   1.000000
    7      -18.358568    -18.358568   1.000000   1.000000
    8      -18.242886    -18.242886   1.000000   1.000000
    9      -15.884454    -15.884454   1.000000   1.000000
   10      -15.846962    -15.846963   1.000000   1.000000
   11      -15.822263    -15.822263   1.000000   1.000000
   12      -15.811438    -15.811438   1.000000   1.000000
   13      -15.784577    -15.784579   1.000000   1.000000
   14      -15.775981    -15.775981   1.000000   1.000000
   15       -5.629235     -5.629235   1.000000   1.000000
   16       -5.479921     -5.479922   1.000000   1.000000
   17       -3.370875     -3.370873   1.000000   1.000000
   18       -3.256862     -3.256861   1.000000   1.000000
   19       -3.206064     -3.206064   1.000000   1.000000
   20       -3.137564     -3.137564   1.000000   1.000000
   21       -3.014482     -3.014482   1.000000   1.000000
   22       -3.013089     -3.013091   1.000000   1.000000
   23       -1.369381     -1.369382   1.000000   1.000000
   24       -1.223302     -1.223303   1.000000   1.000000
   25       -1.190618     -1.190619   1.000000   1.000000
   26       -1.041297     -1.041298   1.000000   1.000000
   27       -0.875149     -0.875150   1.000000   1.000000
   28       -0.503288     -0.503287   1.000000   1.000000
   29       -0.400532     -0.400535   1.000000   1.000000
   30       -0.387266     -0.387268   1.000000   1.000000
   31       -0.075460     -0.075463   1.000000   1.000000
   32        0.016720      0.016718   1.000000   1.000000
   33        0.725514      0.725512   1.000000   1.000000
   34        0.848186      0.848184   1.000000   1.000000
   35        0.874345      0.874343   1.000000   1.000000
   36        0.967613      0.967612   1.000000   1.000000
   37        1.008760      1.008757   1.000000   1.000000
   38        1.154859      1.154857   1.000000   1.000000
   39        8.046260      8.046263   0.000000   0.000000
   40        9.052174      9.052171   0.000000   0.000000
   41        9.455830      9.455828   0.000000   0.000000
   42       10.082040     10.082038   0.000000   0.000000
   43       10.510958     10.510956   0.000000   0.000000
   44       10.562205     10.562204   0.000000   0.000000
   45       10.861697     10.861696   0.000000   0.000000
   46       11.130972     11.130970   0.000000   0.000000
   47       11.897387     11.897399   0.000000   0.000000
   48       12.242798     12.242892   0.000000   0.000000
 
  0.4285714E+00  0.1666667E+00  0.0000000E+00  0.1904762E-01
    1      -41.185863    -41.185828   1.000000   1.000000
    2      -41.185717    -41.185682   1.000000   1.000000
    3      -40.860645    -40.860637   1.000000   1.000000
    4      -40.858735    -40.858727   1.000000   1.000000
    5      -40.852148    -40.852141   1.000000   1.000000
    6      -40.850244    -40.850236   1.000000   1.000000
    7      -18.307754    -18.307754   1.000000   1.000000
    8      -18.265785    -18.265785   1.000000   1.000000
    9      -15.887289    -15.887288   1.000000   1.000000
   10      -15.861352    -15.861351   1.000000   1.000000
   11      -15.828128    -15.828129   1.000000   1.000000
   12      -15.811432    -15.811433   1.000000   1.000000
   13      -15.805898    -15.805900   1.000000   1.000000
   14      -15.796597    -15.796598   1.000000   1.000000
   15       -5.601047     -5.601048   1.000000   1.000000
   16       -5.539491     -5.539492   1.000000   1.000000
   17       -3.283505     -3.283502   1.000000   1.000000
   18       -3.228204     -3.228201   1.000000   1.000000
   19       -3.128198     -3.128198   1.000000   1.000000
   20       -3.056989     -3.056989   1.000000   1.000000
   21       -2.851238     -2.851240   1.000000   1.000000
   22       -2.783147     -2.783149   1.000000   1.000000
   23       -1.384323     -1.384324   1.000000   1.000000
   24       -1.324588     -1.324590   1.000000   1.000000
   25       -1.211022     -1.211022   1.000000   1.000000
   26       -1.163104     -1.163104   1.000000   1.000000
   27       -0.986524     -0.986524   1.000000   1.000000
   28       -0.907022     -0.907022   1.000000   1.000000
   29       -0.321793     -0.321796   1.000000   1.000000
   30       -0.242160     -0.242161   1.000000   1.000000
   31       -0.203001     -0.203004   1.000000   1.000000
   32       -0.101754     -0.101756   1.000000   1.000000
   33        0.788230      0.788227   1.000000   1.000000
   34        0.868046      0.868043   1.000000   1.000000
   35        0.959350      0.959348   1.000000   1.000000
   36        0.999612      0.999610   1.000000   1.000000
   37        1.046643      1.046641   1.000000   1.000000
   38        1.133767      1.133765   1.000000   1.000000
   39        8.547650      8.547650   0.000000   0.000000
   40        8.825545      8.825543   0.000000   0.000000
   41        9.583634      9.583632   0.000000   0.000000
   42        9.934349      9.934347   0.000000   0.000000
   43       10.180351     10.180349   0.000000   0.000000
   44       10.363479     10.363480   0.000000   0.000000
   45       10.660744     10.660744   0.000000   0.000000
   46       10.868565     10.868565   0.000000   0.000000
   47       12.017929     12.017932   0.000000   0.000000
   48       12.231404     12.231315   0.000000   0.000000
 
  0.0000000E+00  0.3333333E+00  0.0000000E+00  0.9523810E-02
    1      -41.186154    -41.186119   1.000000   1.000000
    2      -41.185669    -41.185634   1.000000   1.000000
    3      -40.864017    -40.864009   1.000000   1.000000
    4      -40.855458    -40.855450   1.000000   1.000000
    5      -40.855297    -40.855289   1.000000   1.000000
    6      -40.847064    -40.847056   1.000000   1.000000
    7      -18.389728    -18.389728   1.000000   1.000000
    8      -18.250289    -18.250289   1.000000   1.000000
    9      -15.895313    -15.895313   1.000000   1.000000
   10      -15.850182    -15.850183   1.000000   1.000000
   11      -15.806888    -15.806887   1.000000   1.000000
   12      -15.778779    -15.778780   1.000000   1.000000
   13      -15.776848    -15.776848   1.000000   1.000000
   14      -15.730895    -15.730894   1.000000   1.000000
   15       -5.562235     -5.562235   1.000000   1.000000
   16       -5.456700     -5.456700   1.000000   1.000000
   17       -3.610872     -3.610874   1.000000   1.000000
   18       -3.517099     -3.517100   1.000000   1.000000
   19       -3.310297     -3.310297   1.000000   1.000000
   20       -3.305645     -3.305644   1.000000   1.000000
   21       -2.992115     -2.992114   1.000000   1.000000
   22       -2.952506     -2.952506   1.000000   1.000000
   23       -1.266767     -1.266768   1.000000   1.000000
   24       -1.157455     -1.157456   1.000000   1.000000
   25       -1.106693     -1.106694   1.000000   1.000000
   26       -0.973913     -0.973915   1.000000   1.000000
   27       -0.723542     -0.723545   1.000000   1.000000
   28       -0.532518     -0.532520   1.000000   1.000000
   29       -0.447512     -0.447515   1.000000   1.000000
   30       -0.270094     -0.270094   1.000000   1.000000
   31        0.109157      0.109154   1.000000   1.000000
   32        0.136074      0.136073   1.000000   1.000000
   33        0.623577      0.623575   1.000000   1.000000
   34        0.719868      0.719867   1.000000   1.000000
   35        0.741273      0.741271   1.000000   1.000000
   36        0.911201      0.911201   1.000000   1.000000
   37        0.989461      0.989458   1.000000   1.000000
   38        1.210618      1.210616   1.000000   1.000000
   39        8.016496      8.016499   0.000000   0.000000
   40        9.180068      9.180065   0.000000   0.000000
   41        9.461226      9.461225   0.000000   0.000000
   42       10.069445     10.069443   0.000000   0.000000
   43       10.387669     10.387669   0.000000   0.000000
   44       11.083303     11.083301   0.000000   0.000000
   45       11.248222     11.248220   0.000000   0.000000
   46       11.343185     11.343181   0.000000   0.000000
   47       11.533690     11.533686   0.000000   0.000000
   48       12.229979     12.230066   0.000000   0.000000
 
  0.1428571E+00  0.3333333E+00  0.0000000E+00  0.1904762E-01
    1      -41.186097    -41.186062   1.000000   1.000000
    2      -41.185648    -41.185613   1.000000   1.000000
    3      -40.863610    -40.863602   1.000000   1.000000
    4      -40.855752    -40.855745   1.000000   1.000000
    5      -40.855025    -40.855017   1.000000   1.000000
    6      -40.847434    -40.847426   1.000000   1.000000
    7      -18.375523    -18.375522   1.000000   1.000000
    8      -18.248892    -18.248892   1.000000   1.000000
    9      -15.895492    -15.895492   1.000000   1.000000
   10      -15.847299    -15.847300   1.000000   1.000000
   11      -15.815735    -15.815734   1.000000   1.000000
   12      -15.788128    -15.788128   1.000000   1.000000
   13      -15.782926    -15.782927   1.000000   1.000000
   14      -15.745705    -15.745705   1.000000   1.000000
   15       -5.572195     -5.572195   1.000000   1.000000
   16       -5.465501     -5.465501   1.000000   1.000000
   17       -3.503053     -3.503054   1.000000   1.000000
   18       -3.411241     -3.411242   1.000000   1.000000
   19       -3.294594     -3.294594   1.000000   1.000000
   20       -3.274007     -3.274007   1.000000   1.000000
   21       -2.994520     -2.994519   1.000000   1.000000
   22       -2.964540     -2.964540   1.000000   1.000000
   23       -1.287510     -1.287511   1.000000   1.000000
   24       -1.159793     -1.159794   1.000000   1.000000
   25       -1.107623     -1.107624   1.000000   1.000000
   26       -0.989531     -0.989533   1.000000   1.000000
   27       -0.760665     -0.760667   1.000000   1.000000
   28       -0.514000     -0.514003   1.000000   1.000000
   29       -0.510605     -0.510606   1.000000   1.000000
   30       -0.300761     -0.300762   1.000000   1.000000
   31        0.024979      0.024979   1.000000   1.000000
   32        0.073472      0.073469   1.000000   1.000000
   33        0.654155      0.654153   1.000000   1.000000
   34        0.745922      0.745921   1.000000   1.000000
   35        0.774085      0.774083   1.000000   1.000000
   36        0.939219      0.939218   1.000000   1.000000
   37        1.010277      1.010275   1.000000   1.000000
   38        1.183537      1.183535   1.000000   1.000000
   39        8.141389      8.141392   0.000000   0.000000
   40        9.127557      9.127554   0.000000   0.000000
   41        9.338495      9.338494   0.000000   0.000000
   42        9.994527      9.994530   0.000000   0.000000
   43       10.332262     10.332263   0.000000   0.000000
   44       10.992921     10.992915   0.000000   0.000000
   45       11.151868     11.151875   0.000000   0.000000
   46       11.320178     11.320168   0.000000   0.000000
   47       11.620116     11.620120   0.000000   0.000000
   48       12.281112     12.280405   0.000000   0.000000
 
  0.2857143E+00  0.3333333E+00  0.0000000E+00  0.1904762E-01
    1      -41.185960    -41.185925   1.000000   1.000000
    2      -41.185651    -41.185616   1.000000   1.000000
    3      -40.862444    -40.862436   1.000000   1.000000
    4      -40.857009    -40.857001   1.000000   1.000000
    5      -40.853824    -40.853817   1.000000   1.000000
    6      -40.848603    -40.848595   1.000000   1.000000
    7      -18.339113    -18.339113   1.000000   1.000000
    8      -18.249717    -18.249716   1.000000   1.000000
    9      -15.899202    -15.899202   1.000000   1.000000
   10      -15.838832    -15.838833   1.000000   1.000000
   11      -15.832486    -15.832485   1.000000   1.000000
   12      -15.819988    -15.819988   1.000000   1.000000
   13      -15.794369    -15.794370   1.000000   1.000000
   14      -15.772852    -15.772852   1.000000   1.000000
   15       -5.585370     -5.585370   1.000000   1.000000
   16       -5.493433     -5.493434   1.000000   1.000000
   17       -3.314907     -3.314906   1.000000   1.000000
   18       -3.246687     -3.246687   1.000000   1.000000
   19       -3.172546     -3.172545   1.000000   1.000000
   20       -3.092564     -3.092565   1.000000   1.000000
   21       -3.006441     -3.006441   1.000000   1.000000