       N       E                     dE             d eps       ncg     rms          rms(c)
DAV:   1     0.652084986503E+03    0.65208E+03   -0.37812E+04  9216   0.167E+03
DAV:   2    -0.457530483214E+02   -0.69784E+03   -0.66904E+03 10776   0.429E+02
DAV:   3    -0.106065070829E+03   -0.60312E+02   -0.60056E+02 12672   0.121E+02
DAV:   4    -0.111787176948E+03   -0.57221E+01   -0.57011E+01 16928   0.315E+01
DAV:   5    -0.112425349218E+03   -0.63817E+00   -0.63810E+00 13024   0.643E+00    0.327E+01
RMM:   6    -0.100950213069E+03    0.11475E+02   -0.55540E+01  9216   0.267E+01    0.130E+01
RMM:   7    -0.100600214451E+03    0.35000E+00   -0.19322E+00 12570   0.489E+00    0.616E+00
RMM:   8    -0.100652674065E+03   -0.52460E-01   -0.52223E-01 11517   0.376E+00    0.947E-01
RMM:   9    -0.100661414313E+03   -0.87402E-02   -0.24256E-01 12947   0.176E+00    0.466E-01
RMM:  10    -0.100674002630E+03   -0.12588E-01   -0.10191E-01 14358   0.866E-01    0.293E-01
RMM:  11    -0.100675824619E+03   -0.18220E-02   -0.25640E-02 14283   0.499E-01    0.124E-01
RMM:  12    -0.100676771226E+03   -0.94661E-03   -0.87178E-03 14385   0.299E-01    0.992E-02
RMM:  13    -0.100677036611E+03   -0.26538E-03   -0.47721E-03 14205   0.219E-01    0.497E-02
RMM:  14    -0.100677108505E+03   -0.71894E-04   -0.15143E-03 13941   0.126E-01    0.141E-02
RMM:  15    -0.100677175028E+03   -0.66523E-04   -0.72093E-04 13428   0.752E-02    0.116E-02
RMM:  16    -0.100677184832E+03   -0.98043E-05   -0.13737E-04 10754   0.425E-02    0.898E-03
RMM:  17    -0.100677185040E+03   -0.20753E-06   -0.27577E-05  8154   0.311E-02
   1 F= -.10067719E+03 E0= -.10067719E+03  d E =-.100677E+03  mag=    -0.0000
       N       E                     dE             d eps       ncg     rms          rms(c)
DAV:   1    -0.100704097835E+03   -0.26913E-01   -0.11136E+00 10800   0.564E+00    0.109E+00
RMM:   2    -0.100685292310E+03    0.18806E-01   -0.10073E-01  9522   0.137E+00    0.281E-01
RMM:   3    -0.100682897926E+03    0.23944E-02   -0.89909E-03 10856   0.357E-01    0.130E-01
RMM:   4    -0.100682584535E+03    0.31339E-03   -0.12970E-03 10992   0.137E-01    0.736E-02
RMM:   5    -0.100682576887E+03    0.76484E-05   -0.20990E-04 11560   0.594E-02    0.278E-02
RMM:   6    -0.100682577153E+03   -0.26683E-06   -0.60033E-05  8862   0.311E-02
   2 F= -.10068258E+03 E0= -.10068258E+03  d E =-.539211E-02  mag=    -0.0000
       N       E                     dE             d eps       ncg     rms          rms(c)
DAV:   1    -0.100707237968E+03   -0.24661E-01   -0.12094E+00 10352   0.588E+00    0.113E+00
RMM:   2    -0.100686952177E+03    0.20286E-01   -0.10869E-01  9507   0.142E+00    0.295E-01
RMM:   3    -0.100684332968E+03    0.26192E-02   -0.98224E-03 10879   0.374E-01    0.138E-01
RMM:   4    -0.100683988867E+03    0.34410E-03   -0.14321E-03 11056   0.145E-01    0.766E-02
RMM:   5    -0.100683982044E+03    0.68234E-05   -0.25704E-04 11811   0.650E-02    0.282E-02
RMM:   6    -0.100683982301E+03   -0.25693E-06   -0.76593E-05  9161   0.342E-02
   3 F= -.10068398E+03 E0= -.10068398E+03  d E =-.679726E-02  mag=     0.0000
       N       E                     dE             d eps       ncg     rms          rms(c)
DAV:   1    -0.100684001711E+03   -0.19667E-04   -0.52976E-01  9952   0.391E+00    0.713E-01
RMM:   2    -0.100682349348E+03    0.16524E-02   -0.34542E-02  9722   0.798E-01    0.222E-01
RMM:   3    -0.100681069941E+03    0.12794E-02   -0.27412E-03 10667   0.204E-01    0.940E-02
RMM:   4    -0.100680899135E+03    0.17081E-03   -0.40881E-04 10563   0.802E-02    0.326E-02
RMM:   5    -0.100680889215E+03    0.99208E-05   -0.55950E-05  7913   0.315E-02
   4 F= -.10068089E+03 E0= -.10068089E+03  d E =0.309309E-02  mag=     0.0000
       N       E                     dE             d eps       ncg     rms          rms(c)
DAV:   1    -0.100686234808E+03   -0.53357E-02   -0.33980E-01  9792   0.312E+00    0.569E-01
RMM:   2    -0.100685091818E+03    0.11430E-02   -0.21537E-02  9603   0.636E-01    0.180E-01
RMM:   3    -0.100684326432E+03    0.76539E-03   -0.17351E-03 10391   0.160E-01    0.773E-02
RMM:   4    -0.100684212123E+03    0.11431E-03   -0.26448E-04 10069   0.625E-02    0.240E-02
RMM:   5    -0.100684201192E+03    0.10930E-04   -0.20298E-05  6468   0.222E-02    0.110E-02
RMM:   6    -0.100684198860E+03    0.23323E-05   -0.47224E-06  5591   0.138E-02
   5 F= -.10068420E+03 E0= -.10068420E+03  d E =-.216559E-03  mag=    -0.0000
