unknown system                          
           1
     4.922448    0.000000    0.000000
     0.000000    5.296402    0.000000
     0.000000    0.000000    6.176136
   Li   P    O 
   6   2   8
Direct configuration=     1
   0.50941700  0.84452000  0.00000000
   0.00941700  0.15548000  0.50000000
   0.50836300  0.32643400  0.25287300
   0.00836300  0.67356600  0.24712700
   0.00836300  0.67356600  0.75287300
   0.50836300  0.32643400  0.74712700
   0.50142000  0.82426100  0.50000000
   0.00142000  0.17573900  0.00000000
   0.10701000  0.31350900  0.79286200
   0.60212600  0.10350800  0.50000000
   0.18519100  0.81839600  0.50000000
   0.68519100  0.18160400  0.00000000
   0.60701000  0.68649100  0.29286200
   0.10701000  0.31350900  0.20713800
   0.10212600  0.89649200  0.00000000
   0.60701000  0.68649100  0.70713800
unknown system                          
           1
     4.911650    0.000000    0.000000
     0.000000    5.284403    0.000000
     0.000000    0.000000    6.162006
   Li   P    O 
   6   2   8
Direct configuration=     2
   0.50941194  0.84478412  0.00000000
   0.00941194  0.15521588  0.50000000
   0.50844746  0.32635767  0.25277462
   0.00844746  0.67364233  0.24722538
   0.00844746  0.67364233  0.75277462
   0.50844746  0.32635767  0.74722538
   0.50147656  0.82423978  0.50000000
   0.00147656  0.17576022  0.00000000
   0.10723853  0.31383634  0.79246126
   0.60240094  0.10416103  0.50000000
   0.18423859  0.81845266  0.50000000
   0.68423859  0.18154734  0.00000000
   0.60723853  0.68616366  0.29246126
   0.10723853  0.31383634  0.20753874
   0.10240094  0.89583897  0.00000000
   0.60723853  0.68616366  0.70753874
unknown system                          
           1
     4.900403    0.000000    0.000000
     0.000000    5.271905    0.000000
     0.000000    0.000000    6.147290
   Li   P    O 
   6   2   8
Direct configuration=     3
   0.50940665  0.84505984  0.00000000
   0.00940665  0.15494016  0.50000000
   0.50853562  0.32627798  0.25267192
   0.00853562  0.67372202  0.24732808
   0.00853562  0.67372202  0.75267192
   0.50853562  0.32627798  0.74732808
   0.50153559  0.82421763  0.50000000
   0.00153559  0.17578237  0.00000000
   0.10747708  0.31417806  0.79204290
   0.60268793  0.10484274  0.50000000
   0.18324441  0.81851180  0.50000000
   0.68324441  0.18148820  0.00000000
   0.60747708  0.68582194  0.29204290
   0.10747708  0.31417806  0.20795710
   0.10268793  0.89515726  0.00000000
   0.60747708  0.68582194  0.70795710
unknown system                          
           1
     4.891077    0.000000    0.000000
     0.000000    5.268025    0.000000
     0.000000    0.000000    6.145535
   Li   P    O 
   6   2   8
Direct configuration=     4
   0.50941615  0.84506821  0.00000000
   0.00941615  0.15493179  0.50000000
   0.50861093  0.32635524  0.25263244
   0.00861093  0.67364476  0.24736756
   0.00861093  0.67364476  0.75263244
   0.50861093  0.32635524  0.74736756
   0.50055108  0.82445246  0.50000000
   0.00055108  0.17554754  0.00000000
   0.10756271  0.31434872  0.79160191
   0.60274582  0.10501345  0.50000000
   0.18383967  0.81866058  0.50000000
   0.68383967  0.18133942  0.00000000
   0.60756271  0.68565128  0.29160191
   0.10756271  0.31434872  0.20839809
   0.10274582  0.89498655  0.00000000
   0.60756271  0.68565128  0.70839809
unknown system                          
           1
     4.898553    0.000000    0.000000
     0.000000    5.271136    0.000000
     0.000000    0.000000    6.146942
   Li   P    O 
   6   2   8
Direct configuration=     5
   0.50940852  0.84506150  0.00000000
   0.00940852  0.15493850  0.50000000
   0.50855044  0.32629326  0.25266410
   0.00855044  0.67370674  0.24733590
   0.00855044  0.67370674  0.75266410
   0.50855044  0.32629326  0.74733590
   0.50134185  0.82426406  0.50000000
   0.00134185  0.17573594  0.00000000
   0.10749393  0.31421180  0.79195555
   0.60269933  0.10487649  0.50000000
   0.18336155  0.81854122  0.50000000
   0.68336155  0.18145878  0.00000000
   0.60749393  0.68578820  0.29195555
   0.10749393  0.31421180  0.20804445
   0.10269933  0.89512351  0.00000000
   0.60749393  0.68578820  0.70804445
