 running on   12 total cores
 distrk:  each k-point on   12 cores,    1 groups
 distr:  one band on    6 cores,    2 groups
 using from now: INCAR     
 vasp.6.1.2 22Jul20 (build Mar 20 2021 11:25:07) complex                        
  
 POSCAR found type information on POSCAR P O 
 POSCAR found :  2 types and      14 ions
 scaLAPACK will be used
 LDA part: xc-table for Pade appr. of Perdew
 generate k-points for:    8    7    7
 POSCAR, INCAR and KPOINTS ok, starting setup
 FFT: planning ...
 WAVECAR not read
 entering main loop
       N       E                     dE             d eps       ncg     rms          rms(c)
DAV:   1     0.551507466431E+03    0.55151E+03   -0.44049E+04 41248   0.144E+03
DAV:   2    -0.705810967795E+02   -0.62209E+03   -0.60437E+03 51140   0.345E+02
DAV:   3    -0.105654657453E+03   -0.35074E+02   -0.34845E+02 49512   0.879E+01
DAV:   4    -0.106156775081E+03   -0.50212E+00   -0.50044E+00 50152   0.112E+01
DAV:   5    -0.106167641571E+03   -0.10866E-01   -0.10853E-01 49424   0.157E+00    0.508E+01
DAV:   6    -0.902930305730E+02    0.15875E+02   -0.53942E+01 45948   0.353E+01    0.273E+01
DAV:   7    -0.926814921718E+02   -0.23885E+01   -0.77027E+00 47740   0.119E+01    0.749E+00
DAV:   8    -0.928350471314E+02   -0.15355E+00   -0.64169E-01 49300   0.404E+00    0.347E+00
DAV:   9    -0.928324919474E+02    0.25552E-02   -0.45982E-02 48760   0.141E+00    0.180E+00
DAV:  10    -0.928325404417E+02   -0.48494E-04   -0.18088E-02 54284   0.902E-01    0.504E-01
DAV:  11    -0.928341331177E+02   -0.15927E-02   -0.41096E-03 47592   0.367E-01    0.248E-01
DAV:  12    -0.928343598548E+02   -0.22674E-03   -0.94677E-04 49644   0.175E-01    0.110E-01
DAV:  13    -0.928344155558E+02   -0.55701E-04   -0.85000E-05 48940   0.585E-02    0.511E-02
DAV:  14    -0.928344442362E+02   -0.28680E-04   -0.40025E-05 45412   0.351E-02    0.164E-02
DAV:  15    -0.928344508988E+02   -0.66626E-05   -0.55380E-06 28956   0.153E-02
   1 F= -.92834451E+02 E0= -.92834451E+02  d E =0.000000E+00  mag=    -0.0008
