 running on    8 total cores
 distrk:  each k-point on    8 cores,    1 groups
 distr:  one band on    4 cores,    2 groups
 using from now: INCAR     
 vasp.6.1.2 22Jul20 (build Mar 20 2021 11:25:07) complex                        
  
 POSCAR found type information on POSCAR LiP 
 POSCAR found :  2 types and      40 ions
 scaLAPACK will be used
 LDA part: xc-table for Pade appr. of Perdew
 generate k-points for:    4    3    3
 POSCAR, INCAR and KPOINTS ok, starting setup
 FFT: planning ...
 WAVECAR not read
 entering main loop
       N       E                     dE             d eps       ncg     rms          rms(c)
DAV:   1     0.106368740071E+04    0.10637E+04   -0.68738E+04  6832   0.133E+03
DAV:   2    -0.285087474866E+02   -0.10922E+04   -0.10080E+04  8016   0.288E+02
DAV:   3    -0.165811997678E+03   -0.13730E+03   -0.13545E+03  9206   0.971E+01
DAV:   4    -0.181799409254E+03   -0.15987E+02   -0.15886E+02 12376   0.292E+01
DAV:   5    -0.184928339315E+03   -0.31289E+01   -0.31272E+01 11200   0.848E+00    0.340E+01
DAV:   6    -0.185196658236E+03   -0.26832E+00   -0.94672E+00  8936   0.714E+00    0.187E+01
DAV:   7    -0.187370203614E+03   -0.21735E+01   -0.32560E+00  8752   0.434E+00    0.112E+01
DAV:   8    -0.188243627633E+03   -0.87342E+00   -0.14322E+00  8032   0.312E+00    0.251E+00
DAV:   9    -0.188321630709E+03   -0.78003E-01   -0.20870E-01  9552   0.134E+00    0.116E+00
DAV:  10    -0.188335188129E+03   -0.13557E-01   -0.40355E-02  9040   0.521E-01    0.429E-01
DAV:  11    -0.188339156093E+03   -0.39680E-02   -0.60118E-03  8312   0.246E-01    0.213E-01
DAV:  12    -0.188341171186E+03   -0.20151E-02   -0.23020E-03  9176   0.134E-01    0.105E-01
DAV:  13    -0.188342112206E+03   -0.94102E-03   -0.70116E-04  8504   0.694E-02    0.438E-02
DAV:  14    -0.188342423167E+03   -0.31096E-03   -0.27480E-04  8064   0.418E-02    0.246E-02
DAV:  15    -0.188342517906E+03   -0.94739E-04   -0.10353E-04  7144   0.259E-02    0.123E-02
DAV:  16    -0.188342537402E+03   -0.19496E-04   -0.20989E-05  6744   0.131E-02    0.590E-03
DAV:  17    -0.188342541861E+03   -0.44594E-05   -0.51837E-06  5248   0.725E-03
   1 F= -.18834254E+03 E0= -.18834254E+03  d E =0.000000E+00  mag=    -0.0003
