 running on   12 total cores
 distrk:  each k-point on   12 cores,    1 groups
 distr:  one band on    6 cores,    2 groups
 using from now: INCAR     
 vasp.6.1.2 22Jul20 (build Mar 20 2021 11:25:07) complex                        
  
 POSCAR found type information on POSCAR P O 
 POSCAR found :  2 types and      14 ions
 scaLAPACK will be used
 LDA part: xc-table for Pade appr. of Perdew
 generate k-points for:    8    7    7
 POSCAR, INCAR and KPOINTS ok, starting setup
 FFT: planning ...
 WAVECAR not read
 entering main loop
       N       E                     dE             d eps       ncg     rms          rms(c)
DAV:   1     0.548368879994E+03    0.54837E+03   -0.43540E+04 41184   0.143E+03
DAV:   2    -0.730932903862E+02   -0.62146E+03   -0.60502E+03 51140   0.340E+02
DAV:   3    -0.109169453973E+03   -0.36076E+02   -0.35854E+02 49512   0.882E+01
DAV:   4    -0.109704200707E+03   -0.53475E+00   -0.53269E+00 50728   0.114E+01
DAV:   5    -0.109716132495E+03   -0.11932E-01   -0.11916E-01 49676   0.163E+00    0.464E+01
DAV:   6    -0.935946987615E+02    0.16121E+02   -0.54621E+01 46132   0.351E+01    0.241E+01
DAV:   7    -0.968047528622E+02   -0.32101E+01   -0.86763E+00 48144   0.120E+01    0.694E+00
DAV:   8    -0.971594689421E+02   -0.35472E+00   -0.10270E+00 49176   0.462E+00    0.308E+00
DAV:   9    -0.971581682973E+02    0.13006E-02   -0.52626E-02 49016   0.152E+00    0.150E+00
DAV:  10    -0.971575979660E+02    0.57033E-03   -0.23856E-02 55556   0.979E-01    0.450E-01
DAV:  11    -0.971591142664E+02   -0.15163E-02   -0.42679E-03 48300   0.357E-01    0.257E-01
DAV:  12    -0.971593982004E+02   -0.28393E-03   -0.12603E-03 50156   0.201E-01    0.111E-01
DAV:  13    -0.971594798039E+02   -0.81603E-04   -0.11283E-04 49240   0.652E-02    0.455E-02
DAV:  14    -0.971595019613E+02   -0.22157E-04   -0.56180E-05 46660   0.429E-02    0.171E-02
DAV:  15    -0.971595086493E+02   -0.66880E-05   -0.76740E-06 29944   0.167E-02
   1 F= -.97159509E+02 E0= -.97159509E+02  d E =0.000000E+00  mag=    -0.0007
