       N       E                     dE             d eps       ncg     rms          rms(c)
DAV:   1     0.548256892982E+03    0.54826E+03   -0.43658E+04 41200   0.143E+03
DAV:   2    -0.729598090102E+02   -0.62122E+03   -0.60453E+03 51228   0.341E+02
DAV:   3    -0.108701018923E+03   -0.35741E+02   -0.35518E+02 49592   0.880E+01
DAV:   4    -0.109225751971E+03   -0.52473E+00   -0.52278E+00 50700   0.113E+01
DAV:   5    -0.109237316752E+03   -0.11565E-01   -0.11550E-01 49664   0.161E+00    0.472E+01
DAV:   6    -0.931987442442E+02    0.16039E+02   -0.54406E+01 46076   0.351E+01    0.247E+01
DAV:   7    -0.962623826937E+02   -0.30636E+01   -0.84675E+00 48036   0.119E+01    0.703E+00
DAV:   8    -0.965737785504E+02   -0.31140E+00   -0.93917E-01 49248   0.450E+00    0.314E+00
DAV:   9    -0.965724258004E+02    0.13528E-02   -0.50157E-02 49008   0.149E+00    0.154E+00
DAV:  10    -0.965719397131E+02    0.48609E-03   -0.22696E-02 55624   0.967E-01    0.459E-01
DAV:  11    -0.965734835503E+02   -0.15438E-02   -0.42244E-03 48100   0.358E-01    0.255E-01
DAV:  12    -0.965737538477E+02   -0.27030E-03   -0.12060E-03 50104   0.196E-01    0.112E-01
DAV:  13    -0.965738306832E+02   -0.76836E-04   -0.10603E-04 49120   0.634E-02    0.468E-02
DAV:  14    -0.965738545053E+02   -0.23822E-04   -0.51852E-05 46696   0.408E-02    0.171E-02
DAV:  15    -0.965738613507E+02   -0.68454E-05   -0.71048E-06 29456   0.163E-02
   1 F= -.96573861E+02 E0= -.96573861E+02  d E =0.000000E+00  mag=    -0.0007
