    9    9    1    2
  0.1129649E+02  0.5056920E-09  0.5084999E-09  0.5112952E-09  0.5000000E-15
  1.000000000000000E-004
  CAR 
 unknown system                          
     51    197     34
 
  0.0000000E+00  0.0000000E+00  0.0000000E+00  0.2551020E-02
    1      -44.288119    -44.287892   1.000000   1.000000
    2      -25.970903    -25.969106   1.000000   1.000000
    3      -24.895914    -24.894633   1.000000   1.000000
    4      -24.848312    -24.852055   1.000000   1.000000
    5      -24.277518    -24.268089   1.000000   1.000000
    6      -14.507058    -14.506635   1.000000   1.000000
    7      -13.766919    -13.776218   1.000000   1.000000
    8      -13.710683    -13.691460   1.000000   1.000000
    9      -12.839412    -12.837585   1.000000   1.000000
   10       -8.210920     -8.210700   1.000000   1.000000
   11       -7.792275     -7.789432   1.000000   1.000000
   12       -7.690362     -7.690158   1.000000   1.000000
   13       -7.194925     -7.195347   1.000000   1.000000
   14       -6.585308     -6.580320   1.000000   1.000000
   15       -6.248243     -6.240129   1.000000   1.000000
   16       -6.089263     -6.085878   1.000000   1.000000
   17       -6.056745     -6.058865   1.000000   1.000000
   18       -4.156491     -4.150202   1.000000   1.000000
   19       -4.118103     -4.112918   1.000000   1.000000
   20       -3.984147     -3.980223   1.000000   1.000000
   21       -3.828201     -3.828572   1.000000   1.000000
   22       -1.545667     -1.545806   1.000000   1.000000
   23       -1.414219     -1.408718   1.000000   1.000000
   24       -0.816214     -0.817395   1.000000   1.000000
   25       -0.043819     -0.034247   1.000000   1.000000
   26        1.586881      1.602603   0.000000   0.000000
   27        1.672317      1.677743   0.000000   0.000000
   28        1.715418      1.713638   0.000000   0.000000
   29        1.985222      1.983706   0.000000   0.000000
   30        7.617806      7.611951   0.000000   0.000000
   31        7.819975      7.830889   0.000000   0.000000
   32        8.895637      8.897264   0.000000   0.000000
   33        9.386381      9.380217   0.000000   0.000000
   34        9.661109      9.668582   0.000000   0.000000
 
  0.1250000E+00  0.5001615E-17  0.4429874E-14  0.5102041E-02
    1      -44.288089    -44.287862   1.000000   1.000000
    2      -25.968399    -25.966595   1.000000   1.000000
    3      -24.897069    -24.896015   1.000000   1.000000
    4      -24.850214    -24.853710   1.000000   1.000000
    5      -24.277727    -24.268326   1.000000   1.000000
    6      -14.564814    -14.564231   1.000000   1.000000
    7      -13.733904    -13.742915   1.000000   1.000000
    8      -13.683927    -13.665235   1.000000   1.000000
    9      -12.839606    -12.837687   1.000000   1.000000
   10       -8.182571     -8.182430   1.000000   1.000000
   11       -7.810980     -7.808133   1.000000   1.000000
   12       -7.594844     -7.594689   1.000000   1.000000
   13       -7.196713     -7.196967   1.000000   1.000000
   14       -6.618291     -6.614420   1.000000   1.000000
   15       -6.355565     -6.347790   1.000000   1.000000
   16       -6.082227     -6.083195   1.000000   1.000000
   17       -6.029653     -6.026003   1.000000   1.000000
   18       -4.155861     -4.149206   1.000000   1.000000
   19       -4.116245     -4.111548   1.000000   1.000000
   20       -3.980979     -3.976996   1.000000   1.000000
   21       -3.825566     -3.825910   1.000000   1.000000
   22       -1.540141     -1.540271   1.000000   1.000000
   23       -1.384990     -1.379623   1.000000   1.000000
   24       -0.821654     -0.822705   1.000000   1.000000
   25       -0.081973     -0.072552   1.000000   1.000000
   26        1.583680      1.599586   0.000000   0.000000
   27        1.660702      1.665190   0.000000   0.000000
   28        1.720976      1.720081   0.000000   0.000000
   29        1.981321      1.979869   0.000000   0.000000
   30        7.857763      7.851987   0.000000   0.000000
   31        7.911910      7.922798   0.000000   0.000000
   32        8.174324      8.174720   0.000000   0.000000
   33        9.546794      9.579664   0.000000   0.000000
   34        9.901326     10.068712   0.000000   0.000000
 
  0.2500000E+00  0.1741928E-16 -0.5695504E-14  0.5102041E-02
    1      -44.288042    -44.287815   1.000000   1.000000
    2      -25.962413    -25.960592   1.000000   1.000000
    3      -24.899933    -24.899469   1.000000   1.000000
    4      -24.854701    -24.857556   1.000000   1.000000
    5      -24.278117    -24.268784   1.000000   1.000000
    6      -14.698545    -14.697697   1.000000   1.000000
    7      -13.652079    -13.660402   1.000000   1.000000
    8      -13.613951    -13.596271   1.000000   1.000000
    9      -12.845811    -12.843807   1.000000   1.000000
   10       -8.149797     -8.149769   1.000000   1.000000
   11       -7.850455     -7.847630   1.000000   1.000000
   12       -7.361101     -7.361674   1.000000   1.000000
   13       -7.152355     -7.151700   1.000000   1.000000
   14       -6.724376     -6.722999   1.000000   1.000000
   15       -6.522640     -6.514521   1.000000   1.000000
   16       -6.125910     -6.124126   1.000000   1.000000
   17       -5.999120     -5.996108   1.000000   1.000000
   18       -4.153843     -4.146258   1.000000   1.000000
   19       -4.110725     -4.107262   1.000000   1.000000
   20       -3.973725     -3.969574   1.000000   1.000000
   21       -3.819439     -3.819722   1.000000   1.000000
   22       -1.519206     -1.519290   1.000000   1.000000
   23       -1.300196     -1.295249   1.000000   1.000000
   24       -0.831525     -0.832256   1.000000   1.000000
   25       -0.172524     -0.163336   1.000000   1.000000
   26        1.577373      1.593726   0.000000   0.000000
   27        1.643668      1.647970   0.000000   0.000000
   28        1.723426      1.722575   0.000000   0.000000
   29        1.970856      1.969487   0.000000   0.000000
   30        6.980350      6.982283   0.000000   0.000000
   31        8.361899      8.369905   0.000000   0.000000
   32        8.450578      8.444651   0.000000   0.000000
   33        9.768978      9.767296   0.000000   0.000000
   34        9.902926      9.907888   0.000000   0.000000
 
  0.3750000E+00  0.1432865E-16 -0.1307743E-14  0.5102041E-02
    1      -44.287997    -44.287770   1.000000   1.000000
    2      -25.956457    -25.954620   1.000000   1.000000
    3      -24.902859    -24.903038   1.000000   1.000000
    4      -24.858878    -24.861042   1.000000   1.000000
    5      -24.278488    -24.269222   1.000000   1.000000
    6      -14.824888    -14.823879   1.000000   1.000000
    7      -13.565975    -13.574375   1.000000   1.000000
    8      -13.534684    -13.516831   1.000000   1.000000
    9      -12.862923    -12.861155   1.000000   1.000000
   10       -8.135255     -8.135293   1.000000   1.000000
   11       -7.879495     -7.876715   1.000000   1.000000
   12       -7.264739     -7.265559   1.000000   1.000000
   13       -6.925634     -6.924897   1.000000   1.000000
   14       -6.867742     -6.868104   1.000000   1.000000
   15       -6.662381     -6.653694   1.000000   1.000000
   16       -6.148263     -6.144395   1.000000   1.000000
   17       -6.023131     -6.020740   1.000000   1.000000
   18       -4.151331     -4.142842   1.000000   1.000000
   19       -4.103707     -4.101463   1.000000   1.000000
   20       -3.966962     -3.962602   1.000000   1.000000
   21       -3.813627     -3.813856   1.000000   1.000000
   22       -1.488904     -1.488925   1.000000   1.000000
   23       -1.198146     -1.193789   1.000000   1.000000
   24       -0.837218     -0.837607   1.000000   1.000000
   25       -0.260507     -0.251363   1.000000   1.000000
   26        1.573409      1.590350   0.000000   0.000000
   27        1.634016      1.638733   0.000000   0.000000
   28        1.718752      1.717246   0.000000   0.000000
   29        1.958891      1.957490   0.000000   0.000000
   30        6.126581      6.128086   0.000000   0.000000
   31        8.816570      8.823779   0.000000   0.000000
   32        9.021384      9.015592   0.000000   0.000000
   33        9.681499      9.683331   0.000000   0.000000
   34        9.951059      9.954563   0.000000   0.000000
 
  0.5000000E+00 -0.7620493E-18  0.3118422E-14  0.2551020E-02
    1      -44.287978    -44.287751   1.000000   1.000000
    2      -25.954012    -25.952168   1.000000   1.000000
    3      -24.904093    -24.904551   1.000000   1.000000
    4      -24.860587    -24.862452   1.000000   1.000000
    5      -24.278718    -24.269478   1.000000   1.000000
    6      -14.875329    -14.874272   1.000000   1.000000
    7      -13.528696    -13.537677   1.000000   1.000000
    8      -13.498370    -13.479708   1.000000   1.000000
    9      -12.874501    -12.873003   1.000000   1.000000
   10       -8.129844     -8.129910   1.000000   1.000000
   11       -7.887438     -7.884680   1.000000   1.000000
   12       -7.249064     -7.249747   1.000000   1.000000
   13       -6.938850     -6.939717   1.000000   1.000000
   14       -6.800106     -6.800237   1.000000   1.000000
   15       -6.714241     -6.704663   1.000000   1.000000
   16       -6.152348     -6.147848   1.000000   1.000000
   17       -6.043484     -6.041324   1.000000   1.000000
   18       -4.150198     -4.141368   1.000000   1.000000
   19       -4.100381     -4.098613   1.000000   1.000000
   20       -3.964288     -3.959831   1.000000   1.000000
   21       -3.811315     -3.811523   1.000000   1.000000
   22       -1.473876     -1.473870   1.000000   1.000000
   23       -1.151653     -1.147608   1.000000   1.000000
   24       -0.838714     -0.838951   1.000000   1.000000
   25       -0.296004     -0.286813   1.000000   1.000000
   26        1.572523      1.589795   0.000000   0.000000
   27        1.631491      1.636466   0.000000   0.000000
   28        1.715393      1.713472   0.000000   0.000000
   29        1.953399      1.951945   0.000000   0.000000
   30        5.807251      5.808662   0.000000   0.000000
   31        9.115184      9.122632   0.000000   0.000000
   32        9.217941      9.212843   0.000000   0.000000
   33        9.502932      9.503252   0.000000   0.000000
   34        9.969218      9.971057   0.000000   0.000000
 
 -0.4310663E-18  0.1428571E+00  0.3910390E-14  0.5102041E-02
    1      -44.288084    -44.287856   1.000000   1.000000
    2      -25.957385    -25.955528   1.000000   1.000000
    3      -24.916082    -24.917842   1.000000   1.000000
    4      -24.836449    -24.837142   1.000000   1.000000
    5      -24.287868    -24.278510   1.000000   1.000000
    6      -14.496025    -14.495728   1.000000   1.000000
    7      -13.783025    -13.788762   1.000000   1.000000
    8      -13.703825    -13.687908   1.000000   1.000000
    9      -12.851399    -12.849719   1.000000   1.000000
   10       -8.169409     -8.169127   1.000000   1.000000
   11       -7.765444     -7.762939   1.000000   1.000000
   12       -7.618044     -7.617817   1.000000   1.000000
   13       -7.128697     -7.129008   1.000000   1.000000
   14       -6.617528     -6.612357   1.000000   1.000000
   15       -6.276558     -6.269769   1.000000   1.000000
   16       -6.082800     -6.083534   1.000000   1.000000
   17       -6.066794     -6.063867   1.000000   1.000000
   18       -4.259018     -4.246979   1.000000   1.000000
   19       -4.173531     -4.173671   1.000000   1.000000
   20       -4.009742     -4.006832   1.000000   1.000000
   21       -3.863830     -3.863299   1.000000   1.000000
   22       -1.498782     -1.498227   1.000000   1.000000
   23       -1.332035     -1.327677   1.000000   1.000000
   24       -0.746899     -0.747930   1.000000   1.000000
   25       -0.094357     -0.085292   1.000000   1.000000
   26        1.484239      1.499366   0.000000   0.000000
   27        1.619598      1.624522   0.000000   0.000000
   28        1.720015      1.719788   0.000000   0.000000
   29        1.945419      1.944350   0.000000   0.000000
   30        7.665948      7.660227   0.000000   0.000000
   31        7.797271      7.808186   0.000000   0.000000
   32        8.826535      8.827171   0.000000   0.000000
   33        9.365502      9.362126   0.000000   0.000000
   34        9.804085      9.809389   0.000000   0.000000
 
  0.1250000E+00  0.1428571E+00 -0.6212034E-14  0.5102041E-02
    1      -44.288083    -44.287856   1.000000   1.000000
    2      -25.956936    -25.955079   1.000000   1.000000
    3      -24.916254    -24.917912   1.000000   1.000000
    4      -24.836441    -24.837230   1.000000   1.000000
    5      -24.288423    -24.279072   1.000000   1.000000
    6      -14.506884    -14.506426   1.000000   1.000000
    7      -13.791127    -13.797747   1.000000   1.000000
    8      -13.690935    -13.674229   1.000000   1.000000
    9      -12.844999    -12.843359   1.000000   1.000000
   10       -8.160670     -8.160439   1.000000   1.000000
   11       -7.760662     -7.758186   1.000000   1.000000
   12       -7.603013     -7.602688   1.000000   1.000000
   13       -7.154088     -7.154352   1.000000   1.000000
   14       -6.613161     -6.607788   1.000000   1.000000
   15       -6.288968     -6.282348   1.000000   1.000000
   16       -6.086745     -6.088097   1.000000   1.000000
   17       -6.054870     -6.051490   1.000000   1.000000
   18       -4.264970     -4.253242   1.000000   1.000000
   19       -4.164993     -4.165069   1.000000   1.000000
   20       -4.011134     -4.007828   1.000000   1.000000
   21       -3.865089     -3.864651   1.000000   1.000000
   22       -1.485247     -1.484694   1.000000   1.000000
   23       -1.324560     -1.320167   1.000000   1.000000
   24       -0.756147     -0.757033   1.000000   1.000000
   25       -0.102215     -0.092926   1.000000   1.000000
   26        1.493906      1.508972   0.000000   0.000000
   27        1.597429      1.601407   0.000000   0.000000
   28        1.727329      1.727372   0.000000   0.000000
   29        1.945427      1.944511   0.000000   0.000000
   30        7.564412      7.561528   0.000000   0.000000
   31        7.915478      7.923771   0.000000   0.000000
   32        8.599356      8.599757   0.000000   0.000000
   33        9.545497      9.543507   0.000000   0.000000
   34        9.848180      9.852841   0.000000   0.000000
 
  0.2500000E+00  0.1428571E+00 -0.1792980E-14  0.5102041E-02
    1      -44.288045    -44.287818   1.000000   1.000000
    2      -25.952324    -25.950455   1.000000   1.000000
    3      -24.918259    -24.920104   1.000000   1.000000
    4      -24.839899    -24.840458   1.000000   1.000000
    5      -24.289112    -24.279815   1.000000   1.000000
    6      -14.612454    -14.611669   1.000000   1.000000
    7      -13.748387    -13.753783   1.000000   1.000000
    8      -13.622495    -13.607302   1.000000   1.000000
    9      -12.845752    -12.844113   1.000000   1.000000
   10       -8.114780     -8.114666   1.000000   1.000000
   11       -7.782680     -7.780197   1.000000   1.000000
   12       -7.422550     -7.422479   1.000000   1.000000
   13       -7.166598     -7.166291   1.000000   1.000000
   14       -6.672561     -6.669018   1.000000   1.000000
   15       -6.425356     -6.418319   1.000000   1.000000
   16       -6.128334     -6.128700   1.000000   1.000000
   17       -6.016103     -6.012549   1.000000   1.000000
   18       -4.269240     -4.257826   1.000000   1.000000
   19       -4.154143     -4.154195   1.000000   1.000000
   20       -4.006142     -4.002522   1.000000   1.000000
   21       -3.861420     -3.861020   1.000000   1.000000
   22       -1.454246     -1.453968   1.000000   1.000000
   23       -1.271414     -1.267049   1.000000   1.000000
   24       -0.769988     -0.770505   1.000000   1.000000
   25       -0.172916     -0.163637   1.000000   1.000000
   26        1.494826      1.510084   0.000000   0.000000
   27        1.572828      1.576241   0.000000   0.000000
   28        1.729964      1.730088   0.000000   0.000000
   29        1.938743      1.938019   0.000000   0.000000
   30        7.480960      7.483103   0.000000   0.000000
   31        7.853944      7.853365   0.000000   0.000000
   32        8.382114      8.385819   0.000000   0.000000
   33        9.762765      9.762874   0.000000   0.000000
   34       10.056033     10.058859   0.000000   0.000000
 
  0.3750000E+00  0.1428571E+00  0.2607044E-14  0.5102041E-02
    1      -44.287997    -44.287770   1.000000   1.000000
    2      -25.946315    -25.944427   1.000000   1.000000
    3      -24.920736    -24.922977   1.000000   1.000000
    4      -24.844607    -24.844718   1.000000   1.000000
    5      -24.289378    -24.280153   1.000000   1.000000
    6      -14.746106    -14.745128   1.000000   1.000000
    7      -13.667052    -13.671667   1.000000   1.000000
    8      -13.538013    -13.523532   1.000000   1.000000
    9      -12.861607    -12.860205   1.000000   1.000000
   10       -8.091553     -8.091494   1.000000   1.000000
   11       -7.817187     -7.814741   1.000000   1.000000
   12       -7.266458     -7.267033   1.000000   1.000000
   13       -7.007855     -7.006667   1.000000   1.000000
   14       -6.796930     -6.795857   1.000000   1.000000
   15       -6.574174     -6.566794   1.000000   1.000000
   16       -6.173144     -6.170449   1.000000   1.000000
   17       -6.021560     -6.019071   1.000000   1.000000
   18       -4.268454     -4.257173   1.000000   1.000000
   19       -4.146891     -4.146954   1.000000   1.000000
   20       -3.997736     -3.994076   1.000000   1.000000
   21       -3.855357     -3.854911   1.000000   1.000000
   22       -1.417948     -1.417810   1.000000   1.000000
   23       -1.183880     -1.179988   1.000000   1.000000
   24       -0.774853     -0.774982   1.000000   1.000000
   25       -0.263508     -0.254242   1.000000   1.000000
   26        1.488483      1.503937   0.000000   0.000000
   27        1.559896      1.563530   0.000000   0.000000
   28        1.725428      1.725438   0.000000   0.000000
   29        1.927222      1.926523   0.000000   0.000000
   30        6.502052      6.503615   0.000000   0.000000
   31        8.369094      8.370180   0.000000   0.000000
   32        8.928118      8.931371   0.000000   0.000000
   33        9.877516      9.928570   0.000000   0.000000
   34        9.960755     11.622549   0.000000   0.000000
 
  0.5000000E+00  0.1428571E+00 -0.4378309E-16  0.5102041E-02
    1      -44.287977    -44.287750   1.000000   1.000000
    2      -25.942554    -25.940653   1.000000   1.000000
    3      -24.922423    -24.925027   1.000000   1.000000
    4      -24.847946    -24.847661   1.000000   1.000000
    5      -24.289209    -24.280030   1.000000   1.000000
    6      -14.830972    -14.829948   1.000000   1.000000
    7      -13.592811    -13.597389   1.000000   1.000000
    8      -13.490650    -13.475945   1.000000   1.000000
    9      -12.880458    -12.879368   1.000000   1.000000
   10       -8.084625     -8.084611   1.000000   1.000000
   11       -7.846851     -7.844406   1.000000   1.000000
   12       -7.217902     -7.218320   1.000000   1.000000
   13       -6.913310     -6.913555   1.000000   1.000000
   14       -6.797204     -6.796654   1.000000   1.000000
   15       -6.679610     -6.671465   1.000000   1.000000
   16       -6.192936     -6.188595   1.000000   1.000000
   17       -6.032955     -6.030977   1.000000   1.000000
   18       -4.263221     -4.251850   1.000000   1.000000
   19       -4.147359     -4.147464   1.000000   1.000000
   20       -3.991471     -3.988027   1.000000   1.000000
   21       -3.850573     -3.850027   1.000000   1.000000
   22       -1.399471     -1.399344   1.000000   1.000000
   23       -1.118776     -1.115456   1.000000   1.000000
   24       -0.768048     -0.767956   1.000000   1.000000
   25       -0.320607     -0.311338   1.000000   1.000000
   26        1.478753      1.494412   0.000000   0.000000
   27        1.565663      1.569956   0.000000   0.000000
   28        1.717302      1.717125   0.000000   0.000000
   29        1.917249      1.916389   0.000000   0.000000
   30        5.946845      5.948291   0.000000   0.000000
   31        8.923313      8.923886   0.000000   0.000000
   32        9.183111      9.186211   0.000000   0.000000
   33        9.600625      9.600821   0.000000   0.000000
   34       10.054906     10.059261   0.000000   0.000000
 
 -0.3750000E+00  0.1428571E+00  0.1089070E-14  0.5102041E-02
    1      -44.287990    -44.287763   1.000000   1.000000
    2      -25.943036    -25.941134   1.000000   1.000000
    3      -24.922441    -24.925149   1.000000   1.000000
    4      -24.847929    -24.847549   1.000000   1.000000
    5      -24.288682    -24.279496   1.000000   1.000000
    6      -14.822415    -14.821451   1.000000   1.000000
    7      -13.586338    -13.588645   1.000000   1.000000
    8      -13.505897    -13.493730   1.000000   1.000000
    9      -12.880050    -12.878659   1.000000   1.000000
   10       -8.091402     -8.091368   1.000000   1.000000
   11       -7.862025     -7.859560   1.000000   1.000000
   12       -7.191316     -7.191967   1.000000   1.000000
   13       -6.912881     -6.913221   1.000000   1.000000
   14       -6.816597     -6.816019   1.000000   1.000000
   15       -6.684905     -6.676609   1.000000   1.000000
   16       -6.191982     -6.187553   1.000000   1.000000
   17       -6.016154     -6.014091   1.000000   1.000000
   18       -4.257353     -4.245711   1.000000   1.000000
   19       -4.155658     -4.155838   1.000000   1.000000
   20       -3.991051     -3.987950   1.000000   1.000000
   21       -3.849462     -3.848825   1.000000   1.000000
   22       -1.415722     -1.415602   1.000000   1.000000
   23       -1.129048     -1.125701   1.000000   1.000000
   24       -0.758621     -0.758627   1.000000   1.000000
   25       -0.313331     -0.304300   1.000000   1.000000
   26        1.469933      1.485713   0.000000   0.000000
   27        1.586458      1.591447   0.000000   0.000000
   28        1.711187      1.710809   0.000000   0.000000
   29        1.916879      1.915867   0.000000   0.000000
   30        5.995678      5.997171   0.000000   0.000000
   31        8.828430      8.833956   0.000000   0.000000
   32        9.255605      9.252207   0.000000   0.000000
   33        9.674035      9.791183   0.000000   0.000000
   34       10.101252     11.240992   0.000000   0.000000
 
 -0.2500000E+00  0.1428571E+00 -0.1612184E-14  0.5102041E-02
    1      -44.288017    -44.287790   1.000000   1.000000
    2      -25.947597    -25.945708   1.000000   1.000000
    3      -24.920473    -24.922965   1.000000   1.000000
    4      -24.844657    -24.844532   1.000000   1.000000
    5      -24.288009    -24.278769   1.000000   1.000000
    6      -14.724362    -14.723570   1.000000   1.000000
    7      -13.653993    -13.653345   1.000000   1.000000
    8      -13.567750    -13.558844   1.000000   1.000000
    9      -12.866910    -12.865074   1.000000   1.000000
   10       -8.105846     -8.105729   1.000000   1.000000
   11       -7.846502     -7.844001   1.000000   1.000000
   12       -7.230766     -7.231745   1.000000   1.000000
   13       -7.024016     -7.022926   1.000000   1.000000
   14       -6.802627     -6.801827   1.000000   1.000000
   15       -6.584271     -6.576452   1.000000   1.000000
   16       -6.171437     -6.168483   1.000000   1.000000
   17       -5.987502     -5.984891   1.000000   1.000000
   18       -4.254340     -4.242388   1.000000   1.000000
   19       -4.167168     -4.167395   1.000000   1.000000
   20       -3.995934     -3.993132   1.000000   1.000000
   21       -3.852590     -3.851926   1.000000   1.000000
   22       -1.455132     -1.454989   1.000000   1.000000
   23       -1.207285     -1.203400   1.000000   1.000000
   24       -0.752580     -0.752984   1.000000   1.000000
   25       -0.245340     -0.236620   1.000000   1.000000
   26        1.466788      1.482445   0.000000   0.000000
   27        1.610348      1.615910   0.000000   0.000000
   28        1.709795      1.709249   0.000000   0.000000
   29        1.926631      1.925565   0.000000   0.000000
   30        6.636563      6.638367   0.000000   0.000000
   31        8.352306      8.357450   0.000000   0.000000
   32        8.966016      8.961473   0.000000   0.000000
   33        9.871723      9.858057   0.000000   0.000000
   34        9.965514      9.966446   0.000000   0.000000
 
 -0.1250000E+00  0.1428571E+00  0.2800791E-14  0.5102041E-02
    1      -44.288062    -44.287835   1.000000   1.000000
    2      -25.953565    -25.951695   1.000000   1.000000
    3      -24.917805    -24.919905   1.000000   1.000000
    4      -24.839961    -24.840280   1.000000   1.000000
    5      -24.287734    -24.278423   1.000000   1.000000
    6      -14.588472    -14.587963   1.000000   1.000000
    7      -13.732888    -13.734311   1.000000   1.000000
    8      -13.650986    -13.639759   1.000000   1.000000
    9      -12.857627    -12.855783   1.000000   1.000000
   10       -8.130089     -8.129882   1.000000   1.000000
   11       -7.802696     -7.800158   1.000000   1.000000
   12       -7.454592     -7.454622   1.000000   1.000000
   13       -7.112572     -7.112545   1.000000   1.000000
   14       -6.682848     -6.679745   1.000000   1.000000
   15       -6.423815     -6.416336   1.000000   1.000000
   16       -6.127590     -6.127442   1.000000   1.000000
   17       -6.000165     -5.996728   1.000000   1.000000
   18       -4.255045     -4.242925   1.000000   1.000000
   19       -4.174636     -4.174837   1.000000   1.000000
   20       -4.003377     -4.000670   1.000000   1.000000
   21       -3.858506     -3.857886   1.000000   1.000000
   22       -1.488894     -1.488592   1.000000   1.000000
   23       -1.291801     -1.287512   1.000000   1.000000
   24       -0.747915     -0.748752   1.000000   1.000000
   25       -0.154245     -0.145502   1.000000   1.000000
   26        1.472361      1.487755   0.000000   0.000000
   27        1.624477      1.630080   0.000000   0.000000
   28        1.713154      1.712648   0.000000   0.000000
   29        1.938487      1.937394   0.000000   0.000000
   30        7.637517      7.642320   0.000000   0.000000
   31        7.971454      7.972492   0.000000   0.000000
   32        8.309434      8.307661   0.000000   0.000000
   33        9.569938      9.569874   0.000000   0.000000
   34       10.065228     10.069577   0.000000   0.000000
 
  0.3533534E-18  0.2857143E+00 -0.6758112E-14  0.5102041E-02
    1      -44.288074    -44.287847   1.000000   1.000000
    2      -25.925700    -25.923682   1.000000   1.000000
    3      -24.957301    -24.961401   1.000000   1.000000
    4      -24.815173    -24.813526   1.000000   1.000000
    5      -24.312206    -24.303011   1.000000   1.000000
    6      -14.469535    -14.469578   1.000000   1.000000
    7      -13.823793    -13.824565   1.000000   1.000000
    8      -13.685299    -13.673689   1.000000   1.000000
    9      -12.879400    -12.878068   1.000000   1.000000
   10       -8.067940     -8.067486   1.000000   1.000000
   11       -7.711752     -7.710109   1.000000   1.000000
   12       -7.414224     -7.413821   1.000000   1.000000
   13       -7.014412     -7.013737   1.000000   1.000000
   14       -6.674892     -6.670445   1.000000   1.000000
   15       -6.342775     -6.338549   1.000000   1.000000
   16       -6.110818     -6.111879   1.000000   1.000000
   17       -6.001700     -5.996599   1.000000   1.000000
   18       -4.634314     -4.624860   1.000000   1.000000
   19       -4.262358     -4.259264   1.000000   1.000000
   20       -4.112860     -4.110716   1.000000   1.000000
   21       -3.852260     -3.850721   1.000000   1.000000
   22       -1.414077     -1.412479   1.000000   1.000000
   23       -1.061437     -1.059568   1.000000   1.000000
   24       -0.646376     -0.645601   1.000000   1.000000
   25       -0.145560     -0.139266   1.000000   1.000000
   26        1.122397      1.135867   0.001761  -0.012332
   27        1.569182      1.576157   0.000000   0.000000
   28        1.678552      1.680116   0.000000   0.000000
   29        1.898750      1.898127   0.000000   0.000000
   30        7.745930      7.754611   0.000000   0.000000
   31        7.783364      7.780456   0.000000   0.000000
   32        8.626579      8.625158   0.000000   0.000000
   33        9.381118      9.380632   0.000000   0.000000
   34       10.184459     10.195279   0.000000   0.000000
 
  0.1250000E+00  0.2857143E+00 -0.2338767E-14  0.5102041E-02
    1      -44.288067    -44.287840   1.000000   1.000000
    2      -25.926422    -25.924410   1.000000   1.000000
    3      -24.955834    -24.959821   1.000000   1.000000
    4      -24.814834    -24.813300   1.000000   1.000000
    5      -24.312986    -24.303787   1.000000   1.000000
    6      -14.450764    -14.450675   1.000000   1.000000
    7      -13.864768    -13.866853   1.000000   1.000000
    8      -13.670906    -13.657930   1.000000   1.000000
    9      -12.869859    -12.868678   1.000000   1.000000
   10       -8.090609     -8.090213   1.000000   1.000000
   11       -7.702476     -7.700921   1.000000   1.000000
   12       -7.436903     -7.436233   1.000000   1.000000
   13       -7.046533     -7.046241   1.000000   1.000000
   14       -6.653756     -6.647669   1.000000   1.000000
   15       -6.277502     -6.275283   1.000000   1.000000
   16       -6.083990     -6.085400   1.000000   1.000000
   17       -6.037660     -6.031753   1.000000   1.000000
   18       -4.650473     -4.640866   1.000000   1.000000
   19       -4.253430     -4.250552   1.000000   1.000000
   20       -4.108343     -4.105989   1.000000   1.000000
   21       -3.858060     -3.856501   1.000000   1.000000