Automatically generated mesh
     197
Reciprocal lattice
    0.00000000000000    0.00000000000000    0.00000000000000             1
    0.12500000000000    0.00000000000000    0.00000000000000             2
    0.25000000000000    0.00000000000000   -0.00000000000001             2
    0.37500000000000    0.00000000000000   -0.00000000000000             2
    0.50000000000000   -0.00000000000000    0.00000000000000             1
   -0.00000000000000    0.14285714285715    0.00000000000000             2
    0.12500000000000    0.14285714285715   -0.00000000000001             2
    0.25000000000000    0.14285714285715   -0.00000000000000             2
    0.37500000000000    0.14285714285715    0.00000000000000             2
    0.50000000000000    0.14285714285715   -0.00000000000000             2
   -0.37500000000000    0.14285714285715    0.00000000000000             2
   -0.25000000000000    0.14285714285715   -0.00000000000000             2
   -0.12500000000000    0.14285714285715    0.00000000000000             2
    0.00000000000000    0.28571428571428   -0.00000000000001             2
    0.12500000000000    0.28571428571428   -0.00000000000000             2
    0.25000000000000    0.28571428571428    0.00000000000000             2
    0.37500000000000    0.28571428571428    0.00000000000001             2
    0.50000000000000    0.28571428571428   -0.00000000000000             2
   -0.37500000000000    0.28571428571428   -0.00000000000000             2
   -0.25000000000000    0.28571428571428    0.00000000000000             2
   -0.12500000000000    0.28571428571428   -0.00000000000000             2
   -0.00000000000000    0.42857142857143   -0.00000000000000             2
    0.12500000000000    0.42857142857143    0.00000000000000             2
    0.25000000000000    0.42857142857143    0.00000000000001             2
    0.37500000000000    0.42857142857143   -0.00000000000000             2
    0.50000000000000    0.42857142857143    0.00000000000000             2
   -0.37500000000000    0.42857142857143    0.00000000000000             2
   -0.25000000000000    0.42857142857143   -0.00000000000000             2
   -0.12500000000000    0.42857142857143    0.00000000000000             2
   -0.00000000000000   -0.00000000000000    0.14285714285714             2
    0.12500000000000   -0.00000000000000    0.14285714285714             2
    0.25000000000000   -0.00000000000000    0.14285714285715             2
    0.37500000000000   -0.00000000000000    0.14285714285714             2
    0.50000000000000    0.00000000000000    0.14285714285714             2
   -0.37500000000000    0.00000000000000    0.14285714285714             2
   -0.25000000000000   -0.00000000000000    0.14285714285715             2
   -0.12500000000000   -0.00000000000000    0.14285714285714             2
    0.00000000000000    0.14285714285715    0.14285714285714             2
    0.12500000000000    0.14285714285715    0.14285714285715             2
    0.25000000000000    0.14285714285715    0.14285714285714             2
    0.37500000000000    0.14285714285715    0.14285714285714             2
    0.50000000000000    0.14285714285715    0.14285714285714             2
   -0.37500000000000    0.14285714285715    0.14285714285715             2
   -0.25000000000000    0.14285714285715    0.14285714285714             2
   -0.12500000000000    0.14285714285715    0.14285714285714             2
    0.00000000000000    0.28571428571428    0.14285714285715             2
    0.12500000000000    0.28571428571428    0.14285714285715             2
    0.25000000000000    0.28571428571428    0.14285714285714             2
    0.37500000000000    0.28571428571428    0.14285714285714             2
    0.50000000000000    0.28571428571428    0.14285714285715             2
   -0.37500000000000    0.28571428571428    0.14285714285714             2
   -0.25000000000000    0.28571428571428    0.14285714285714             2
   -0.12500000000000    0.28571428571428    0.14285714285714             2
   -0.00000000000000    0.42857142857143    0.14285714285715             2
    0.12500000000000    0.42857142857143    0.14285714285714             2
    0.25000000000000    0.42857142857143    0.14285714285714             2
    0.37500000000000    0.42857142857143    0.14285714285715             2
    0.50000000000000    0.42857142857143    0.14285714285714             2
   -0.37500000000000    0.42857142857143    0.14285714285714             2
   -0.25000000000000    0.42857142857143    0.14285714285714             2
   -0.12500000000000    0.42857142857143    0.14285714285714             2
   -0.00000000000000   -0.42857142857143    0.14285714285714             2
    0.12500000000000   -0.42857142857143    0.14285714285714             2
    0.25000000000000   -0.42857142857143    0.14285714285715             2
    0.37500000000000   -0.42857142857143    0.14285714285714             2
    0.50000000000000   -0.42857142857143    0.14285714285714             2
   -0.37500000000000   -0.42857142857143    0.14285714285714             2
   -0.25000000000000   -0.42857142857143    0.14285714285714             2
   -0.12500000000000   -0.42857142857143    0.14285714285714             2
    0.00000000000000   -0.28571428571428    0.14285714285714             2
    0.12500000000000   -0.28571428571428    0.14285714285715             2
    0.25000000000000   -0.28571428571428    0.14285714285714             2
    0.37500000000000   -0.28571428571428    0.14285714285714             2
    0.50000000000000   -0.28571428571428    0.14285714285715             2
   -0.37500000000000   -0.28571428571428    0.14285714285715             2
   -0.25000000000000   -0.28571428571428    0.14285714285714             2
   -0.12500000000000   -0.28571428571428    0.14285714285714             2
    0.00000000000000   -0.14285714285715    0.14285714285715             2
    0.12500000000000   -0.14285714285715    0.14285714285714             2
    0.25000000000000   -0.14285714285715    0.14285714285714             2
    0.37500000000000   -0.14285714285715    0.14285714285715             2
    0.50000000000000   -0.14285714285715    0.14285714285714             2
   -0.37500000000000   -0.14285714285715    0.14285714285714             2
   -0.25000000000000   -0.14285714285715    0.14285714285714             2
   -0.12500000000000   -0.14285714285715    0.14285714285715             2
    0.00000000000000   -0.00000000000000    0.28571428571429             2
    0.12500000000000   -0.00000000000000    0.28571428571428             2
    0.25000000000000   -0.00000000000000    0.28571428571428             2
    0.37500000000000   -0.00000000000000    0.28571428571429             2
    0.50000000000000   -0.00000000000000    0.28571428571429             2
   -0.37500000000000    0.00000000000000    0.28571428571429             2
   -0.25000000000000   -0.00000000000000    0.28571428571428             2
   -0.12500000000000   -0.00000000000000    0.28571428571429             2
   -0.00000000000000    0.14285714285715    0.28571428571429             2
    0.12500000000000    0.14285714285715    0.28571428571428             2
    0.25000000000000    0.14285714285715    0.28571428571429             2
    0.37500000000000    0.14285714285715    0.28571428571429             2
    0.50000000000000    0.14285714285715    0.28571428571428             2
   -0.37500000000000    0.14285714285715    0.28571428571428             2
   -0.25000000000000    0.14285714285715    0.28571428571429             2
   -0.12500000000000    0.14285714285715    0.28571428571428             2
    0.00000000000000    0.28571428571428    0.28571428571428             2
    0.12500000000000    0.28571428571428    0.28571428571429             2
    0.25000000000000    0.28571428571428    0.28571428571429             2
    0.37500000000000    0.28571428571428    0.28571428571428             2
    0.50000000000000    0.28571428571428    0.28571428571429             2
   -0.37500000000000    0.28571428571428    0.28571428571429             2
   -0.25000000000000    0.28571428571428    0.28571428571428             2
   -0.12500000000000    0.28571428571428    0.28571428571429             2
    0.00000000000000    0.42857142857143    0.28571428571429             2
    0.12500000000000    0.42857142857143    0.28571428571429             2
    0.25000000000000    0.42857142857143    0.28571428571428             2
    0.37500000000000    0.42857142857143    0.28571428571429             2
    0.50000000000000    0.42857142857143    0.28571428571429             2
   -0.37500000000000    0.42857142857143    0.28571428571428             2
   -0.25000000000000    0.42857142857143    0.28571428571429             2
   -0.12500000000000    0.42857142857143    0.28571428571429             2
   -0.00000000000000   -0.42857142857143    0.28571428571429             2
    0.12500000000000   -0.42857142857143    0.28571428571428             2
    0.25000000000000   -0.42857142857143    0.28571428571429             2
    0.37500000000000   -0.42857142857143    0.28571428571429             2
    0.50000000000000   -0.42857142857143    0.28571428571428             2
   -0.37500000000000   -0.42857142857143    0.28571428571428             2
   -0.25000000000000   -0.42857142857143    0.28571428571429             2
   -0.12500000000000   -0.42857142857143    0.28571428571429             2
   -0.00000000000000   -0.28571428571428    0.28571428571428             2
    0.12500000000000   -0.28571428571428    0.28571428571429             2
    0.25000000000000   -0.28571428571428    0.28571428571429             2
    0.37500000000000   -0.28571428571428    0.28571428571428             2
    0.50000000000000   -0.28571428571428    0.28571428571428             2
   -0.37500000000000   -0.28571428571428    0.28571428571429             2
   -0.25000000000000   -0.28571428571428    0.28571428571429             2
   -0.12500000000000   -0.28571428571428    0.28571428571429             2
   -0.00000000000000   -0.14285714285715    0.28571428571428             2
    0.12500000000000   -0.14285714285715    0.28571428571429             2
    0.25000000000000   -0.14285714285715    0.28571428571429             2
    0.37500000000000   -0.14285714285715    0.28571428571428             2
    0.50000000000000   -0.14285714285715    0.28571428571429             2
   -0.37500000000000   -0.14285714285715    0.28571428571429             2
   -0.25000000000000   -0.14285714285715    0.28571428571429             2
   -0.12500000000000   -0.14285714285715    0.28571428571428             2
   -0.00000000000000   -0.00000000000000    0.42857142857143             2
    0.12500000000000   -0.00000000000000    0.42857142857143             2
    0.25000000000000   -0.00000000000000    0.42857142857143             2
    0.37500000000000   -0.00000000000000    0.42857142857143             2
    0.50000000000000    0.00000000000000    0.42857142857143             2
   -0.37500000000000   -0.00000000000000    0.42857142857143             2
   -0.25000000000000   -0.00000000000000    0.42857142857143             2
   -0.12500000000000   -0.00000000000000    0.42857142857143             2
   -0.00000000000000    0.14285714285715    0.42857142857143             2
    0.12500000000000    0.14285714285715    0.42857142857144             2
    0.25000000000000    0.14285714285715    0.42857142857143             2
    0.37500000000000    0.14285714285715    0.42857142857143             2
    0.50000000000000    0.14285714285715    0.42857142857143             2
   -0.37500000000000    0.14285714285715    0.42857142857143             2
   -0.25000000000000    0.14285714285715    0.42857142857143             2
   -0.12500000000000    0.14285714285715    0.42857142857143             2
   -0.00000000000000    0.28571428571428    0.42857142857143             2
    0.12500000000000    0.28571428571428    0.42857142857142             2
    0.25000000000000    0.28571428571428    0.42857142857143             2
    0.37500000000000    0.28571428571428    0.42857142857143             2
    0.50000000000000    0.28571428571428    0.42857142857142             2
   -0.37500000000000    0.28571428571428    0.42857142857143             2
   -0.25000000000000    0.28571428571428    0.42857142857143             2
   -0.12500000000000    0.28571428571428    0.42857142857143             2
   -0.00000000000000    0.42857142857143    0.42857142857142             2
    0.12500000000000    0.42857142857143    0.42857142857143             2
    0.25000000000000    0.42857142857143    0.42857142857143             2
    0.37500000000000    0.42857142857143    0.42857142857142             2
    0.50000000000000    0.42857142857143    0.42857142857143             2
   -0.37500000000000    0.42857142857143    0.42857142857143             2
   -0.25000000000000    0.42857142857143    0.42857142857143             2
   -0.12500000000000    0.42857142857143    0.42857142857143             2
   -0.00000000000000   -0.42857142857143    0.42857142857143             2
    0.12500000000000   -0.42857142857143    0.42857142857143             2
    0.25000000000000   -0.42857142857143    0.42857142857142             2
    0.37500000000000   -0.42857142857143    0.42857142857143             2
    0.50000000000000   -0.42857142857143    0.42857142857143             2
   -0.37500000000000   -0.42857142857143    0.42857142857143             2
   -0.25000000000000   -0.42857142857143    0.42857142857143             2
   -0.12500000000000   -0.42857142857143    0.42857142857143             2
    0.00000000000000   -0.28571428571428    0.42857142857143             2
    0.12500000000000   -0.28571428571428    0.42857142857142             2
    0.25000000000000   -0.28571428571428    0.42857142857143             2
    0.37500000000000   -0.28571428571428    0.42857142857143             2
    0.50000000000000   -0.28571428571428    0.42857142857143             2
   -0.37500000000000   -0.28571428571428    0.42857142857143             2
   -0.25000000000000   -0.28571428571428    0.42857142857143             2
   -0.12500000000000   -0.28571428571428    0.42857142857143             2
   -0.00000000000000   -0.14285714285715    0.42857142857143             2
    0.12500000000000   -0.14285714285715    0.42857142857143             2
    0.25000000000000   -0.14285714285715    0.42857142857143             2
    0.37500000000000   -0.14285714285715    0.42857142857143             2
    0.50000000000000   -0.14285714285715    0.42857142857143             2
   -0.37500000000000   -0.14285714285715    0.42857142857143             2
   -0.25000000000000   -0.14285714285715    0.42857142857143             2
   -0.12500000000000   -0.14285714285715    0.42857142857143             2
Tetrahedra
      1174    0.00042517006803
         2         1         6         7        39
         2         1         2         7        39
         2         1         2        31        39
         2         1         6        38        39
         2         1        30        38        39
         2         1        30        31        39
         2         2         7         8        40
         2         2         3         8        40
         2         2         3        32        40
         2         2         7        39        40
         2         2        31        39        40
         2         2        31        32        40
         2         3         8         9        41
         2         3         4         9        41
         2         3         4        33        41
         2         3         8        40        41
         2         3        32        40        41
         2         3        32        33        41
         2         4         9        10        42
         2         4         5        10        42
         2         4         5        34        42
         2         4         9        41        42
         2         4        33        41        42
         2         4        33        34        42
         2         5        10        11        43
         2         4         5        11        43
         2         4         5        35        43
         2         5        10        42        43
         2         5        34        42        43
         2         5        34        35        43
         2         4        11        12        44
         2         3         4        12        44
         2         3         4        36        44
         2         4        11        43        44
         2         4        35        43        44
         2         4        35        36        44
         2         3        12        13        45
         2         2         3        13        45
         2         2         3        37        45
         2         3        12        44        45
         2         3        36        44        45
         2         3        36        37        45
         2         2         6        13        38
         2         1         2         6        38
         2         1         2        30        38
         2         2        13        38        45
         2         2        37        38        45
         2         2        30        37        38
         2         6        14        15        47
         2         6         7        15        47
         2         6         7        39        47
         2         6        14        46        47
         2         6        38        46        47
         2         6        38        39        47
         2         7        15        16        48
         2         7         8        16        48
         2         7         8        40        48
         2         7        15        47        48
         2         7        39        47        48
         2         7        39        40        48
         2         8        16        17        49
         2         8         9        17        49
         2         8         9        41        49
         2         8        16        48        49
         2         8        40        48        49
         2         8        40        41        49
         2         9        17        18        50
         2         9        10        18        50
         2         9        10        42        50
         2         9        17        49        50
         2         9        41        49        50
         2         9        41        42        50
         2        10        18        19        51
         2        10        11        19        51
         2        10        11        43        51
         2        10        18        50        51
         2        10        42        50        51
         2        10        42        43        51
         2        11        19        20        52
         2        11        12        20        52
         2        11        12        44        52
         2        11        19        51        52
         2        11        43        51        52
         2        11        43        44        52
         2        12        20        21        53
         2        12        13        21        53
         2        12        13        45        53
         2        12        20        52        53
         2        12        44        52        53
         2        12        44        45        53
         2        13        14        21        46
         2         6        13        14        46
         2         6        13        38        46
         2        13        21        46        53
         2        13        45        46        53
         2        13        38        45        46
         2        14        22        23        55
         2        14        15        23        55
         2        14        15        47        55
         2        14        22        54        55
         2        14        46        54        55
         2        14        46        47        55
         2        15        23        24        56
         2        15        16        24        56
         2        15        16        48        56
         2        15        23        55        56
         2        15        47        55        56
         2        15        47        48        56
         2        16        24        25        57
         2        16        17        25        57
         2        16        17        49        57
         2        16        24        56        57
         2        16        48        56        57
         2        16        48        49        57
         2        17        25        26        58
         2        17        18        26        58
         2        17        18        50        58
         2        17        25        57        58
         2        17        49        57        58
         2        17        49        50        58
         2        18        26        27        59
         2        18        19        27        59
         2        18        19        51        59
         2        18        26        58        59
         2        18        50        58        59
         2        18        50        51        59
         2        19        27        28        60
         2        19        20        28        60
         2        19        20        52        60
         2        19        27        59        60
         2        19        51        59        60
         2        19        51        52        60
         2        20        28        29        61
         2        20        21        29        61
         2        20        21        53        61
         2        20        28        60        61
         2        20        52        60        61
         2        20        52        53        61
         2        21        22        29        54
         2        14        21        22        54
         2        14        21        46        54
         2        21        29        54        61
         2        21        53        54        61
         2        21        46        53        54
         2        22        22        29        63
         2        22        23        29        63
         2        22        23        55        63
         2        22        22        62        63
         2        22        54        62        63
         2        22        54        55        63
         2        23        28        29        64
         2        23        24        28        64
         2        23        24        56        64
         2        23        29        63        64
         2        23        55        63        64
         2        23        55        56        64
         2        24        27        28        65
         2        24        25        27        65
         2        24        25        57        65
         2        24        28        64        65
         2        24        56        64        65
         2        24        56        57        65
         2        25        26        27        66
         2        25        26        26        66
         2        25        26        58        66
         2        25        27        65        66
         2        25        57        65        66
         2        25        57        58        66
         2        25        26        26        67
         2        25        26        27        67
         2        26        27        59        67
         2        26        26        66        67
         2        26        58        66        67
         2        26        58        59        67
         2        24        25        27        68
         2        24        27        28        68
         2        27        28        60        68
         2        25        27        67        68
         2        27        59        67        68
         2        27        59        60        68
         2        23        24        28        69
         2        23        28        29        69
         2        28        29        61        69
         2        24        28        68        69
         2        28        60        68        69
         2        28        60        61        69
         2        22        23        29        62
         2        22        22        29        62
         2        22        29        54        62
         2        23        29        62        69
         2        29        61        62        69
         2        29        54        61        62
         2        14        21        22        71
         2        21        22        29        71
         2        22        29        63        71
         2        14        22        70        71
         2        22        62        70        71
         2        22        62        63        71
         2        20        21        29        72
         2        20        28        29        72
         2        28        29        64        72
         2        21        29        71        72
         2        29        63        71        72
         2        29        63        64        72
         2        19        20        28        73
         2        19        27        28        73
         2        27        28        65        73
         2        20        28        72        73
         2        28        64        72        73
         2        28        64        65        73
         2        18        19        27        74
         2        18        26        27        74
         2        26        27        66        74
         2        19        27        73        74
         2        27        65        73        74
         2        27        65        66        74
         2        17        18        26        75
         2        17        25        26        75
         2        25        26        67        75
         2        18        26        74        75
         2        26        66        74        75
         2        26        66        67        75
         2        16        17        25        76
         2        16        24        25        76
         2        24        25        68        76
         2        17        25        75        76
         2        25        67        75        76
         2        25        67        68        76
         2        15        16        24        77
         2        15        23        24        77
         2        23        24        69        77
         2        16        24        76        77
         2        24        68        76        77
         2        24        68        69        77
         2        14        15        23        70
         2        14        22        23        70
         2        22        23        62        70
         2        15        23        70        77
         2        23        69        70        77
         2        23        62        69        70
         2         6        13        14        79
         2        13        14        21        79
         2        14        21        71        79
         2         6        14        78        79
         2        14        70        78        79
         2        14        70        71        79
         2        12        13        21        80
         2        12        20        21        80
         2        20        21        72        80
         2        13        21        79        80
         2        21        71        79        80
         2        21        71        72        80
         2        11        12        20        81
         2        11        19        20        81
         2        19        20        73        81
         2        12        20        80        81
         2        20        72        80        81
         2        20        72        73        81
         2        10        11        19        82
         2        10        18        19        82
         2        18        19        74        82
         2        11        19        81        82
         2        19        73        81        82
         2        19        73        74        82
         2         9        10        18        83
         2         9        17        18        83
         2        17        18        75        83
         2        10        18        82        83
         2        18        74        82        83
         2        18        74        75        83
         2         8         9        17        84
         2         8        16        17        84
         2        16        17        76        84
         2         9        17        83        84
         2        17        75        83        84
         2        17        75        76        84
         2         7         8        16        85
         2         7        15        16        85
         2        15        16        77        85
         2         8        16        84        85
         2        16        76        84        85
         2        16        76        77        85
         2         6         7        15        78
         2         6        14        15        78
         2        14        15        70        78
         2         7        15        78        85
         2        15        77        78        85
         2        15        70        77        78
         2         1         2         6        31
         2         2         6        13        31
         2         6        13        31        79
         2         1         6        30        31
         2         6        30        31        78
         2         6        31        78        79
         2         2         3        13        32
         2         3        12        13        32