       N       E                     dE             d eps       ncg     rms          rms(c)
DAV:   1     0.363113310951E+03    0.36311E+03   -0.28081E+04 26800   0.147E+03
DAV:   2    -0.182615672282E+02   -0.38137E+03   -0.36790E+03 34760   0.351E+02
DAV:   3    -0.434976990210E+02   -0.25236E+02   -0.24956E+02 39602   0.911E+01
DAV:   4    -0.444155310013E+02   -0.91783E+00   -0.91371E+00 44920   0.126E+01
DAV:   5    -0.444892440936E+02   -0.73713E-01   -0.73707E-01 35900   0.172E+00    0.145E+01
RMM:   6    -0.447509949755E+02   -0.26175E+00   -0.30263E+00 30800   0.903E+00    0.995E+00
RMM:   7    -0.443130418011E+02    0.43795E+00   -0.10667E+00 29927   0.562E+00    0.544E+00
RMM:   8    -0.440313095533E+02    0.28173E+00   -0.47558E-01 30444   0.405E+00    0.255E+00
RMM:   9    -0.440599071833E+02   -0.28598E-01   -0.15966E-01 31944   0.241E+00    0.128E+00
RMM:  10    -0.440567522782E+02    0.31549E-02   -0.31059E-02 34606   0.104E+00    0.783E-01
RMM:  11    -0.440555061321E+02    0.12461E-02   -0.85916E-03 36904   0.559E-01    0.405E-01
RMM:  12    -0.440571133500E+02   -0.16072E-02   -0.44848E-03 38324   0.392E-01    0.412E-01
RMM:  13    -0.440558235578E+02    0.12898E-02   -0.20128E-03 39907   0.252E-01    0.105E-01
RMM:  14    -0.440560408511E+02   -0.21729E-03   -0.82666E-04 45377   0.150E-01    0.413E-02
RMM:  15    -0.440561402418E+02   -0.99391E-04   -0.41547E-04 45459   0.102E-01    0.221E-02
RMM:  16    -0.440561772011E+02   -0.36959E-04   -0.20859E-04 43602   0.688E-02    0.137E-02
RMM:  17    -0.440561967927E+02   -0.19592E-04   -0.10353E-04 37650   0.491E-02    0.872E-03
RMM:  18    -0.440562049297E+02   -0.81370E-05   -0.29296E-05 27504   0.354E-02
   1 F= -.44056205E+02 E0= -.44056205E+02  d E =0.000000E+00  mag=     0.0125
