    4    4    1    2
  0.1032299E+02  0.3358635E-09  0.3650690E-09  0.3888635E-09  0.5000000E-15
  1.000000000000000E-004
  CAR 
 unknown system                          
     14    280     12
 
  0.0000000E+00  0.0000000E+00  0.0000000E+00  0.1136364E-02
    1      -42.681611    -42.681502   1.000000   1.000000
    2      -42.511602    -42.511559   1.000000   1.000000
    3      -42.194618    -42.194499   1.000000   1.000000
    4       -9.869165     -9.869210   1.000000   1.000000
    5       -0.125751     -0.125789   1.000000   1.000000
    6        1.409137      1.409092   1.000000   1.000000
    7        1.725357      1.725312   1.000000   1.000000
    8        2.789175      2.789222   0.000000   0.000000
    9        9.149431      9.149833   0.000000   0.000000
   10       10.075167     10.075853   0.000000   0.000000
   11       10.221109     10.221079   0.000000   0.000000
   12       13.882582     13.882721   0.000000   0.000000
 
  0.9090909E-01  0.5791804E-17  0.0000000E+00  0.2272727E-02
    1      -42.671642    -42.671534   1.000000   1.000000
    2      -42.511587    -42.511543   1.000000   1.000000
    3      -42.203941    -42.203823   1.000000   1.000000
    4       -9.857805     -9.857850   1.000000   1.000000
    5       -0.052350     -0.052389   1.000000   1.000000
    6        1.224953      1.224916   1.000000   1.000000
    7        1.409488      1.409449   1.000000   1.000000
    8        3.104943      3.104976   0.000000   0.000000
    9        9.425628      9.426001   0.000000   0.000000
   10       10.101602     10.102060   0.000000   0.000000
   11       10.106423     10.106394   0.000000   0.000000
   12       13.803224     13.801976   0.000000   0.000000
 
  0.1818182E+00  0.1918253E-16  0.0000000E+00  0.2272727E-02
    1      -42.642714    -42.642606   1.000000   1.000000
    2      -42.511423    -42.511378   1.000000   1.000000
    3      -42.231151    -42.231034   1.000000   1.000000
    4       -9.827629     -9.827676   1.000000   1.000000
    5        0.153918      0.153878   1.000000   1.000000
    6        0.689669      0.689649   1.000000   1.000000
    7        0.978008      0.977964   1.000000   1.000000
    8        3.673987      3.674018   0.000000   0.000000
    9        9.750463      9.750587   0.000000   0.000000
   10        9.815702      9.815675   0.000000   0.000000
   11       10.288313     10.288313   0.000000   0.000000
   12       13.699360     13.694555   0.000000   0.000000
 
  0.2727273E+00  0.1803544E-16  0.0000000E+00  0.2272727E-02
    1      -42.598018    -42.597913   1.000000   1.000000
    2      -42.510710    -42.510663   1.000000   1.000000
    3      -42.273991    -42.273873   1.000000   1.000000
    4       -9.788812     -9.788860   1.000000   1.000000
    5        0.120905      0.120889   1.000000   1.000000
    6        0.448195      0.448153   1.000000   1.000000
    7        0.577794      0.577749   1.000000   1.000000
    8        4.336580      4.336607   0.000000   0.000000
    9        9.136691      9.136720   0.000000   0.000000
   10        9.460224      9.460193   0.000000   0.000000
   11       10.865494     10.865279   0.000000   0.000000
   12       13.977053     13.983728   0.000000   0.000000
 
  0.3636364E+00  0.3076614E-16  0.0000000E+00  0.2272727E-02
    1      -42.545483    -42.545394   1.000000   1.000000
    2      -42.506312    -42.506248   1.000000   1.000000
    3      -42.328581    -42.328464   1.000000   1.000000
    4       -9.753896     -9.753946   1.000000   1.000000
    5       -0.306600     -0.306613   1.000000   1.000000
    6        0.264184      0.264140   1.000000   1.000000
    7        0.748861      0.748815   1.000000   1.000000
    8        5.108378      5.108408   0.000000   0.000000
    9        8.121194      8.121224   0.000000   0.000000
   10        9.143888      9.143869   0.000000   0.000000
   11       11.071084     11.071082   0.000000   0.000000
   12       13.367684     13.367326   0.000000   0.000000
 
  0.4545455E+00  0.7885133E-16  0.0000000E+00  0.2272727E-02
    1      -42.520373    -42.520332   1.000000   1.000000
    2      -42.472164    -42.472051   1.000000   1.000000
    3      -42.386399    -42.386283   1.000000   1.000000
    4       -9.733538     -9.733589   1.000000   1.000000
    5       -0.532025     -0.532036   1.000000   1.000000
    6        0.094722      0.094680   1.000000   1.000000
    7        0.944883      0.944836   1.000000   1.000000
    8        6.007333      6.007366   0.000000   0.000000
    9        7.029728      7.029765   0.000000   0.000000
   10        8.953270      8.953257   0.000000   0.000000
   11       11.073281     11.073244   0.000000   0.000000
   12       12.688125     12.687822   0.000000   0.000000
 
 -0.7035143E-17  0.1000000E+00  0.0000000E+00  0.2272727E-02
    1      -42.672855    -42.672746   1.000000   1.000000
    2      -42.511728    -42.511685   1.000000   1.000000
    3      -42.202819    -42.202701   1.000000   1.000000
    4       -9.864273     -9.864319   1.000000   1.000000
    5       -0.053835     -0.053874   1.000000   1.000000
    6        1.015777      1.015742   1.000000   1.000000
    7        1.619151      1.619105   1.000000   1.000000
    8        3.177470      3.177503   0.000000   0.000000
    9        9.246504      9.246733   0.000000   0.000000
   10       10.049431     10.049403   0.000000   0.000000
   11       10.336330     10.336538   0.000000   0.000000
   12       13.578015     13.576584   0.000000   0.000000
 
  0.9090909E-01  0.1000000E+00  0.0000000E+00  0.2272727E-02
    1      -42.654288    -42.654180   1.000000   1.000000
    2      -42.511888    -42.511844   1.000000   1.000000
    3      -42.220215    -42.220096   1.000000   1.000000
    4       -9.846900     -9.846945   1.000000   1.000000
    5        0.084369      0.084330   1.000000   1.000000
    6        0.641258      0.641236   1.000000   1.000000
    7        1.314998      1.314954   1.000000   1.000000
    8        3.597454      3.597480   0.000000   0.000000
    9        9.474687      9.474889   0.000000   0.000000
   10        9.813202      9.813176   0.000000   0.000000
   11       10.506581     10.506957   0.000000   0.000000
   12       13.428929     13.422084   0.000000   0.000000
 
  0.1818182E+00  0.1000000E+00  0.0000000E+00  0.2272727E-02
    1      -42.618238    -42.618131   1.000000   1.000000
    2      -42.511715    -42.511670   1.000000   1.000000
    3      -42.254228    -42.254110   1.000000   1.000000
    4       -9.814488     -9.814536   1.000000   1.000000
    5        0.208604      0.208586   1.000000   1.000000
    6        0.333288      0.333246   1.000000   1.000000
    7        0.832117      0.832076   1.000000   1.000000
    8        4.183461      4.183479   0.000000   0.000000
    9        9.388139      9.388407   0.000000   0.000000
   10        9.505741      9.505718   0.000000   0.000000
   11       10.697889     10.697817   0.000000   0.000000
   12       13.663027     13.659546   0.000000   0.000000
 
  0.2727273E+00  0.1000000E+00  0.0000000E+00  0.2272727E-02
    1      -42.569348    -42.569246   1.000000   1.000000
    2      -42.510222    -42.510171   1.000000   1.000000
    3      -42.302242    -42.302125   1.000000   1.000000
    4       -9.777982     -9.778031   1.000000   1.000000
    5       -0.167307     -0.167321   1.000000   1.000000
    6        0.387245      0.387204   1.000000   1.000000
    7        0.631271      0.631227   1.000000   1.000000
    8        4.877277      4.877309   0.000000   0.000000
    9        8.640015      8.640047   0.000000   0.000000
   10        9.244562      9.244542   0.000000   0.000000
   11       10.800973     10.801274   0.000000   0.000000
   12       13.311302     13.311250   0.000000   0.000000
 
  0.3636364E+00  0.1000000E+00  0.0000000E+00  0.2272727E-02
    1      -42.525819    -42.525764   1.000000   1.000000
    2      -42.494248    -42.494150   1.000000   1.000000
    3      -42.359538    -42.359421   1.000000   1.000000
    4       -9.748259     -9.748310   1.000000   1.000000
    5       -0.425882     -0.425894   1.000000   1.000000
    6        0.096999      0.096961   1.000000   1.000000
    7        0.883045      0.883000   1.000000   1.000000
    8        5.691174      5.691205   0.000000   0.000000
    9        7.609064      7.609121   0.000000   0.000000
   10        9.088618      9.088605   0.000000   0.000000
   11       10.763819     10.765184   0.000000   0.000000
   12       12.316648     12.316811   0.000000   0.000000
 
  0.4545455E+00  0.1000000E+00  0.0000000E+00  0.2272727E-02
    1      -42.519070    -42.519031   1.000000   1.000000
    2      -42.451558    -42.451442   1.000000   1.000000
    3      -42.408221    -42.408105   1.000000   1.000000
    4       -9.734181     -9.734233   1.000000   1.000000
    5       -0.528254     -0.528265   1.000000   1.000000
    6        0.006150      0.006111   1.000000   1.000000
    7        0.984825      0.984778   1.000000   1.000000
    8        6.561161      6.561272   0.000000   0.000000
    9        6.632852      6.632888   0.000000   0.000000
   10        9.038796      9.038778   0.000000   0.000000
   11       10.725141     10.724395   0.000000   0.000000
   12       12.005239     12.005219   0.000000   0.000000
 
 -0.4545455E+00  0.1000000E+00  0.0000000E+00  0.2272727E-02
    1      -42.524591    -42.524539   1.000000   1.000000
    2      -42.490431    -42.490329   1.000000   1.000000
    3      -42.364353    -42.364237   1.000000   1.000000
    4       -9.739826     -9.739877   1.000000   1.000000
    5       -0.444156     -0.444169   1.000000   1.000000
    6        0.110816      0.110777   1.000000   1.000000
    7        0.887149      0.887103   1.000000   1.000000
    8        5.602953      5.602977   0.000000   0.000000
    9        7.675446      7.675479   0.000000   0.000000
   10        9.098263      9.098249   0.000000   0.000000
   11       10.719487     10.719971   0.000000   0.000000
   12       12.453128     12.453198   0.000000   0.000000
 
 -0.3636364E+00  0.1000000E+00  0.0000000E+00  0.2272727E-02
    1      -42.565457    -42.565357   1.000000   1.000000
    2      -42.509111    -42.509058   1.000000   1.000000
    3      -42.306498    -42.306381   1.000000   1.000000
    4       -9.764145     -9.764195   1.000000   1.000000
    5       -0.163569     -0.163585   1.000000   1.000000
    6        0.378868      0.378828   1.000000   1.000000
    7        0.637048      0.637005   1.000000   1.000000
    8        4.766544      4.766576   0.000000   0.000000
    9        8.736856      8.736894   0.000000   0.000000
   10        9.292728      9.292710   0.000000   0.000000
   11       10.662479     10.662675   0.000000   0.000000
   12       13.558846     13.558852   0.000000   0.000000
 
 -0.2727273E+00  0.1000000E+00  0.0000000E+00  0.2272727E-02
    1      -42.614961    -42.614854   1.000000   1.000000
    2      -42.510954    -42.510908   1.000000   1.000000
    3      -42.257509    -42.257391   1.000000   1.000000
    4       -9.800159     -9.800207   1.000000   1.000000
    5        0.287353      0.287333   1.000000   1.000000
    6        0.338391      0.338350   1.000000   1.000000
    7        0.751748      0.751701   1.000000   1.000000
    8        4.060978      4.061028   0.000000   0.000000
    9        9.594640      9.594616   0.000000   0.000000
   10        9.602032      9.602071   0.000000   0.000000
   11       10.387149     10.387922   0.000000   0.000000
   12       13.998923     13.974907   0.000000   0.000000
 
 -0.1818182E+00  0.1000000E+00  0.0000000E+00  0.2272727E-02
    1      -42.652125    -42.652017   1.000000   1.000000
    2      -42.511359    -42.511315   1.000000   1.000000
    3      -42.222244    -42.222126   1.000000   1.000000
    4       -9.836342     -9.836388   1.000000   1.000000
    5        0.087652      0.087613   1.000000   1.000000
    6        0.815613      0.815586   1.000000   1.000000
    7        1.138490      1.138449   1.000000   1.000000
    8        3.497257      3.497285   0.000000   0.000000
    9        9.747640      9.747767   0.000000   0.000000
   10        9.905921      9.905898   0.000000   0.000000
   11       10.150241     10.150722   0.000000   0.000000
   12       13.885533     13.867921   0.000000   0.000000
 
 -0.9090909E-01  0.1000000E+00  0.0000000E+00  0.2272727E-02
    1      -42.672131    -42.672023   1.000000   1.000000
    2      -42.511557    -42.511514   1.000000   1.000000
    3      -42.203546    -42.203428   1.000000   1.000000
    4       -9.860454     -9.860499   1.000000   1.000000
    5       -0.052724     -0.052763   1.000000   1.000000
    6        1.135171      1.135135   1.000000   1.000000
    7        1.493587      1.493548   1.000000   1.000000
    8        3.142309      3.142342   0.000000   0.000000
    9        9.328275      9.328709   0.000000   0.000000
   10       10.090044     10.090016   0.000000   0.000000
   11       10.227410     10.227752   0.000000   0.000000
   12       13.811564     13.811014   0.000000   0.000000
 
 -0.1407029E-16  0.2000000E+00  0.0000000E+00  0.2272727E-02
    1      -42.648233    -42.648124   1.000000   1.000000
    2      -42.512292    -42.512248   1.000000   1.000000
    3      -42.225910    -42.225792   1.000000   1.000000
    4       -9.851731     -9.851777   1.000000   1.000000
    5        0.145097      0.145057   1.000000   1.000000
    6        0.358631      0.358615   1.000000   1.000000
    7        1.371553      1.371509   1.000000   1.000000
    8        3.864603      3.864622   0.000000   0.000000
    9        9.182187      9.182116   0.000000   0.000000
   10        9.585615      9.585587   0.000000   0.000000
   11       11.014856     11.014715   0.000000   0.000000
   12       13.320768     13.319029   0.000000   0.000000
 
  0.9090909E-01  0.2000000E+00  0.0000000E+00  0.2272727E-02
    1      -42.623261    -42.623153   1.000000   1.000000
    2      -42.512753    -42.512709   1.000000   1.000000
    3      -42.249042    -42.248924   1.000000   1.000000
    4       -9.832228     -9.832276   1.000000   1.000000
    5        0.037518      0.037504   1.000000   1.000000
    6        0.322807      0.322765   1.000000   1.000000
    7        1.084103      1.084061   1.000000   1.000000
    8        4.283167      4.283177   0.000000   0.000000
    9        9.048808      9.048822   0.000000   0.000000
   10        9.303482      9.303463   0.000000   0.000000
   11       11.101611     11.101839   0.000000   0.000000
   12       13.588074     13.585306   0.000000   0.000000
 
  0.1818182E+00  0.2000000E+00  0.0000000E+00  0.2272727E-02
    1      -42.583569    -42.583463   1.000000   1.000000
    2      -42.512657    -42.512610   1.000000   1.000000
    3      -42.286878    -42.286760   1.000000   1.000000
    4       -9.802732     -9.802781   1.000000   1.000000
    5       -0.230492     -0.230506   1.000000   1.000000
    6        0.573211      0.573167   1.000000   1.000000
    7        0.624747      0.624710   1.000000   1.000000
    8        4.877380      4.877390   0.000000   0.000000
    9        8.748380      8.748430   0.000000   0.000000
   10        9.114478      9.114466   0.000000   0.000000
   11       10.743647     10.745241   0.000000   0.000000
   12       13.321873     13.321752   0.000000   0.000000
 
  0.2727273E+00  0.2000000E+00  0.0000000E+00  0.2272727E-02
    1      -42.536669    -42.536585   1.000000   1.000000
    2      -42.507825    -42.507755   1.000000   1.000000
    3      -42.336364    -42.336248   1.000000   1.000000
    4       -9.772346     -9.772397   1.000000   1.000000
    5       -0.383990     -0.384004   1.000000   1.000000
    6        0.179104      0.179071   1.000000   1.000000
    7        0.823934      0.823888   1.000000   1.000000
    8        5.595737      5.595727   0.000000   0.000000
    9        8.118730      8.118805   0.000000   0.000000
   10        9.132568      9.132566   0.000000   0.000000
   11       10.308524     10.308315   0.000000   0.000000
   12       11.942810     11.942787   0.000000   0.000000
 
  0.3636364E+00  0.2000000E+00  0.0000000E+00  0.2272727E-02
    1      -42.519576    -42.519537   1.000000   1.000000
    2      -42.466076    -42.465962   1.000000   1.000000
    3      -42.393681    -42.393565   1.000000   1.000000
    4       -9.749773     -9.749826   1.000000   1.000000
    5       -0.423136     -0.423150   1.000000   1.000000
    6       -0.115836     -0.115869   1.000000   1.000000
    7        0.986282      0.986235   1.000000   1.000000
    8        6.418321      6.418097   0.000000   0.000000
    9        7.241443      7.241452   0.000000   0.000000
   10        9.324888      9.324873   0.000000   0.000000
   11       10.086863     10.086973   0.000000   0.000000
   12       11.039793     11.039785   0.000000   0.000000
 
  0.4545455E+00  0.2000000E+00  0.0000000E+00  0.2272727E-02
    1      -42.519230    -42.519191   1.000000   1.000000
    2      -42.453947    -42.453832   1.000000   1.000000
    3      -42.405821    -42.405705   1.000000   1.000000
    4       -9.741219     -9.741271   1.000000   1.000000
    5       -0.443769     -0.443784   1.000000   1.000000
    6       -0.105769     -0.105801   1.000000   1.000000
    7        0.992237      0.992189   1.000000   1.000000
    8        6.300216      6.300064   0.000000   0.000000
    9        7.330123      7.330159   0.000000   0.000000
   10        9.327834      9.327820   0.000000   0.000000
   11       10.061581     10.061685   0.000000   0.000000
   12       11.130663     11.130656   0.000000   0.000000
 
 -0.4545455E+00  0.2000000E+00  0.0000000E+00  0.2272727E-02
    1      -42.530959    -42.530890   1.000000   1.000000
    2      -42.501452    -42.501367   1.000000   1.000000
    3      -42.347447    -42.347331   1.000000   1.000000
    4       -9.749883     -9.749934   1.000000   1.000000
    5       -0.386202     -0.386219   1.000000   1.000000
    6        0.152591      0.152559   1.000000   1.000000
    7        0.838133      0.838087   1.000000   1.000000
    8        5.431140      5.431151   0.000000   0.000000
    9        8.228060      8.228106   0.000000   0.000000
   10        9.205469      9.205434   0.000000   0.000000
   11       10.201740     10.202480   0.000000   0.000000
   12       12.149754     12.149596   0.000000   0.000000
 
 -0.3636364E+00  0.2000000E+00  0.0000000E+00  0.2272727E-02
    1      -42.575383    -42.575280   1.000000   1.000000
    2      -42.510326    -42.510276   1.000000   1.000000
    3      -42.295914    -42.295797   1.000000   1.000000
    4       -9.774323     -9.774372   1.000000   1.000000
    5       -0.162401     -0.162420   1.000000   1.000000
    6        0.515537      0.515500   1.000000   1.000000
    7        0.588702      0.588658   1.000000   1.000000
    8        4.684496      4.684522   0.000000   0.000000
    9        8.938173      8.938204   0.000000   0.000000
   10        9.279130      9.279113   0.000000   0.000000
   11       10.487465     10.488103   0.000000   0.000000
   12       13.607711     13.607799   0.000000   0.000000
 
 -0.2727273E+00  0.2000000E+00  0.0000000E+00  0.2272727E-02
    1      -42.617070    -42.616963   1.000000   1.000000
    2      -42.511157    -42.511112   1.000000   1.000000
    3      -42.255466    -42.255349   1.000000   1.000000
    4       -9.807219     -9.807267   1.000000   1.000000
    5        0.193625      0.193605   1.000000   1.000000
    6        0.334678      0.334637   1.000000   1.000000
    7        0.876860      0.876817   1.000000   1.000000
    8        4.111428      4.111472   0.000000   0.000000
    9        9.309491      9.309498   0.000000   0.000000
   10        9.515020      9.514999   0.000000   0.000000
   11       10.728608     10.729788   0.000000   0.000000
   12       13.973379     13.973018   0.000000   0.000000
 
 -0.1818182E+00  0.2000000E+00  0.0000000E+00  0.2272727E-02
    1      -42.644929    -42.644821   1.000000   1.000000
    2      -42.511377    -42.511333   1.000000   1.000000
    3      -42.229162    -42.229044   1.000000   1.000000
    4       -9.837301     -9.837348   1.000000   1.000000
    5        0.151302      0.151261   1.000000   1.000000
    6        0.540938      0.540916   1.000000   1.000000
    7        1.140834      1.140795   1.000000   1.000000
    8        3.772467      3.772493   0.000000   0.000000
    9        9.414281      9.414456   0.000000   0.000000
   10        9.744200      9.744176   0.000000   0.000000
   11       10.702502     10.702840   0.000000   0.000000
   12       13.713541     13.697579   0.000000   0.000000
 
 -0.9090909E-01  0.2000000E+00  0.0000000E+00  0.2272727E-02
    1      -42.655711    -42.655602   1.000000   1.000000
    2      -42.511759    -42.511715   1.000000   1.000000
    3      -42.219081    -42.218963   1.000000   1.000000
    4       -9.853989     -9.854036   1.000000   1.000000
    5        0.083286      0.083246   1.000000   1.000000
    6        0.600177      0.600157   1.000000   1.000000
    7        1.343092      1.343051   1.000000   1.000000
    8        3.692169      3.692193   0.000000   0.000000
    9        9.325217      9.325422   0.000000   0.000000
   10        9.781194      9.781166   0.000000   0.000000
   11       10.742598     10.742797   0.000000   0.000000
   12       13.427270     13.415781   0.000000   0.000000
 
 -0.3643178E-16  0.3000000E+00  0.0000000E+00  0.2272727E-02
    1      -42.612702    -42.612594   1.000000   1.000000
    2      -42.513802    -42.513757   1.000000   1.000000
    3      -42.258500    -42.258382   1.000000   1.000000
    4       -9.836591     -9.836640   1.000000   1.000000
    5       -0.206490     -0.206500   1.000000   1.000000
    6        0.416565      0.416525   1.000000   1.000000
    7        1.100272      1.100229   1.000000   1.000000
    8        4.621018      4.621047   0.000000   0.000000
    9        8.511990      8.511996   0.000000   0.000000
   10        8.977413      8.977398   0.000000   0.000000
   11       11.752971     11.753092   0.000000   0.000000
   12       13.804094     13.826182   0.000000   0.000000
 
  0.9090909E-01  0.3000000E+00  0.0000000E+00  0.2272727E-02
    1      -42.585804    -42.585696   1.000000   1.000000
    2      -42.515183    -42.515137   1.000000   1.000000
    3      -42.282948    -42.282831   1.000000   1.000000
    4       -9.819761     -9.819810   1.000000   1.000000
    5       -0.413367     -0.413377   1.000000   1.000000
    6        0.587892      0.587846   1.000000   1.000000
    7        0.856845      0.856805   1.000000   1.000000
    8        5.065096      5.065117   0.000000   0.000000
    9        8.153191      8.153201   0.000000   0.000000
   10        8.757652      8.757628   0.000000   0.000000
   11       11.519832     11.519550   0.000000   0.000000
   12       13.736644     13.735881   0.000000   0.000000
 
  0.1818182E+00  0.3000000E+00  0.0000000E+00  0.2272727E-02
    1      -42.547904    -42.547802   1.000000   1.000000
    2      -42.515568    -42.515517   1.000000   1.000000
    3      -42.318854    -42.318738   1.000000   1.000000
    4       -9.796849     -9.796899   1.000000   1.000000
    5       -0.511542     -0.511553   1.000000   1.000000
    6        0.450878      0.450844   1.000000   1.000000
    7        0.785169      0.785123   1.000000   1.000000
    8        5.674217      5.674118   0.000000   0.000000
    9        7.872844      7.872858   0.000000   0.000000
   10        8.796753      8.796740   0.000000   0.000000
   11       10.722729     10.721263   0.000000   0.000000
   12       12.354917     12.354821   0.000000   0.000000
 
  0.2727273E+00  0.3000000E+00  0.0000000E+00  0.2272727E-02
    1      -42.520454    -42.520413   1.000000   1.000000
    2      -42.497676    -42.497563   1.000000   1.000000
    3      -42.362494    -42.362378   1.000000   1.000000
    4       -9.774080     -9.774132   1.000000   1.000000
    5       -0.473951     -0.473967   1.000000   1.000000
    6        0.033115      0.033088   1.000000   1.000000
    7        0.946269      0.946222   1.000000   1.000000
    8        6.361149      6.359898   0.000000   0.000000
    9        7.544243      7.544194   0.000000   0.000000
   10        9.189903      9.189893   0.000000   0.000000
   11        9.950725      9.950809   0.000000   0.000000
   12       11.006419     11.006456   0.000000   0.000000
 
  0.3636364E+00  0.3000000E+00  0.0000000E+00  0.2272727E-02
    1      -42.518986    -42.518947   1.000000   1.000000
    2      -42.458119    -42.458003   1.000000   1.000000
    3      -42.402549    -42.402433   1.000000   1.000000
    4       -9.757213     -9.757265   1.000000   1.000000
    5       -0.322994     -0.323017   1.000000   1.000000
    6       -0.272724     -0.272743   1.000000   1.000000
    7        1.016559      1.016511   1.000000   1.000000
    8        6.947249      6.946802   0.000000   0.000000
    9        7.063639      7.060636   0.000000   0.000000
   10        9.658356      9.658357   0.000000   0.000000
   11        9.926535      9.926521   0.000000   0.000000
   12        9.989936      9.989931   0.000000   0.000000
 
  0.4545455E+00  0.3000000E+00  0.0000000E+00  0.2272727E-02
    1      -42.519667    -42.519627   1.000000   1.000000
    2      -42.477095    -42.476980   1.000000   1.000000
    3      -42.382769    -42.382653   1.000000   1.000000
    4       -9.751113     -9.751164   1.000000   1.000000
    5       -0.469816     -0.469834   1.000000   1.000000
    6       -0.022417     -0.022443   1.000000   1.000000
    7        0.969423      0.969376   1.000000   1.000000
    8        6.234905      6.234592   0.000000   0.000000
    9        7.532929      7.532954   0.000000   0.000000
   10        9.272348      9.272338   0.000000   0.000000
   11        9.955802      9.956260   0.000000   0.000000
   12       11.112372     11.112363   0.000000   0.000000
 
 -0.4545455E+00  0.3000000E+00  0.0000000E+00  0.2272727E-02
    1      -42.534735    -42.534654   1.000000   1.000000
    2      -42.507674    -42.507602   1.000000   1.000000
    3      -42.337940    -42.337823   1.000000   1.000000
    4       -9.759192     -9.759243   1.000000   1.000000
    5       -0.464791     -0.464807   1.000000   1.000000
    6        0.307270      0.307239   1.000000   1.000000
    7        0.819487      0.819441   1.000000   1.000000
    8        5.473282      5.473279   0.000000   0.000000
    9        7.956887      7.956917   0.000000   0.000000
   10        9.002711      9.002707   0.000000   0.000000
   11       10.610491     10.610116   0.000000   0.000000
   12       12.505515     12.505521   0.000000   0.000000
 
 -0.3636364E+00  0.3000000E+00  0.0000000E+00  0.2272727E-02
    1      -42.572691    -42.572588   1.000000   1.000000
    2      -42.511122    -42.511073   1.000000   1.000000
    3      -42.298043    -42.297925   1.000000   1.000000
    4       -9.780347     -9.780397   1.000000   1.000000
    5       -0.292684     -0.292701   1.000000   1.000000
    6        0.605892      0.605855   1.000000   1.000000
    7        0.619728      0.619683   1.000000   1.000000
    8        4.862536      4.862563   0.000000   0.000000
    9        8.368514      8.368532   0.000000   0.000000
   10        9.064635      9.064615   0.000000   0.000000
   11       11.210807     11.210852   0.000000   0.000000
   12       13.835551     13.835197   0.000000   0.000000
 
 -0.2727273E+00  0.3000000E+00  0.0000000E+00  0.2272727E-02
    1      -42.604121    -42.604015   1.000000   1.000000
    2      -42.511215    -42.511169   1.000000   1.000000
    3      -42.268071    -42.267953   1.000000   1.000000
    4       -9.807508     -9.807557   1.000000   1.000000
    5       -0.023994     -0.024010   1.000000   1.000000
    6        0.437697      0.437653   1.000000   1.000000
    7        0.788049      0.788013   1.000000   1.000000
    8        4.487912      4.487946   0.000000   0.000000
    9        8.816770      8.816777   0.000000   0.000000
   10        9.291927      9.291913   0.000000   0.000000
   11       11.295260     11.294548   0.000000   0.000000
   12       14.000227     14.003259   0.000000   0.000000
 
 -0.1818182E+00  0.3000000E+00  0.0000000E+00  0.2272727E-02
    1      -42.622433    -42.622326   1.000000   1.000000
    2      -42.511564    -42.511519   1.000000   1.000000
    3      -42.250742    -42.250624   1.000000   1.000000
    4       -9.830612     -9.830660   1.000000   1.000000
    5        0.146453      0.146437   1.000000   1.000000
    6        0.328474      0.328432   1.000000   1.000000
    7        0.907221      0.907185   1.000000   1.000000
    8        4.353212      4.353234   0.000000   0.000000
    9        9.151460      9.151605   0.000000   0.000000
   10        9.426531      9.426515   0.000000   0.000000
   11       11.030223     11.030952   0.000000   0.000000
   12       13.669782     13.671408   0.000000   0.000000
 
 -0.9090909E-01  0.3000000E+00  0.0000000E+00  0.2272727E-02
    1      -42.625421    -42.625313   1.000000   1.000000
    2      -42.512489    -42.512445   1.000000   1.000000
    3      -42.247505    -42.247387   1.000000   1.000000
    4       -9.841230     -9.841278   1.000000   1.000000
    5        0.034222      0.034209   1.000000   1.000000
    6        0.321203      0.321162   1.000000   1.000000
    7        1.077415      1.077376   1.000000   1.000000
    8        4.395583      4.395598   0.000000   0.000000
    9        8.954809      8.954862   0.000000   0.000000
   10        9.282402      9.282385   0.000000   0.000000
   11       11.296134     11.296106   0.000000   0.000000
   12       13.608488     13.605224   0.000000   0.000000
 
  0.7593859E-17  0.4000000E+00  0.0000000E+00  0.2272727E-02
    1      -42.576192    -42.576083   1.000000   1.000000
    2      -42.517641    -42.517597   1.000000   1.000000