Automatically generated mesh
     280
Reciprocal lattice
    0.00000000000000    0.00000000000000    0.00000000000000             1
    0.09090909090909    0.00000000000000    0.00000000000000             2
    0.18181818181818    0.00000000000000    0.00000000000000             2
    0.27272727272727    0.00000000000000    0.00000000000000             2
    0.36363636363637    0.00000000000000    0.00000000000000             2
    0.45454545454545    0.00000000000000    0.00000000000000             2
   -0.00000000000000    0.10000000000000    0.00000000000000             2
    0.09090909090909    0.10000000000000    0.00000000000000             2
    0.18181818181818    0.10000000000000    0.00000000000000             2
    0.27272727272727    0.10000000000000    0.00000000000000             2
    0.36363636363637    0.10000000000000    0.00000000000000             2
    0.45454545454545    0.10000000000000    0.00000000000000             2
   -0.45454545454545    0.10000000000000    0.00000000000000             2
   -0.36363636363637    0.10000000000000    0.00000000000000             2
   -0.27272727272727    0.10000000000000    0.00000000000000             2
   -0.18181818181818    0.10000000000000    0.00000000000000             2
   -0.09090909090909    0.10000000000000    0.00000000000000             2
   -0.00000000000000    0.20000000000000    0.00000000000000             2
    0.09090909090909    0.20000000000000    0.00000000000000             2
    0.18181818181818    0.20000000000000    0.00000000000000             2
    0.27272727272727    0.20000000000000    0.00000000000000             2
    0.36363636363637    0.20000000000000    0.00000000000000             2
    0.45454545454545    0.20000000000000    0.00000000000000             2
   -0.45454545454545    0.20000000000000    0.00000000000000             2
   -0.36363636363637    0.20000000000000    0.00000000000000             2
   -0.27272727272727    0.20000000000000    0.00000000000000             2
   -0.18181818181818    0.20000000000000    0.00000000000000             2
   -0.09090909090909    0.20000000000000    0.00000000000000             2
   -0.00000000000000    0.30000000000000    0.00000000000000             2
    0.09090909090909    0.30000000000000    0.00000000000000             2
    0.18181818181818    0.30000000000000    0.00000000000000             2
    0.27272727272727    0.30000000000000    0.00000000000000             2
    0.36363636363637    0.30000000000000    0.00000000000000             2
    0.45454545454545    0.30000000000000    0.00000000000000             2
   -0.45454545454545    0.30000000000000    0.00000000000000             2
   -0.36363636363637    0.30000000000000    0.00000000000000             2
   -0.27272727272727    0.30000000000000    0.00000000000000             2
   -0.18181818181818    0.30000000000000    0.00000000000000             2
   -0.09090909090909    0.30000000000000    0.00000000000000             2
    0.00000000000000    0.40000000000000    0.00000000000000             2
    0.09090909090909    0.40000000000000    0.00000000000000             2
    0.18181818181818    0.40000000000000    0.00000000000000             2
    0.27272727272727    0.40000000000000    0.00000000000000             2
    0.36363636363637    0.40000000000000    0.00000000000000             2
    0.45454545454545    0.40000000000000    0.00000000000000             2
   -0.45454545454545    0.40000000000000    0.00000000000000             2
   -0.36363636363637    0.40000000000000    0.00000000000000             2
   -0.27272727272727    0.40000000000000    0.00000000000000             2
   -0.18181818181818    0.40000000000000    0.00000000000000             2
   -0.09090909090909    0.40000000000000    0.00000000000000             2
   -0.00000000000000    0.50000000000000    0.00000000000000             1
    0.09090909090909    0.50000000000000    0.00000000000000             2
    0.18181818181818    0.50000000000000    0.00000000000000             2
    0.27272727272727    0.50000000000000    0.00000000000000             2
    0.36363636363637    0.50000000000000    0.00000000000000             2
    0.45454545454545    0.50000000000000    0.00000000000000             2
    0.00000000000000    0.00000000000000    0.12500000000000             2
    0.09090909090909    0.00000000000000    0.12500000000000             4
    0.18181818181818    0.00000000000000    0.12500000000000             4
    0.27272727272727    0.00000000000000    0.12500000000000             4
    0.36363636363637    0.00000000000000    0.12500000000000             4
    0.45454545454545    0.00000000000000    0.12500000000000             4
   -0.00000000000000    0.10000000000000    0.12500000000000             4
    0.09090909090909    0.10000000000000    0.12500000000000             4
    0.18181818181818    0.10000000000000    0.12500000000000             4
    0.27272727272727    0.10000000000000    0.12500000000000             4
    0.36363636363637    0.10000000000000    0.12500000000000             4
    0.45454545454545    0.10000000000000    0.12500000000000             4
   -0.45454545454545    0.10000000000000    0.12500000000000             4
   -0.36363636363637    0.10000000000000    0.12500000000000             4
   -0.27272727272727    0.10000000000000    0.12500000000000             4
   -0.18181818181818    0.10000000000000    0.12500000000000             4
   -0.09090909090909    0.10000000000000    0.12500000000000             4
   -0.00000000000000    0.20000000000000    0.12500000000000             4
    0.09090909090909    0.20000000000000    0.12500000000000             4
    0.18181818181818    0.20000000000000    0.12500000000000             4
    0.27272727272727    0.20000000000000    0.12500000000000             4
    0.36363636363637    0.20000000000000    0.12500000000000             4
    0.45454545454545    0.20000000000000    0.12500000000000             4
   -0.45454545454545    0.20000000000000    0.12500000000000             4
   -0.36363636363637    0.20000000000000    0.12500000000000             4
   -0.27272727272727    0.20000000000000    0.12500000000000             4
   -0.18181818181818    0.20000000000000    0.12500000000000             4
   -0.09090909090909    0.20000000000000    0.12500000000000             4
   -0.00000000000000    0.30000000000000    0.12500000000000             4
    0.09090909090909    0.30000000000000    0.12500000000000             4
    0.18181818181818    0.30000000000000    0.12500000000000             4
    0.27272727272727    0.30000000000000    0.12500000000000             4
    0.36363636363637    0.30000000000000    0.12500000000000             4
    0.45454545454545    0.30000000000000    0.12500000000000             4
   -0.45454545454545    0.30000000000000    0.12500000000000             4
   -0.36363636363637    0.30000000000000    0.12500000000000             4
   -0.27272727272727    0.30000000000000    0.12500000000000             4
   -0.18181818181818    0.30000000000000    0.12500000000000             4
   -0.09090909090909    0.30000000000000    0.12500000000000             4
    0.00000000000000    0.40000000000000    0.12500000000000             4
    0.09090909090909    0.40000000000000    0.12500000000000             4
    0.18181818181818    0.40000000000000    0.12500000000000             4
    0.27272727272727    0.40000000000000    0.12500000000000             4
    0.36363636363637    0.40000000000000    0.12500000000000             4
    0.45454545454545    0.40000000000000    0.12500000000000             4
   -0.45454545454545    0.40000000000000    0.12500000000000             4
   -0.36363636363637    0.40000000000000    0.12500000000000             4
   -0.27272727272727    0.40000000000000    0.12500000000000             4
   -0.18181818181818    0.40000000000000    0.12500000000000             4
   -0.09090909090909    0.40000000000000    0.12500000000000             4
   -0.00000000000000    0.50000000000000    0.12500000000000             2
    0.09090909090909    0.50000000000000    0.12500000000000             4
    0.18181818181818    0.50000000000000    0.12500000000000             4
    0.27272727272727    0.50000000000000    0.12500000000000             4
    0.36363636363637    0.50000000000000    0.12500000000000             4
    0.45454545454545    0.50000000000000    0.12500000000000             4
    0.00000000000000    0.00000000000000    0.25000000000000             2
    0.09090909090909    0.00000000000000    0.25000000000000             4
    0.18181818181818    0.00000000000000    0.25000000000000             4
    0.27272727272727    0.00000000000000    0.25000000000000             4
    0.36363636363637    0.00000000000000    0.25000000000000             4
    0.45454545454545    0.00000000000000    0.25000000000000             4
   -0.00000000000000    0.10000000000000    0.25000000000000             4
    0.09090909090909    0.10000000000000    0.25000000000000             4
    0.18181818181818    0.10000000000000    0.25000000000000             4
    0.27272727272727    0.10000000000000    0.25000000000000             4
    0.36363636363637    0.10000000000000    0.25000000000000             4
    0.45454545454545    0.10000000000000    0.25000000000000             4
   -0.45454545454545    0.10000000000000    0.25000000000000             4
   -0.36363636363637    0.10000000000000    0.25000000000000             4
   -0.27272727272727    0.10000000000000    0.25000000000000             4
   -0.18181818181818    0.10000000000000    0.25000000000000             4
   -0.09090909090909    0.10000000000000    0.25000000000000             4
   -0.00000000000000    0.20000000000000    0.25000000000000             4
    0.09090909090909    0.20000000000000    0.25000000000000             4
    0.18181818181818    0.20000000000000    0.25000000000000             4
    0.27272727272727    0.20000000000000    0.25000000000000             4
    0.36363636363637    0.20000000000000    0.25000000000000             4
    0.45454545454545    0.20000000000000    0.25000000000000             4
   -0.45454545454545    0.20000000000000    0.25000000000000             4
   -0.36363636363637    0.20000000000000    0.25000000000000             4
   -0.27272727272727    0.20000000000000    0.25000000000000             4
   -0.18181818181818    0.20000000000000    0.25000000000000             4
   -0.09090909090909    0.20000000000000    0.25000000000000             4
   -0.00000000000000    0.30000000000000    0.25000000000000             4
    0.09090909090909    0.30000000000000    0.25000000000000             4
    0.18181818181818    0.30000000000000    0.25000000000000             4
    0.27272727272727    0.30000000000000    0.25000000000000             4
    0.36363636363637    0.30000000000000    0.25000000000000             4
    0.45454545454545    0.30000000000000    0.25000000000000             4
   -0.45454545454545    0.30000000000000    0.25000000000000             4
   -0.36363636363637    0.30000000000000    0.25000000000000             4
   -0.27272727272727    0.30000000000000    0.25000000000000             4
   -0.18181818181818    0.30000000000000    0.25000000000000             4
   -0.09090909090909    0.30000000000000    0.25000000000000             4
    0.00000000000000    0.40000000000000    0.25000000000000             4
    0.09090909090909    0.40000000000000    0.25000000000000             4
    0.18181818181818    0.40000000000000    0.25000000000000             4
    0.27272727272727    0.40000000000000    0.25000000000000             4
    0.36363636363637    0.40000000000000    0.25000000000000             4
    0.45454545454545    0.40000000000000    0.25000000000000             4
   -0.45454545454545    0.40000000000000    0.25000000000000             4
   -0.36363636363637    0.40000000000000    0.25000000000000             4
   -0.27272727272727    0.40000000000000    0.25000000000000             4
   -0.18181818181818    0.40000000000000    0.25000000000000             4
   -0.09090909090909    0.40000000000000    0.25000000000000             4
   -0.00000000000000    0.50000000000000    0.25000000000000             2
    0.09090909090909    0.50000000000000    0.25000000000000             4
    0.18181818181818    0.50000000000000    0.25000000000000             4
    0.27272727272727    0.50000000000000    0.25000000000000             4
    0.36363636363637    0.50000000000000    0.25000000000000             4
    0.45454545454545    0.50000000000000    0.25000000000000             4
    0.00000000000000    0.00000000000000    0.37500000000000             2
    0.09090909090909    0.00000000000000    0.37500000000000             4
    0.18181818181818    0.00000000000000    0.37500000000000             4
    0.27272727272727    0.00000000000000    0.37500000000000             4
    0.36363636363637    0.00000000000000    0.37500000000000             4
    0.45454545454545    0.00000000000000    0.37500000000000             4
   -0.00000000000000    0.10000000000000    0.37500000000000             4
    0.09090909090909    0.10000000000000    0.37500000000000             4
    0.18181818181818    0.10000000000000    0.37500000000000             4
    0.27272727272727    0.10000000000000    0.37500000000000             4
    0.36363636363637    0.10000000000000    0.37500000000000             4
    0.45454545454545    0.10000000000000    0.37500000000000             4
   -0.45454545454545    0.10000000000000    0.37500000000000             4
   -0.36363636363637    0.10000000000000    0.37500000000000             4
   -0.27272727272727    0.10000000000000    0.37500000000000             4
   -0.18181818181818    0.10000000000000    0.37500000000000             4
   -0.09090909090909    0.10000000000000    0.37500000000000             4
   -0.00000000000000    0.20000000000000    0.37500000000000             4
    0.09090909090909    0.20000000000000    0.37500000000000             4
    0.18181818181818    0.20000000000000    0.37500000000000             4
    0.27272727272727    0.20000000000000    0.37500000000000             4
    0.36363636363637    0.20000000000000    0.37500000000000             4
    0.45454545454545    0.20000000000000    0.37500000000000             4
   -0.45454545454545    0.20000000000000    0.37500000000000             4
   -0.36363636363637    0.20000000000000    0.37500000000000             4
   -0.27272727272727    0.20000000000000    0.37500000000000             4
   -0.18181818181818    0.20000000000000    0.37500000000000             4
   -0.09090909090909    0.20000000000000    0.37500000000000             4
   -0.00000000000000    0.30000000000000    0.37500000000000             4
    0.09090909090909    0.30000000000000    0.37500000000000             4
    0.18181818181818    0.30000000000000    0.37500000000000             4
    0.27272727272727    0.30000000000000    0.37500000000000             4
    0.36363636363637    0.30000000000000    0.37500000000000             4
    0.45454545454545    0.30000000000000    0.37500000000000             4
   -0.45454545454545    0.30000000000000    0.37500000000000             4
   -0.36363636363637    0.30000000000000    0.37500000000000             4
   -0.27272727272727    0.30000000000000    0.37500000000000             4
   -0.18181818181818    0.30000000000000    0.37500000000000             4
   -0.09090909090909    0.30000000000000    0.37500000000000             4
    0.00000000000000    0.40000000000000    0.37500000000000             4
    0.09090909090909    0.40000000000000    0.37500000000000             4
    0.18181818181818    0.40000000000000    0.37500000000000             4
    0.27272727272727    0.40000000000000    0.37500000000000             4
    0.36363636363637    0.40000000000000    0.37500000000000             4
    0.45454545454545    0.40000000000000    0.37500000000000             4
   -0.45454545454545    0.40000000000000    0.37500000000000             4
   -0.36363636363637    0.40000000000000    0.37500000000000             4
   -0.27272727272727    0.40000000000000    0.37500000000000             4
   -0.18181818181818    0.40000000000000    0.37500000000000             4
   -0.09090909090909    0.40000000000000    0.37500000000000             4
   -0.00000000000000    0.50000000000000    0.37500000000000             2
    0.09090909090909    0.50000000000000    0.37500000000000             4
    0.18181818181818    0.50000000000000    0.37500000000000             4
    0.27272727272727    0.50000000000000    0.37500000000000             4
    0.36363636363637    0.50000000000000    0.37500000000000             4
    0.45454545454545    0.50000000000000    0.37500000000000             4
    0.00000000000000    0.00000000000000    0.50000000000000             1
    0.09090909090909    0.00000000000000    0.50000000000000             2
    0.18181818181818    0.00000000000000    0.50000000000000             2
    0.27272727272727    0.00000000000000    0.50000000000000             2
    0.36363636363637    0.00000000000000    0.50000000000000             2
    0.45454545454545    0.00000000000000    0.50000000000000             2
   -0.00000000000000    0.10000000000000    0.50000000000000             2
    0.09090909090909    0.10000000000000    0.50000000000000             2
    0.18181818181818    0.10000000000000    0.50000000000000             2
    0.27272727272727    0.10000000000000    0.50000000000000             2
    0.36363636363637    0.10000000000000    0.50000000000000             2
    0.45454545454545    0.10000000000000    0.50000000000000             2
   -0.45454545454545    0.10000000000000    0.50000000000000             2
   -0.36363636363637    0.10000000000000    0.50000000000000             2
   -0.27272727272727    0.10000000000000    0.50000000000000             2
   -0.18181818181818    0.10000000000000    0.50000000000000             2
   -0.09090909090909    0.10000000000000    0.50000000000000             2
   -0.00000000000000    0.20000000000000    0.50000000000000             2
    0.09090909090909    0.20000000000000    0.50000000000000             2
    0.18181818181818    0.20000000000000    0.50000000000000             2
    0.27272727272727    0.20000000000000    0.50000000000000             2
    0.36363636363637    0.20000000000000    0.50000000000000             2
    0.45454545454545    0.20000000000000    0.50000000000000             2
   -0.45454545454545    0.20000000000000    0.50000000000000             2
   -0.36363636363637    0.20000000000000    0.50000000000000             2
   -0.27272727272727    0.20000000000000    0.50000000000000             2
   -0.18181818181818    0.20000000000000    0.50000000000000             2
   -0.09090909090909    0.20000000000000    0.50000000000000             2
   -0.00000000000000    0.30000000000000    0.50000000000000             2
    0.09090909090909    0.30000000000000    0.50000000000000             2
    0.18181818181818    0.30000000000000    0.50000000000000             2
    0.27272727272727    0.30000000000000    0.50000000000000             2
    0.36363636363637    0.30000000000000    0.50000000000000             2
    0.45454545454545    0.30000000000000    0.50000000000000             2
   -0.45454545454545    0.30000000000000    0.50000000000000             2
   -0.36363636363637    0.30000000000000    0.50000000000000             2
   -0.27272727272727    0.30000000000000    0.50000000000000             2
   -0.18181818181818    0.30000000000000    0.50000000000000             2
   -0.09090909090909    0.30000000000000    0.50000000000000             2
    0.00000000000000    0.40000000000000    0.50000000000000             2
    0.09090909090909    0.40000000000000    0.50000000000000             2
    0.18181818181818    0.40000000000000    0.50000000000000             2
    0.27272727272727    0.40000000000000    0.50000000000000             2
    0.36363636363637    0.40000000000000    0.50000000000000             2
    0.45454545454545    0.40000000000000    0.50000000000000             2
   -0.45454545454545    0.40000000000000    0.50000000000000             2
   -0.36363636363637    0.40000000000000    0.50000000000000             2
   -0.27272727272727    0.40000000000000    0.50000000000000             2
   -0.18181818181818    0.40000000000000    0.50000000000000             2
   -0.09090909090909    0.40000000000000    0.50000000000000             2
   -0.00000000000000    0.50000000000000    0.50000000000000             1
    0.09090909090909    0.50000000000000    0.50000000000000             2
    0.18181818181818    0.50000000000000    0.50000000000000             2
    0.27272727272727    0.50000000000000    0.50000000000000             2
    0.36363636363637    0.50000000000000    0.50000000000000             2
    0.45454545454545    0.50000000000000    0.50000000000000             2
Tetrahedra
      2640    0.00018939393939
         2         1         2         7        58
         2         2         7         8        58
         2         7         8        58        64
         2         1         7        57        58
         2         7        57        58        63
         2         7        58        63        64
         2         2         3         8        59
         2         3         8         9        59
         2         8         9        59        65
         2         2         8        58        59
         2         8        58        59        64
         2         8        59        64        65
         2         3         4         9        60
         2         4         9        10        60
         2         9        10        60        66
         2         3         9        59        60
         2         9        59        60        65
         2         9        60        65        66
         2         4         5        10        61
         2         5        10        11        61
         2        10        11        61        67
         2         4        10        60        61
         2        10        60        61        66
         2        10        61        66        67
         2         5         6        11        62
         2         6        11        12        62
         2        11        12        62        68
         2         5        11        61        62
         2        11        61        62        67
         2        11        62        67        68
         2         6         6        12        62
         2         6        12        13        62
         2        12        13        62        69
         2         6        12        62        62
         2        12        62        62        68
         2        12        62        68        69
         2         5         6        13        61
         2         5        13        14        61
         2        13        14        61        70
         2         6        13        61        62
         2        13        61        62        69
         2        13        61        69        70
         2         4         5        14        60
         2         4        14        15        60
         2        14        15        60        71
         2         5        14        60        61
         2        14        60        61        70
         2        14        60        70        71
         2         3         4        15        59
         2         3        15        16        59
         2        15        16        59        72
         2         4        15        59        60
         2        15        59        60        71
         2        15        59        71        72
         2         2         3        16        58
         2         2        16        17        58
         2        16        17        58        73
         2         3        16        58        59
         2        16        58        59        72
         2        16        58        72        73
         2         1         2        17        57
         2         1         7        17        57
         2         7        17        57        63
         2         2        17        57        58
         2        17        57        58        73
         2        17        57        63        73
         2         7         8        18        64
         2         8        18        19        64
         2        18        19        64        75
         2         7        18        63        64
         2        18        63        64        74
         2        18        64        74        75
         2         8         9        19        65
         2         9        19        20        65
         2        19        20        65        76
         2         8        19        64        65
         2        19        64        65        75
         2        19        65        75        76
         2         9        10        20        66
         2        10        20        21        66
         2        20        21        66        77
         2         9        20        65        66
         2        20        65        66        76
         2        20        66        76        77
         2        10        11        21        67
         2        11        21        22        67
         2        21        22        67        78
         2        10        21        66        67
         2        21        66        67        77
         2        21        67        77        78
         2        11        12        22        68
         2        12        22        23        68
         2        22        23        68        79
         2        11        22        67        68
         2        22        67        68        78
         2        22        68        78        79
         2        12        13        23        69
         2        13        23        24        69
         2        23        24        69        80
         2        12        23        68        69
         2        23        68        69        79
         2        23        69        79        80
         2        13        14        24        70
         2        14        24        25        70
         2        24        25        70        81
         2        13        24        69        70
         2        24        69        70        80
         2        24        70        80        81
         2        14        15        25        71
         2        15        25        26        71
         2        25        26        71        82
         2        14        25        70        71
         2        25        70        71        81
         2        25        71        81        82
         2        15        16        26        72
         2        16        26        27        72
         2        26        27        72        83
         2        15        26        71        72
         2        26        71        72        82
         2        26        72        82        83
         2        16        17        27        73
         2        17        27        28        73
         2        27        28        73        84
         2        16        27        72        73
         2        27        72        73        83
         2        27        73        83        84
         2         7        17        28        63
         2         7        18        28        63
         2        18        28        63        74
         2        17        28        63        73
         2        28        63        73        84
         2        28        63        74        84
         2        18        19        29        75
         2        19        29        30        75
         2        29        30        75        86
         2        18        29        74        75
         2        29        74        75        85
         2        29        75        85        86
         2        19        20        30        76
         2        20        30        31        76
         2        30        31        76        87
         2        19        30        75        76
         2        30        75        76        86
         2        30        76        86        87
         2        20        21        31        77
         2        21        31        32        77
         2        31        32        77        88
         2        20        31        76        77
         2        31        76        77        87
         2        31        77        87        88
         2        21        22        32        78
         2        22        32        33        78
         2        32        33        78        89
         2        21        32        77        78
         2        32        77        78        88
         2        32        78        88        89
         2        22        23        33        79
         2        23        33        34        79
         2        33        34        79        90
         2        22        33        78        79
         2        33        78        79        89
         2        33        79        89        90
         2        23        24        34        80
         2        24        34        35        80
         2        34        35        80        91
         2        23        34        79        80
         2        34        79        80        90
         2        34        80        90        91
         2        24        25        35        81
         2        25        35        36        81
         2        35        36        81        92
         2        24        35        80        81
         2        35        80        81        91
         2        35        81        91        92