    6    6    1    2
  0.1402345E+02  0.4977407E-09  0.4977407E-09  0.4977407E-09  0.5000000E-15
  1.000000000000000E-004
  CAR 
 unknown system                          
     32    290     24
 
  0.0000000E+00  0.0000000E+00  0.0000000E+00  0.1736111E-02
    1      -19.958022    -19.957933   1.000000   1.000000
    2      -17.946647    -17.946489   1.000000   1.000000
    3      -14.297126    -14.297146   1.000000   1.000000
    4      -12.869002    -12.869074   1.000000   1.000000
    5      -11.845979    -11.845998   1.000000   1.000000
    6       -7.011692     -7.011674   1.000000   1.000000
    7       -5.917814     -5.917873   1.000000   1.000000
    8       -5.871849     -5.871871   1.000000   1.000000
    9       -2.909940     -2.909804   1.000000   1.000000
   10       -2.183424     -2.183313   1.000000   1.000000
   11       -1.198242     -1.198086   1.000000   1.000000
   12       -1.187045     -1.186931   1.000000   1.000000
   13       -0.265497     -0.265557   1.000000   1.000000
   14        0.111688      0.111646   1.000000   1.000000
   15        0.708797      0.708772   1.000000   1.000000
   16        1.403901      1.403914   1.000000   1.000000
   17        5.901475      5.901519   0.000003   0.000002
   18        6.750213      6.750218   0.000000   0.000000
   19        7.718660      7.718682   0.000000   0.000000
   20        9.376463      9.376422   0.000000   0.000000
   21        9.395645      9.395828   0.000000   0.000000
   22       10.716625     10.716585   0.000000   0.000000
   23       12.336426     12.352495   0.000000   0.000000
   24       12.710380     12.710989   0.000000   0.000000
 
  0.1250000E+00 -0.3221242E-17 -0.3717652E-17  0.3472222E-02
    1      -19.936178    -19.936089   1.000000   1.000000
    2      -17.950256    -17.950098   1.000000   1.000000
    3      -14.360872    -14.360895   1.000000   1.000000
    4      -13.182221    -13.182283   1.000000   1.000000
    5      -11.401124    -11.401152   1.000000   1.000000
    6       -6.984184     -6.984166   1.000000   1.000000
    7       -5.974510     -5.974561   1.000000   1.000000
    8       -5.841869     -5.841899   1.000000   1.000000
    9       -2.882292     -2.882158   1.000000   1.000000
   10       -2.212251     -2.212141   1.000000   1.000000
   11       -1.397835     -1.397725   1.000000   1.000000
   12       -1.153443     -1.153295   1.000000   1.000000
   13       -0.204428     -0.204471   1.000000   1.000000
   14        0.041892      0.041853   1.000000   1.000000
   15        0.670587      0.670564   1.000000   1.000000
   16        1.401159      1.401167   1.000000   1.000000
   17        6.066670      6.066707  -0.000000  -0.000000
   18        6.794347      6.794349   0.000000   0.000000
   19        7.673231      7.673264   0.000000   0.000000
   20        9.321171      9.321146   0.000000   0.000000
   21        9.594793      9.594955   0.000000   0.000000
   22       10.579982     10.579957   0.000000   0.000000
   23       12.343514     12.351068   0.000000   0.000000
   24       12.670093     12.669921   0.000000   0.000000
 
  0.2500000E+00 -0.6442483E-17 -0.7435304E-17  0.3472222E-02
    1      -19.881802    -19.881710   1.000000   1.000000
    2      -17.959398    -17.959240   1.000000   1.000000
    3      -14.549984    -14.550018   1.000000   1.000000
    4      -13.541048    -13.541099   1.000000   1.000000
    5      -10.666347    -10.666379   1.000000   1.000000
    6       -6.915199     -6.915180   1.000000   1.000000
    7       -6.150551     -6.150598   1.000000   1.000000
    8       -5.745056     -5.745089   1.000000   1.000000
    9       -2.811380     -2.811247   1.000000   1.000000
   10       -2.341335     -2.341226   1.000000   1.000000
   11       -1.755654     -1.755555   1.000000   1.000000
   12       -1.082126     -1.081980   1.000000   1.000000
   13       -0.170513     -0.170533   1.000000   1.000000
   14       -0.059836     -0.059869   1.000000   1.000000
   15        0.598864      0.598834   1.000000   1.000000
   16        1.362336      1.362337   1.000000   1.000000
   17        6.399658      6.399680   0.000000   0.000000
   18        6.787582      6.787584   0.000000   0.000000
   19        7.971402      7.971435   0.000000   0.000000
   20        9.157356      9.157366   0.000000   0.000000
   21        9.789717      9.789742   0.000000   0.000000
   22       10.533817     10.533976   0.000000   0.000000
   23       11.953349     11.953808   0.000000   0.000000
   24       12.345498     12.350235   0.000000   0.000000
 
  0.3750000E+00  0.2807066E-16 -0.3150879E-18  0.3472222E-02
    1      -19.824597    -19.824502   1.000000   1.000000
    2      -17.969226    -17.969068   1.000000   1.000000
    3      -14.771095    -14.771140   1.000000   1.000000
    4      -13.714403    -13.714446   1.000000   1.000000
    5      -10.039041    -10.039074   1.000000   1.000000
    6       -6.846563     -6.846546   1.000000   1.000000
    7       -6.354269     -6.354312   1.000000   1.000000
    8       -5.652140     -5.652175   1.000000   1.000000
    9       -2.740740     -2.740607   1.000000   1.000000
   10       -2.597459     -2.597348   1.000000   1.000000
   11       -1.947275     -1.947179   1.000000   1.000000
   12       -0.952184     -0.952033   1.000000   1.000000
   13       -0.347728     -0.347743   1.000000   1.000000
   14       -0.109364     -0.109388   1.000000   1.000000
   15        0.659076      0.659034   1.000000   1.000000
   16        1.241142      1.241143   1.000000   1.000000
   17        6.621855      6.621867   0.000000   0.000000
   18        6.891958      6.891964   0.000000   0.000000
   19        8.443985      8.443977   0.000000   0.000000
   20        9.104290      9.104338   0.000000   0.000000
   21        9.692877      9.692829   0.000000   0.000000
   22       10.711883     10.712082   0.000000   0.000000
   23       11.527140     11.526431   0.000000   0.000000
   24       11.850470     11.846582   0.000000   0.000000
 
  0.5000000E+00 -0.1288497E-16 -0.1487061E-16  0.1736111E-02
    1      -19.799897    -19.799800   1.000000   1.000000
    2      -17.973421    -17.973263   1.000000   1.000000
    3      -14.866040    -14.866089   1.000000   1.000000
    4      -13.761450    -13.761490   1.000000   1.000000
    5       -9.780041     -9.780074   1.000000   1.000000
    6       -6.822822     -6.822811   1.000000   1.000000
    7       -6.448640     -6.448677   1.000000   1.000000
    8       -5.615524     -5.615559   1.000000   1.000000
    9       -2.786540     -2.786423   1.000000   1.000000
   10       -2.655170     -2.655038   1.000000   1.000000
   11       -1.990821     -1.990728   1.000000   1.000000
   12       -0.825593     -0.825397   1.000000   1.000000
   13       -0.527327     -0.527388   1.000000   1.000000
   14       -0.125549     -0.125570   1.000000   1.000000
   15        0.753101      0.753050   1.000000   1.000000
   16        1.135612      1.135620   1.000000   1.000000
   17        6.800237      6.800253   0.000000   0.000000
   18        6.876346      6.876348   0.000000   0.000000
   19        8.477608      8.477581   0.000000   0.000000
   20        9.482330      9.482375   0.000000   0.000000
   21        9.596623      9.596589   0.000000   0.000000
   22       10.441449     10.441601   0.000000   0.000000
   23       11.502910     11.502838   0.000000   0.000000
   24       11.774974     11.773922   0.000000   0.000000
 
  0.3134968E-17  0.1250000E+00 -0.1629578E-16  0.3472222E-02
    1      -19.895568    -19.895478   1.000000   1.000000
    2      -18.038322    -18.038168   1.000000   1.000000
    3      -14.409060    -14.409080   1.000000   1.000000
    4      -12.880272    -12.880344   1.000000   1.000000
    5      -11.611375    -11.611391   1.000000   1.000000
    6       -7.048659     -7.048641   1.000000   1.000000
    7       -5.986977     -5.987016   1.000000   1.000000
    8       -5.756302     -5.756344   1.000000   1.000000
    9       -2.937197     -2.937067   1.000000   1.000000
   10       -2.196264     -2.196152   1.000000   1.000000
   11       -1.307322     -1.307182   1.000000   1.000000
   12       -1.184385     -1.184256   1.000000   1.000000
   13       -0.223792     -0.223852   1.000000   1.000000
   14        0.031161      0.031124   1.000000   1.000000
   15        0.616654      0.616643   1.000000   1.000000
   16        1.406625      1.406633   1.000000   1.000000
   17        6.135780      6.135812  -0.000000  -0.000000
   18        6.892102      6.892107   0.000000   0.000000
   19        7.791788      7.791807   0.000000   0.000000
   20        9.176120      9.176157   0.000000   0.000000
   21        9.516194      9.516269   0.000000   0.000000
   22       10.799140     10.799097   0.000000   0.000000
   23       11.951581     11.952299   0.000000   0.000000
   24       12.832864     12.846447   0.000000   0.000000
 
  0.1250000E+00  0.1250000E+00 -0.4646935E-16  0.3472222E-02
    1      -19.857452    -19.857361   1.000000   1.000000
    2      -18.048257    -18.048104   1.000000   1.000000
    3      -14.581365    -14.581389   1.000000   1.000000
    4      -13.118547    -13.118610   1.000000   1.000000
    5      -11.083485    -11.083508   1.000000   1.000000
    6       -7.028563     -7.028546   1.000000   1.000000
    7       -6.031242     -6.031272   1.000000   1.000000
    8       -5.742494     -5.742543   1.000000   1.000000
    9       -2.879375     -2.879245   1.000000   1.000000
   10       -2.286964     -2.286854   1.000000   1.000000
   11       -1.512754     -1.512638   1.000000   1.000000
   12       -1.177297     -1.177160   1.000000   1.000000
   13       -0.199493     -0.199528   1.000000   1.000000
   14       -0.041273     -0.041307   1.000000   1.000000
   15        0.523676      0.523664   1.000000   1.000000
   16        1.430819      1.430817   1.000000   1.000000
   17        6.351961      6.351984  -0.000000  -0.000000
   18        6.987895      6.987898   0.000000   0.000000
   19        7.868244      7.868270   0.000000   0.000000
   20        9.251670      9.251653   0.000000   0.000000
   21        9.570865      9.570957   0.000000   0.000000
   22       10.568345     10.568332   0.000000   0.000000
   23       11.893111     11.896079   0.000000   0.000000
   24       12.742944     12.725554   0.000000   0.000000
 
  0.2500000E+00  0.1250000E+00 -0.3326930E-16  0.3472222E-02
    1      -19.797962    -19.797867   1.000000   1.000000
    2      -18.063566    -18.063413   1.000000   1.000000
    3      -14.763460    -14.763494   1.000000   1.000000
    4      -13.432925    -13.432979   1.000000   1.000000
    5      -10.359350    -10.359378   1.000000   1.000000
    6       -7.047169     -7.047157   1.000000   1.000000
    7       -6.137478     -6.137505   1.000000   1.000000
    8       -5.659243     -5.659289   1.000000   1.000000
    9       -2.806550     -2.806420   1.000000   1.000000
   10       -2.475938     -2.475831   1.000000   1.000000
   11       -1.817963     -1.817860   1.000000   1.000000
   12       -1.089827     -1.089689   1.000000   1.000000
   13       -0.227494     -0.227496   1.000000   1.000000
   14       -0.097866     -0.097896   1.000000   1.000000
   15        0.460983      0.460956   1.000000   1.000000
   16        1.407612      1.407602   1.000000   1.000000
   17        6.589348      6.589361   0.000000   0.000000
   18        7.052711      7.052711   0.000000   0.000000
   19        8.191326      8.191346   0.000000   0.000000
   20        9.210818      9.210838   0.000000   0.000000
   21        9.607927      9.607905   0.000000   0.000000
   22       10.572180     10.572354   0.000000   0.000000
   23       11.594907     11.594797   0.000000   0.000000
   24       12.345562     12.340059   0.000000   0.000000
 
  0.3750000E+00  0.1250000E+00 -0.9813734E-16  0.3472222E-02
    1      -19.751534    -19.751436   1.000000   1.000000
    2      -18.075483    -18.075331   1.000000   1.000000
    3      -14.861084    -14.861126   1.000000   1.000000
    4      -13.657120    -13.657165   1.000000   1.000000
    5       -9.800584     -9.800614   1.000000   1.000000
    6       -7.135918     -7.135917   1.000000   1.000000
    7       -6.213589     -6.213611   1.000000   1.000000
    8       -5.573959     -5.573999   1.000000   1.000000
    9       -2.802190     -2.802073   1.000000   1.000000
   10       -2.645689     -2.645566   1.000000   1.000000
   11       -1.981193     -1.981095   1.000000   1.000000
   12       -0.922126     -0.921963   1.000000   1.000000
   13       -0.400938     -0.400955   1.000000   1.000000
   14       -0.139193     -0.139216   1.000000   1.000000
   15        0.583993      0.583959   1.000000   1.000000
   16        1.278922      1.278910   1.000000   1.000000
   17        6.790805      6.790813   0.000000   0.000000
   18        7.012387      7.012388   0.000000   0.000000
   19        8.409281      8.409264   0.000000   0.000000
   20        9.390085      9.390105   0.000000   0.000000
   21        9.592385      9.592359   0.000000   0.000000
   22       10.649330     10.649516   0.000000   0.000000
   23       11.409901     11.409860   0.000000   0.000000
   24       11.934718     11.930399   0.000000   0.000000
 
  0.5000000E+00  0.1250000E+00 -0.1074942E-15  0.3472222E-02
    1      -19.748344    -19.748246   1.000000   1.000000
    2      -18.075668    -18.075517   1.000000   1.000000
    3      -14.791485    -14.791531   1.000000   1.000000
    4      -13.793621    -13.793661   1.000000   1.000000
    5       -9.687124     -9.687155   1.000000   1.000000
    6       -7.176139     -7.176142   1.000000   1.000000
    7       -6.220608     -6.220633   1.000000   1.000000
    8       -5.544371     -5.544406   1.000000   1.000000
    9       -2.793503     -2.793389   1.000000   1.000000
   10       -2.695095     -2.694972   1.000000   1.000000
   11       -2.017666     -2.017569   1.000000   1.000000
   12       -0.874300     -0.874112   1.000000   1.000000
   13       -0.429911     -0.429950   1.000000   1.000000
   14       -0.124895     -0.124919   1.000000   1.000000
   15        0.771333      0.771292   1.000000   1.000000
   16        1.117312      1.117308   1.000000   1.000000
   17        6.679702      6.679708   0.000000   0.000000
   18        7.007647      7.007650   0.000000   0.000000
   19        8.416493      8.416476   0.000000   0.000000
   20        9.589332      9.589300   0.000000   0.000000
   21        9.710443      9.710456   0.000000   0.000000
   22       10.470279     10.470476   0.000000   0.000000
   23       11.478106     11.478333   0.000000   0.000000
   24       11.827068     11.815925   0.000000   0.000000
 
 -0.3750000E+00  0.1250000E+00  0.3259156E-16  0.3472222E-02
    1      -19.790575    -19.790479   1.000000   1.000000
    2      -18.064058    -18.063905   1.000000   1.000000
    3      -14.550865    -14.550908   1.000000   1.000000
    4      -13.838213    -13.838253   1.000000   1.000000
    5      -10.082277    -10.082308   1.000000   1.000000
    6       -7.112175     -7.112170   1.000000   1.000000
    7       -6.161666     -6.161703   1.000000   1.000000
    8       -5.586800     -5.586830   1.000000   1.000000
    9       -2.825306     -2.825181   1.000000   1.000000
   10       -2.512518     -2.512413   1.000000   1.000000
   11       -1.955810     -1.955710   1.000000   1.000000
   12       -1.027936     -1.027775   1.000000   1.000000
   13       -0.235859     -0.235878   1.000000   1.000000
   14       -0.065684     -0.065707   1.000000   1.000000
   15        0.765386      0.765349   1.000000   1.000000
   16        1.181261      1.181260   1.000000   1.000000
   17        6.419291      6.419303   0.000000   0.000000
   18        6.916081      6.916083   0.000000   0.000000
   19        8.418226      8.418229   0.000000   0.000000
   20        9.134376      9.134411   0.000000   0.000000
   21        9.879072      9.879014   0.000000   0.000000
   22       10.767974     10.768012   0.000000   0.000000
   23       11.407923     11.406898   0.000000   0.000000
   24       11.856682     11.862502   0.000000   0.000000
 
 -0.2500000E+00  0.1250000E+00  0.1065655E-16  0.3472222E-02
    1      -19.850315    -19.850222   1.000000   1.000000
    2      -18.048739    -18.048585   1.000000   1.000000
    3      -14.316758    -14.316786   1.000000   1.000000
    4      -13.667090    -13.667142   1.000000   1.000000
    5      -10.737060    -10.737091   1.000000   1.000000
    6       -7.070936     -7.070924   1.000000   1.000000
    7       -6.055640     -6.055688   1.000000   1.000000
    8       -5.673944     -5.673972   1.000000   1.000000
    9       -2.910166     -2.910042   1.000000   1.000000
   10       -2.244497     -2.244386   1.000000   1.000000
   11       -1.730385     -1.730287   1.000000   1.000000
   12       -1.155522     -1.155365   1.000000   1.000000
   13       -0.138627     -0.138654   1.000000   1.000000
   14       -0.010271     -0.010302   1.000000   1.000000
   15        0.720552      0.720528   1.000000   1.000000
   16        1.313948      1.313951   1.000000   1.000000
   17        6.305960      6.305983   0.000000   0.000000
   18        6.738689      6.738690   0.000000   0.000000
   19        7.990063      7.990094   0.000000   0.000000
   20        9.160629      9.160621   0.000000   0.000000
   21        9.916392      9.916489   0.000000   0.000000
   22       10.561228     10.561226   0.000000   0.000000
   23       11.816779     11.836302   0.000000   0.000000
   24       12.211059     12.216465   0.000000   0.000000
 
 -0.1250000E+00  0.1250000E+00  0.6933470E-17  0.3472222E-02
    1      -19.892691    -19.892602   1.000000   1.000000
    2      -18.038560    -18.038406   1.000000   1.000000
    3      -14.301735    -14.301756   1.000000   1.000000
    4      -13.193190    -13.193252   1.000000   1.000000
    5      -11.384072    -11.384098   1.000000   1.000000
    6       -7.062987     -7.062971   1.000000   1.000000
    7       -5.989109     -5.989158   1.000000   1.000000
    8       -5.736134     -5.736166   1.000000   1.000000
    9       -2.950213     -2.950085   1.000000   1.000000
   10       -2.172288     -2.172175   1.000000   1.000000
   11       -1.372334     -1.372230   1.000000   1.000000
   12       -1.229408     -1.229252   1.000000   1.000000
   13       -0.171811     -0.171854   1.000000   1.000000
   14        0.038367      0.038325   1.000000   1.000000
   15        0.684588      0.684572   1.000000   1.000000
   16        1.377207      1.377216   1.000000   1.000000
   17        6.138194      6.138225   0.000000   0.000000
   18        6.816236      6.816237   0.000000   0.000000
   19        7.727276      7.727308   0.000000   0.000000
   20        9.242027      9.242011   0.000000   0.000000
   21        9.611085      9.611224   0.000000   0.000000
   22       10.735363     10.735342   0.000000   0.000000
   23       11.942161     11.940835   0.000000   0.000000
   24       12.744325     12.736779   0.000000   0.000000
 
  0.6269936E-17  0.2500000E+00 -0.3259156E-16  0.3472222E-02
    1      -19.713727    -19.713633   1.000000   1.000000
    2      -18.291454    -18.291310   1.000000   1.000000
    3      -14.620046    -14.620066   1.000000   1.000000
    4      -12.910091    -12.910163   1.000000   1.000000
    5      -11.071541    -11.071552   1.000000   1.000000
    6       -7.184177     -7.184160   1.000000   1.000000
    7       -5.988267     -5.988297   1.000000   1.000000
    8       -5.617817     -5.617865   1.000000   1.000000
    9       -3.001602     -3.001485   1.000000   1.000000
   10       -2.249520     -2.249412   1.000000   1.000000
   11       -1.451503     -1.451366   1.000000   1.000000
   12       -1.354611     -1.354484   1.000000   1.000000
   13       -0.254505     -0.254526   1.000000   1.000000
   14        0.013835      0.013788   1.000000   1.000000
   15        0.499717      0.499718   1.000000   1.000000
   16        1.397068      1.397062   1.000000   1.000000
   17        6.551285      6.551293   0.000000   0.000000
   18        7.251061      7.251060   0.000000   0.000000
   19        8.062066      8.062075   0.000000   0.000000
   20        9.106573      9.106558   0.000000   0.000000
   21        9.606182      9.606282   0.000000   0.000000
   22       10.602401     10.602345   0.000000   0.000000
   23       11.649151     11.649220   0.000000   0.000000
   24       12.386637     12.379753   0.000000   0.000000
 
  0.1250000E+00  0.2500000E+00 -0.3066998E-16  0.3472222E-02
    1      -19.664924    -19.664828   1.000000   1.000000
    2      -18.314946    -18.314804   1.000000   1.000000
    3      -14.767337    -14.767361   1.000000   1.000000
    4      -13.092316    -13.092381   1.000000   1.000000
    5      -10.578549    -10.578565   1.000000   1.000000
    6       -7.246181     -7.246167   1.000000   1.000000
    7       -5.999153     -5.999174   1.000000   1.000000
    8       -5.592596     -5.592649   1.000000   1.000000
    9       -2.944057     -2.943940   1.000000   1.000000
   10       -2.387495     -2.387392   1.000000   1.000000
   11       -1.639299     -1.639181   1.000000   1.000000
   12       -1.332483     -1.332345   1.000000   1.000000
   13       -0.283209     -0.283206   1.000000   1.000000
   14        0.016194      0.016151   1.000000   1.000000
   15        0.415993      0.415988   1.000000   1.000000
   16        1.434820      1.434801   1.000000   1.000000
   17        6.659114      6.659123   0.000000   0.000000
   18        7.344201      7.344197   0.000000   0.000000
   19        8.301070      8.301077   0.000000   0.000000
   20        9.115540      9.115496   0.000000   0.000000
   21        9.697153      9.697242   0.000000   0.000000
   22       10.352340     10.352368   0.000000   0.000000
   23       11.663299     11.662907   0.000000   0.000000
   24       12.336635     12.333792   0.000000   0.000000
 
  0.2500000E+00  0.2500000E+00 -0.9293870E-16  0.3472222E-02
    1      -19.608294    -19.608193   1.000000   1.000000
    2      -18.340539    -18.340400   1.000000   1.000000
    3      -14.850067    -14.850096   1.000000   1.000000
    4      -13.391801    -13.391857   1.000000   1.000000
    5       -9.916141     -9.916162   1.000000   1.000000
    6       -7.450201     -7.450197   1.000000   1.000000
    7       -5.995279     -5.995295   1.000000   1.000000
    8       -5.517871     -5.517919   1.000000   1.000000
    9       -2.935438     -2.935327   1.000000   1.000000
   10       -2.534829     -2.534721   1.000000   1.000000
   11       -1.889330     -1.889221   1.000000   1.000000
   12       -1.168846     -1.168693   1.000000   1.000000
   13       -0.254719     -0.254701   1.000000   1.000000
   14       -0.104711     -0.104747   1.000000   1.000000
   15        0.396736      0.396716   1.000000   1.000000
   16        1.431295      1.431266   1.000000   1.000000
   17        6.757961      6.757970   0.000000   0.000000
   18        7.389638      7.389625   0.000000   0.000000
   19        8.396941      8.396936   0.000000   0.000000
   20        9.223270      9.223214   0.000000   0.000000
   21        9.609609      9.609689   0.000000   0.000000
   22       10.686181     10.686273   0.000000   0.000000
   23       11.497374     11.497409   0.000000   0.000000
   24       12.226173     12.225050   0.000000   0.000000
 
  0.3750000E+00  0.2500000E+00 -0.1074942E-15  0.3472222E-02
    1      -19.578771    -19.578669   1.000000   1.000000
    2      -18.352097    -18.351959   1.000000   1.000000
    3      -14.809825    -14.809861   1.000000   1.000000
    4      -13.662962    -13.663009   1.000000   1.000000
    5       -9.416720     -9.416744   1.000000   1.000000
    6       -7.708535     -7.708540   1.000000   1.000000
    7       -5.968417     -5.968434   1.000000   1.000000
    8       -5.447354     -5.447395   1.000000   1.000000
    9       -2.938521     -2.938420   1.000000   1.000000
   10       -2.641456     -2.641338   1.000000   1.000000
   11       -2.043941     -2.043836   1.000000   1.000000
   12       -1.011935     -1.011756   1.000000   1.000000
   13       -0.347797     -0.347823   1.000000   1.000000
   14       -0.107537     -0.107542   1.000000   1.000000
   15        0.551802      0.551780   1.000000   1.000000
   16        1.306039      1.306006   1.000000   1.000000
   17        6.879649      6.879650   0.000000   0.000000
   18        7.180901      7.180890   0.000000   0.000000
   19        8.369705      8.369694   0.000000   0.000000
   20        9.259165      9.259109   0.000000   0.000000
   21       10.009266     10.009354   0.000000   0.000000
   22       10.809982     10.810030   0.000000   0.000000
   23       11.350103     11.350121   0.000000   0.000000
   24       12.048354     12.035399   0.000000   0.000000
 
  0.5000000E+00  0.2500000E+00 -0.6653859E-16  0.3472222E-02
    1      -19.596689    -19.596587   1.000000   1.000000
    2      -18.340693    -18.340554   1.000000   1.000000
    3      -14.609414    -14.609454   1.000000   1.000000
    4      -13.876268    -13.876307   1.000000   1.000000
    5       -9.442912     -9.442937   1.000000   1.000000
    6       -7.720371     -7.720379   1.000000   1.000000
    7       -5.933642     -5.933665   1.000000   1.000000
    8       -5.429946     -5.429979   1.000000   1.000000
    9       -2.858380     -2.858277   1.000000   1.000000
   10       -2.722761     -2.722651   1.000000   1.000000
   11       -2.067480     -2.067372   1.000000   1.000000
   12       -1.078463     -1.078301   1.000000   1.000000
   13       -0.286639     -0.286659   1.000000   1.000000
   14       -0.027488     -0.027483   1.000000   1.000000
   15        0.799504      0.799481   1.000000   1.000000
   16        1.124170      1.124142   1.000000   1.000000
   17        6.599218      6.599218   0.000000   0.000000
   18        7.209199      7.209188   0.000000   0.000000
   19        8.310973      8.310965   0.000000   0.000000
   20        9.527905      9.527868   0.000000   0.000000
   21       10.078037     10.078042   0.000000   0.000000
   22       10.732653     10.732691   0.000000   0.000000
   23       11.148791     11.148751   0.000000   0.000000
   24       11.825041     11.797980   0.000000   0.000000
 
 -0.3750000E+00  0.2500000E+00  0.2323468E-16  0.3472222E-02
    1      -19.649234    -19.649136   1.000000   1.000000
    2      -18.314817    -18.314676   1.000000   1.000000
    3      -14.307686    -14.307722   1.000000   1.000000
    4      -13.979550    -13.979590   1.000000   1.000000
    5       -9.938965     -9.938991   1.000000   1.000000
    6       -7.513777     -7.513780   1.000000   1.000000
    7       -5.905866     -5.905899   1.000000   1.000000
    8       -5.479732     -5.479762   1.000000   1.000000
    9       -2.971995     -2.971886   1.000000   1.000000
   10       -2.439339     -2.439235   1.000000   1.000000
   11       -1.994639     -1.994532   1.000000   1.000000
   12       -1.219043     -1.218890   1.000000   1.000000
   13       -0.228131     -0.228160   1.000000   1.000000
   14        0.077280      0.077294   1.000000   1.000000
   15        0.823217      0.823190   1.000000   1.000000
   16        1.184852      1.184840   1.000000   1.000000
   17        6.394108      6.394117   0.000000   0.000000
   18        7.057752      7.057740   0.000000   0.000000
   19        8.447837      8.447834   0.000000   0.000000
   20        9.281570      9.281579   0.000000   0.000000
   21       10.068730     10.068693   0.000000   0.000000
   22       10.741425     10.741748   0.000000   0.000000
   23       11.073612     11.073524   0.000000   0.000000
   24       11.661538     11.661115   0.000000   0.000000
 
 -0.2500000E+00  0.2500000E+00  0.1386694E-16  0.3472222E-02
    1      -19.703086    -19.702992   1.000000   1.000000
    2      -18.291246    -18.291102   1.000000   1.000000
    3      -14.309986    -14.310010   1.000000   1.000000
    4      -13.631962    -13.632015   1.000000   1.000000
    5      -10.547125    -10.547150   1.000000   1.000000
    6       -7.335896     -7.335891   1.000000   1.000000
    7       -5.906929     -5.906969   1.000000   1.000000
    8       -5.556901     -5.556931   1.000000   1.000000
    9       -3.048905     -3.048793   1.000000   1.000000
   10       -2.199403     -2.199289   1.000000   1.000000
   11       -1.760580     -1.760482   1.000000   1.000000
   12       -1.316688     -1.316533   1.000000   1.000000
   13       -0.175484     -0.175525   1.000000   1.000000
   14        0.052533      0.052534   1.000000   1.000000
   15        0.706061      0.706048   1.000000   1.000000
   16        1.327236      1.327230   1.000000   1.000000
   17        6.442565      6.442577   0.000000   0.000000
   18        6.893569      6.893564   0.000000   0.000000
   19        8.253057      8.253072   0.000000   0.000000
   20        9.188572      9.188554   0.000000   0.000000
   21        9.866134      9.866223   0.000000   0.000000
   22       10.735859     10.735832   0.000000   0.000000
   23       11.189735     11.189661   0.000000   0.000000
   24       12.158291     12.145410   0.000000   0.000000
 
 -0.1250000E+00  0.2500000E+00  0.3227648E-16  0.3472222E-02
    1      -19.728859    -19.728766   1.000000   1.000000
    2      -18.282105    -18.281961   1.000000   1.000000
    3      -14.457198    -14.457219   1.000000   1.000000
    4      -13.133988    -13.134052   1.000000   1.000000
    5      -11.028496    -11.028514   1.000000   1.000000
    6       -7.226091     -7.226077   1.000000   1.000000
    7       -5.951557     -5.951596   1.000000   1.000000
    8       -5.601916     -5.601954   1.000000   1.000000
    9       -3.050303     -3.050187   1.000000   1.000000
   10       -2.178010     -2.177896   1.000000   1.000000
   11       -1.489981     -1.489870   1.000000   1.000000