       N       E                     dE             d eps       ncg     rms          rms(c)
DAV:   1     0.175314002284E+03    0.17531E+03   -0.16170E+04 27840   0.119E+03
DAV:   2    -0.377581938332E+02   -0.21307E+03   -0.20477E+03 38456   0.278E+02
DAV:   3    -0.493483945083E+02   -0.11590E+02   -0.11526E+02 37072   0.682E+01
DAV:   4    -0.494847934453E+02   -0.13640E+00   -0.13633E+00 33288   0.836E+00
DAV:   5    -0.494872276366E+02   -0.24342E-02   -0.24334E-02 37008   0.106E+00    0.254E+01
RMM:   6    -0.437410133468E+02    0.57462E+01   -0.16986E+01 28165   0.216E+01    0.101E+01
RMM:   7    -0.439478947272E+02   -0.20688E+00   -0.31079E+00 32715   0.106E+01    0.472E+00
RMM:   8    -0.439413918842E+02    0.65028E-02   -0.33036E-01 32134   0.384E+00    0.276E+00
RMM:   9    -0.439404229138E+02    0.96897E-03   -0.83309E-02 32673   0.203E+00    0.675E-01
RMM:  10    -0.439412156810E+02   -0.79277E-03   -0.22496E-02 35841   0.867E-01    0.224E-01
RMM:  11    -0.439420078873E+02   -0.79221E-03   -0.10816E-02 34956   0.574E-01    0.187E-01
RMM:  12    -0.439419660619E+02    0.41825E-04   -0.12838E-03 35175   0.232E-01    0.103E-01
RMM:  13    -0.439419486075E+02    0.17454E-04   -0.79597E-04 33632   0.184E-01    0.357E-02
RMM:  14    -0.439419478181E+02    0.78939E-06   -0.81176E-05 35426   0.663E-02
   1 F= -.43941948E+02 E0= -.43941948E+02  d E =0.000000E+00  mag=    -0.0002
