    1    1    1    2
  0.2152914E+02  0.3035402E-09  0.3035402E-09  0.3035402E-09  0.5000000E-15
  1.000000000000000E-004
  CAR 
 unknown system                          
      3     84      8
 
  0.0000000E+00  0.0000000E+00  0.0000000E+00  0.4551661E-03
    1      -46.174816    -46.171854   1.000000   1.000000
    2       -3.019555     -3.019091   1.000000   1.000000
    3       14.447842     14.447939   0.000000   0.000000
    4       14.447842     14.447939   0.000000   0.000000
    5       14.447950     14.447963   0.000000   0.000000
    6       19.097495     19.098278   0.000000   0.000000
    7       19.097495     19.098278   0.000000   0.000000
    8       19.097516     19.098346   0.000000   0.000000
 
  0.7692308E-01 -0.2017222E-17  0.2017222E-17  0.5461994E-02
    1      -46.173840    -46.170878   1.000000   1.000000
    2       -2.909723     -2.909264   1.000000   1.000000
    3       13.720418     13.720630   0.000000   0.000000
    4       13.933738     13.933882   0.000000   0.000000
    5       14.264368     14.264428   0.000000   0.000000
    6       17.685942     17.686089   0.000000   0.000000
    7       17.890469     17.891095   0.000000   0.000000
    8       19.212681     19.212559   0.000000   0.000000
 
  0.1538462E+00 -0.4232358E-18  0.4232358E-18  0.5461994E-02
    1      -46.171434    -46.168472   1.000000   1.000000
    2       -2.581090     -2.580650   1.000000   1.000000
    3       11.740481     11.740919   0.000000   0.000000
    4       12.943075     12.943303   0.000000   0.000000
    5       13.764351     13.764334   0.000000   0.000000
    6       16.492487     16.493077   0.000000   0.000000
    7       16.751902     16.752235   0.000000   0.000000
    8       18.924791     18.924797   0.000000   0.000000
 
  0.2307692E+00  0.9944333E-18 -0.9944333E-18  0.5461994E-02
    1      -46.168044    -46.165081   1.000000   1.000000
    2       -2.033920     -2.033507   1.000000   1.000000
    3        9.378822      9.379154   0.000000   0.000000
    4       11.986470     11.986742   0.000000   0.000000
    5       13.121130     13.121052   0.000000   0.000000
    6       15.350442     15.351021   0.000000   0.000000
    7       16.495429     16.496054   0.000000   0.000000
    8       19.229502     19.229597   0.000000   0.000000
 
  0.3076923E+00 -0.8464715E-18  0.8464715E-18  0.5461994E-02
    1      -46.164382    -46.161417   1.000000   1.000000
    2       -1.275953     -1.275582   1.000000   1.000000
    3        7.132172      7.132523   0.000000   0.000000
    4       11.221260     11.221556   0.000000   0.000000
    5       12.524204     12.524090   0.000000   0.000000
    6       14.489095     14.489668   0.000000   0.000000
    7       16.525720     16.526024   0.000000   0.000000
    8       19.964162     19.964320   0.000000   0.000000
 
  0.3846154E+00 -0.4581139E-17  0.4581139E-17  0.5461994E-02
    1      -46.161420    -46.158455   1.000000   1.000000
    2       -0.346810     -0.346503   1.048092   1.048139
    3        5.176085      5.176495   0.000000   0.000000
    4       10.696820     10.697128   0.000000   0.000000
    5       12.085499     12.085367   0.000000   0.000000
    6       13.913585     13.914156   0.000000   0.000000
    7       16.674012     16.674405   0.000000   0.000000
    8       20.978736     20.978955   0.000000   0.000000
 
  0.4615385E+00  0.3882630E-17 -0.3882630E-17  0.5461994E-02
    1      -46.159706    -46.156741   1.000000   1.000000
    2        0.543302      0.543512   0.363848   0.363431
    3        3.765574      3.766078   0.000000   0.000000
    4       10.431373     10.431687   0.000000   0.000000
    5       11.856443     11.856303   0.000000   0.000000
    6       13.625557     13.626127   0.000000   0.000000
    7       16.803921     16.804400   0.000000   0.000000
    8       21.970569     21.970872   0.000000   0.000000
 
  0.7692308E-01  0.7692308E-01  0.8072287E-15  0.1092399E-01
    1      -46.172222    -46.169259   1.000000   1.000000
    2       -2.690661     -2.690215   1.000000   1.000000
    3       12.769703     12.770142   0.000000   0.000000
    4       12.826177     12.826367   0.000000   0.000000
    5       13.689223     13.689290   0.000000   0.000000
    6       16.916682     16.916717   0.000000   0.000000
    7       17.176167     17.176675   0.000000   0.000000
    8       18.990857     18.991156   0.000000   0.000000
 
  0.1538462E+00  0.7692308E-01  0.7830315E-15  0.2184797E-01
    1      -46.169300    -46.166337   1.000000   1.000000
    2       -2.251981     -2.251558   1.000000   1.000000
    3       10.588167     10.588504   0.000000   0.000000
    4       11.806534     11.806884   0.000000   0.000000
    5       12.917637     12.917698   0.000000   0.000000
    6       16.542009     16.542419   0.000000   0.000000
    7       16.611638     16.611921   0.000000   0.000000
    8       19.093106     19.093465   0.000000   0.000000
 
  0.2307692E+00  0.7692308E-01  0.7833312E-15  0.2184797E-01
    1      -46.165806    -46.162841   1.000000   1.000000
    2       -1.596519     -1.596130   1.000000   1.000000
    3        8.263212      8.263524   0.000000   0.000000
    4       10.972569     10.972900   0.000000   0.000000
    5       12.173063     12.173122   0.000000   0.000000
    6       15.901526     15.902015   0.000000   0.000000
    7       16.584596     16.584839   0.000000   0.000000
    8       19.582212     19.582745   0.000000   0.000000
 
  0.3076923E+00  0.7692308E-01  0.8372484E-15  0.2184797E-01
    1      -46.162479    -46.159514   1.000000   1.000000
    2       -0.740783     -0.740444   1.007422   1.007435
    3        6.146675      6.147034   0.000000   0.000000
    4       10.352141     10.352479   0.000000   0.000000
    5       11.586118     11.586179   0.000000   0.000000
    6       15.338302     15.338739   0.000000   0.000000
    7       16.763352     16.763587   0.000000   0.000000
    8       20.399701     20.400183   0.000000   0.000000
 
  0.3846154E+00  0.7692308E-01  0.8097926E-15  0.2184797E-01
    1      -46.160127    -46.157160   1.000000   1.000000
    2        0.229881      0.230142   0.868585   0.868234
    3        4.402227      4.402659   0.000000   0.000000
    4        9.972245      9.972592   0.000000   0.000000
    5       11.218115     11.218177   0.000000   0.000000
    6       14.976571     14.976992   0.000000   0.000000
    7       16.980722     16.981060   0.000000   0.000000
    8       21.407562     21.407958   0.000000   0.000000
 
  0.4615385E+00  0.7692308E-01  0.6694207E-15  0.1092399E-01
    1      -46.159264    -46.156297   1.000000   1.000000
    2        0.826056      0.826236  -0.007123  -0.007214
    3        3.546036      3.546548   0.000000   0.000000
    4        9.844573      9.844924   0.000000   0.000000
    5       11.093306     11.093369   0.000000   0.000000
    6       14.853026     14.853443   0.000000   0.000000
    7       17.080347     17.080732   0.000000   0.000000
    8       22.169220     22.169732   0.000000   0.000000
 
  0.1538462E+00  0.1538462E+00  0.5107872E-14  0.1092399E-01
    1      -46.166291    -46.163327   1.000000   1.000000
    2       -1.703106     -1.702710   1.000000   1.000000
    3        9.205477      9.205676   0.000000   0.000000
    4       10.084166     10.084589   0.000000   0.000000
    5       12.125006     12.125135   0.000000   0.000000
    6       16.555207     16.555228   0.000000   0.000000
    7       16.982869     16.983644   0.000000   0.000000
    8       19.601362     19.601673   0.000000   0.000000
 
  0.2307692E+00  0.1538462E+00  0.5111607E-14  0.2184797E-01
    1      -46.163074    -46.160109   1.000000   1.000000
    2       -0.939527     -0.939171   1.003104   1.003109
    3        7.199491      7.199746   0.000000   0.000000
    4        9.162025      9.162445   0.000000   0.000000
    5       11.501353     11.501511   0.000000   0.000000
    6       16.593653     16.593902   0.000000   0.000000
    7       17.183477     17.183850   0.000000   0.000000
    8       20.276690     20.277337   0.000000   0.000000
 
  0.3076923E+00  0.1538462E+00  0.5116883E-14  0.2184797E-01
    1      -46.160406    -46.157439   1.000000   1.000000
    2        0.007640      0.007936   0.970898   0.970739
    3        5.285007      5.285329   0.000000   0.000000
    4        8.629975      8.630388   0.000000   0.000000
    5       11.060797     11.060975   0.000000   0.000000
    6       16.480602     16.480981   0.000000   0.000000
    7       17.555126     17.555311   0.000000   0.000000
    8       20.956842     20.957294   0.000000   0.000000
 
  0.3846154E+00  0.1538462E+00  0.5110313E-14  0.2184797E-01
    1      -46.158928    -46.155961   1.000000   1.000000
    2        0.949094      0.949304   0.006674   0.006585
    3        3.842688      3.843100   0.000000   0.000000
    4        8.368990      8.369402   0.000000   0.000000
    5       10.833623     10.833810   0.000000   0.000000
    6       16.369413     16.369842   0.000000   0.000000
    7       17.924322     17.924518   0.000000   0.000000
    8       21.515082     21.515816   0.000000   0.000000
 
  0.2307692E+00  0.2307692E+00 -0.4720437E-14  0.1092399E-01
    1      -46.160486    -46.157521   1.000000   1.000000
    2       -0.070824     -0.070514   0.988768   0.988639
    3        5.914428      5.914618   0.000000   0.000000
    4        7.790579      7.791115   0.000000   0.000000
    5       11.054885     11.055094   0.000000   0.000000
    6       17.047561     17.047623   0.000000   0.000000
    7       17.778875     17.779423   0.000000   0.000000
    8       21.414699     21.414988   0.000000   0.000000
 
  0.3076923E+00  0.2307692E+00 -0.4770672E-14  0.2184797E-01
    1      -46.158731    -46.155764   1.000000   1.000000
    2        0.956912      0.957162   0.035503   0.035366
    3        4.416956      4.417192   0.000000   0.000000
    4        7.150078      7.150634   0.000000   0.000000
    5       10.777405     10.777643   0.000000   0.000000
    6       17.351233     17.351463   0.000000   0.000000
    7       18.414154     18.414584   0.000000   0.000000
    8       21.236201     21.236382   0.000000   0.000000
 
  0.3846154E+00  0.2307692E+00 -0.4659350E-14  0.1092399E-01
    1      -46.158075    -46.155107   1.000000   1.000000
    2        1.680234      1.680414  -0.004057  -0.004051
    3        3.501173      3.501482   0.000000   0.000000
    4        6.968290      6.968844   0.000000   0.000000
    5       10.682847     10.683096   0.000000   0.000000
    6       17.421251     17.421579   0.000000   0.000000
    7       19.030908     19.031315   0.000000   0.000000
    8       20.328508     20.328614   0.000000   0.000000
 
  0.3076923E+00  0.3076923E+00 -0.4423963E-15  0.1092399E-01
    1      -46.157740    -46.154773   1.000000   1.000000
    2        2.046013      2.046213  -0.002901  -0.002897
    3        3.382683      3.382867   0.000000   0.000000
    4        6.373689      6.374349   0.000000   0.000000
    5       10.635935     10.636203   0.000000   0.000000
    6       18.292109     18.292201   0.000000   0.000000
    7       18.848884     18.849418   0.000000   0.000000
    8       19.853724     19.853936   0.000000   0.000000
 
  0.7692308E-01  0.7692308E-01  0.7692308E-01  0.3641329E-02
    1      -46.170049    -46.167086   1.000000   1.000000
    2       -2.362105     -2.361676   1.000000   1.000000
    3       11.819672     11.819823   0.000000   0.000000
    4       11.819672     11.819822   0.000000   0.000000
    5       11.914092     11.914703   0.000000   0.000000
    6       17.172300     17.172528   0.000000   0.000000
    7       17.172301     17.172539   0.000000   0.000000
    8       20.440029     20.440123   0.000000   0.000000
 
  0.1538462E+00  0.7692308E-01  0.7692308E-01  0.1092399E-01
    1      -46.167012    -46.164049   1.000000   1.000000
    2       -1.814434     -1.814033   1.000000   1.000000
    3        9.470706      9.470964   0.000000   0.000000
    4       10.853089     10.853223   0.000000   0.000000
    5       11.120856     11.121295   0.000000   0.000000
    6       17.268708     17.269028   0.000000   0.000000
    7       17.451590     17.451867   0.000000   0.000000
    8       20.295194     20.295301   0.000000   0.000000
 
  0.2307692E+00  0.7692308E-01  0.7692308E-01  0.1092399E-01
    1      -46.163685    -46.160719   1.000000   1.000000
    2       -1.052907     -1.052548   1.001188   1.001192
    3        7.226517      7.226807   0.000000   0.000000
    4       10.081241     10.081368   0.000000   0.000000
    5       10.498789     10.499250   0.000000   0.000000
    6       17.077683     17.078020   0.000000   0.000000
    7       17.651421     17.651860   0.000000   0.000000
    8       20.599912     20.600056   0.000000   0.000000
 
  0.3076923E+00  0.7692308E-01  0.7692308E-01  0.1092399E-01
    1      -46.160945    -46.157980   1.000000   1.000000
    2       -0.111132     -0.110833   1.032358   1.032264
    3        5.263636      5.263986   0.000000   0.000000
    4        9.552604      9.552727   0.000000   0.000000
    5       10.070156     10.070642   0.000000   0.000000
    6       16.784095     16.784421   0.000000   0.000000
    7       17.850330     17.850631   0.000000   0.000000
    8       21.448386     21.448591   0.000000   0.000000
 
  0.3846154E+00  0.7692308E-01  0.7692308E-01  0.1092399E-01
    1      -46.159435    -46.156470   1.000000   1.000000
    2        0.814614      0.814823   0.070856   0.070696
    3        3.819977      3.820415   0.000000   0.000000
    4        9.285088      9.285210   0.000000   0.000000
    5        9.852008      9.852507   0.000000   0.000000
    6       16.598104     16.598422   0.000000   0.000000
    7       17.997845     17.998212   0.000000   0.000000
    8       22.393324     22.393619   0.000000   0.000000
 
 -0.7692308E-01  0.7692308E-01  0.7692308E-01  0.2730997E-02
    1      -46.173022    -46.170060   1.000000   1.000000
    2       -2.800086     -2.799633   1.000000   1.000000
    3       13.354935     13.355169   0.000000   0.000000
    4       13.354993     13.355192   0.000000   0.000000
    5       13.979804     13.980027   0.000000   0.000000
    6       16.728706     16.728545   0.000000   0.000000
    7       18.305818     18.306263   0.000000   0.000000
    8       18.305830     18.306282   0.000000   0.000000
 
  0.1538462E+00  0.1538462E+00  0.7692308E-01  0.1092399E-01
    1      -46.164152    -46.161186   1.000000   1.000000
    2       -1.157291     -1.156925   1.000463   1.000465
    3        8.150128      8.150305   0.000000   0.000000
    4        9.063420      9.063699   0.000000   0.000000
    5       10.430377     10.430838   0.000000   0.000000
    6       18.011292     18.011705   0.000000   0.000000
    7       18.137449     18.137574   0.000000   0.000000
    8       21.017298     21.017534   0.000000   0.000000
 
  0.2307692E+00  0.1538462E+00  0.7692308E-01  0.2184797E-01
    1      -46.161469    -46.158504   1.000000   1.000000
    2       -0.290529     -0.290210   1.054742   1.054691
    3        6.256683      6.256916   0.000000   0.000000
    4        8.210120      8.210394   0.000000   0.000000
    5        9.951628      9.952134   0.000000   0.000000
    6       18.315669     18.316077   0.000000   0.000000
    7       18.676948     18.677104   0.000000   0.000000
    8       21.566638     21.567067   0.000000   0.000000
 
  0.3076923E+00  0.1538462E+00  0.7692308E-01  0.2184797E-01
    1      -46.159567    -46.156602   1.000000   1.000000
    2        0.722171      0.722424   0.190482   0.190254
    3        4.520275      4.520582   0.000000   0.000000
    4        7.779439      7.779701   0.000000   0.000000
    5        9.660916      9.661453   0.000000   0.000000
    6       18.315743     18.316101   0.000000   0.000000
    7       19.115670     19.115886   0.000000   0.000000
    8       22.345268     22.345889   0.000000   0.000000
 
  0.3846154E+00  0.1538462E+00  0.7692308E-01  0.1092399E-01
    1      -46.158888    -46.155922   1.000000   1.000000
    2        1.397563      1.397741  -0.011592  -0.011582
    3        3.596429      3.596813   0.000000   0.000000
    4        7.639552      7.639811   0.000000   0.000000
    5        9.563316      9.563865   0.000000   0.000000
    6       18.287459     18.287817   0.000000   0.000000
    7       19.300724     19.300968   0.000000   0.000000
    8       23.049637     23.050054   0.000000   0.000000
 
 -0.1538462E+00  0.1538462E+00  0.7692308E-01  0.1092399E-01
    1      -46.170618    -46.167656   1.000000   1.000000
    2       -2.470240     -2.469805   1.000000   1.000000
    3       11.691133     11.691474   0.000000   0.000000
    4       12.296578     12.296864   0.000000   0.000000
    5       13.588542     13.588655   0.000000   0.000000
    6       15.624408     15.624311   0.000000   0.000000
    7       17.373622     17.374138   0.000000   0.000000
    8       18.490828     18.491349   0.000000   0.000000
 
  0.2307692E+00  0.2307692E+00  0.7692308E-01  0.1092399E-01
    1      -46.159634    -46.156668   1.000000   1.000000
    2        0.676650      0.676919   0.239871   0.239626
    3        5.084499      5.084677   0.000000   0.000000
    4        6.931751      6.932139   0.000000   0.000000
    5        9.612223      9.612774   0.000000   0.000000
    6       19.246260     19.246719   0.000000   0.000000
    7       19.445550     19.445661   0.000000   0.000000
    8       22.649310     22.649549   0.000000   0.000000
 
  0.3076923E+00  0.2307692E+00  0.7692308E-01  0.2184797E-01
    1      -46.158541    -46.155575   1.000000   1.000000
    2        1.730983      1.731187  -0.009509  -0.009503
    3        3.777750      3.777974   0.000000   0.000000
    4        6.428468      6.428877   0.000000   0.000000
    5        9.442809      9.443387   0.000000   0.000000
    6       19.534590     19.535002   0.000000   0.000000
    7       20.286367     20.286560   0.000000   0.000000
    8       22.483795     22.483950   0.000000   0.000000
 
 -0.2307692E+00  0.2307692E+00  0.7692308E-01  0.1092399E-01
    1      -46.167293    -46.164328   1.000000   1.000000
    2       -1.921215     -1.920805   1.000000   1.000000
    3        9.416039      9.416371   0.000000   0.000000
    4       11.303503     11.303824   0.000000   0.000000
    5       13.036984     13.036961   0.000000   0.000000
    6       15.439594     15.439593   0.000000   0.000000
    7       16.303322     16.303854   0.000000   0.000000
    8       18.976110     18.976868   0.000000   0.000000
 
 -0.1538462E+00  0.2307692E+00  0.7692308E-01  0.1092399E-01
    1      -46.167824    -46.164861   1.000000   1.000000
    2       -2.029078     -2.028663   1.000000   1.000000
    3       10.406527     10.406771   0.000000   0.000000
    4       10.811260     10.811691   0.000000   0.000000
    5       13.203249     13.203342   0.000000   0.000000
    6       14.815873     14.815812   0.000000   0.000000
    7       17.270815     17.271669   0.000000   0.000000
    8       18.939703     18.940013   0.000000   0.000000
 
  0.3076923E+00  0.3076923E+00  0.7692308E-01  0.3641329E-02
    1      -46.158172    -46.155204   1.000000   1.000000
    2        2.820817      2.820995   0.000000   0.000000
    3        2.820842      2.821019   0.000000   0.000000
    4        5.927993      5.928478   0.000000   0.000000
    5        9.370484      9.371078   0.000000   0.000000
    6       20.241428     20.241943   0.000000   0.000000
    7       21.167928     21.168065   0.000000   0.000000
    8       21.167974     21.168077   0.000000   0.000000
 
 -0.3076923E+00  0.3076923E+00  0.7692308E-01  0.1092399E-01
    1      -46.163704    -46.160739   1.000000   1.000000
    2       -1.160042     -1.159674   1.000000   1.000000
    3        7.193851      7.194207   0.000000   0.000000
    4       10.518495     10.518834   0.000000   0.000000
    5       12.474971     12.474906   0.000000   0.000000
    6       15.470496     15.471031   0.000000   0.000000
    7       15.687803     15.687876   0.000000   0.000000
    8       19.641041     19.641545   0.000000   0.000000
 
 -0.2307692E+00  0.3076923E+00  0.7692308E-01  0.2184797E-01
    1      -46.164432    -46.161467   1.000000   1.000000
    2       -1.369173     -1.368791   1.000000   1.000000
    3        8.320317      8.320609   0.000000   0.000000
    4        9.841444      9.841837   0.000000   0.000000
    5       12.710029     12.710060   0.000000   0.000000
    6       14.777429     14.777433   0.000000   0.000000
    7       16.848731     16.849379   0.000000   0.000000
    8       19.569498     19.570130   0.000000   0.000000
 
 -0.3846154E+00  0.3846154E+00  0.7692308E-01  0.1092399E-01
    1      -46.160767    -46.157800   1.000000   1.000000
    2       -0.224416     -0.224111   1.052999   1.053002
    3        5.242989      5.243398   0.000000   0.000000
    4        9.983374      9.983722   0.000000   0.000000
    5       12.053114     12.053036   0.000000   0.000000
    6       14.908721     14.909258   0.000000   0.000000
    7       16.087430     16.087595   0.000000   0.000000
    8       20.397935     20.398436   0.000000   0.000000
 
 -0.3076923E+00  0.3846154E+00  0.7692308E-01  0.2184797E-01
    1      -46.161231    -46.158266   1.000000   1.000000
    2       -0.505309     -0.504975   1.029126   1.029139
    3        6.256234      6.256572   0.000000   0.000000
    4        9.192738      9.193136   0.000000   0.000000
    5       12.214474     12.214493   0.000000   0.000000
    6       15.096495     15.096626   0.000000   0.000000
    7       16.530030     16.530470   0.000000   0.000000
    8       20.088983     20.089484   0.000000   0.000000
 
 -0.2307692E+00  0.3846154E+00  0.7692308E-01  0.1092399E-01
    1      -46.161374    -46.158408   1.000000   1.000000
    2       -0.599823     -0.599481   1.024211   1.024222
    3        6.997325      6.997535   0.000000   0.000000
    4        8.413394      8.413921   0.000000   0.000000
    5       12.426694     12.426738   0.000000   0.000000
    6       14.697692     14.697717   0.000000   0.000000
    7       17.177064     17.177720   0.000000   0.000000
    8       20.635652     20.635941   0.000000   0.000000
 
 -0.4615385E+00  0.4615385E+00  0.7692308E-01  0.1092399E-01
    1      -46.159110    -46.156144   1.000000   1.000000
    2        0.679665      0.679876   0.168343   0.168049
    3        3.822826      3.823325   0.000000   0.000000
    4        9.713169      9.713521   0.000000   0.000000
    5       11.831931     11.831848   0.000000   0.000000
    6       14.626533     14.627069   0.000000   0.000000
    7       16.403337     16.403596   0.000000   0.000000
    8       21.157273     21.158447   0.000000   0.000000
 
 -0.3846154E+00  0.4615385E+00  0.7692308E-01  0.2184797E-01
    1      -46.158939    -46.155974   1.000000   1.000000
    2        0.484302      0.484564   0.469394   0.469023
    3        4.516494      4.516899   0.000000   0.000000
    4        8.801605      8.802008   0.000000   0.000000
    5       11.881473     11.881489   0.000000   0.000000
    6       15.323946     15.324312   0.000000   0.000000
    7       16.608837     16.609074   0.000000   0.000000
    8       20.106067     20.106860   0.000000   0.000000
 
 -0.3076923E+00  0.4615385E+00  0.7692308E-01  0.2184797E-01
    1      -46.158872    -46.155907   1.000000   1.000000
    2        0.361596      0.361889   0.614982   0.614655
    3        5.330741      5.330998   0.000000   0.000000
    4        7.690857      7.691397   0.000000   0.000000
    5       12.117098     12.117150   0.000000   0.000000
    6       15.070517     15.070605   0.000000   0.000000
    7       17.352311     17.352925   0.000000   0.000000
    8       20.326326     20.326492   0.000000   0.000000
 
 -0.4615385E+00 -0.4615385E+00  0.7692308E-01  0.1092399E-01
    1      -46.158141    -46.155174   1.000000   1.000000
    2        1.109036      1.109217  -0.030481  -0.030441
    3        3.637968      3.638453   0.000000   0.000000
    4        8.670641      8.671045   0.000000   0.000000
    5       11.766234     11.766250   0.000000   0.000000
    6       15.352879     15.353449   0.000000   0.000000
    7       16.811783     16.811965   0.000000   0.000000
    8       19.834051     19.834168   0.000000   0.000000
 
 -0.3846154E+00 -0.4615385E+00  0.7692308E-01  0.2184797E-01
    1      -46.157451    -46.154484   1.000000   1.000000
    2        1.349262      1.349476  -0.029907  -0.029901
    3        3.913686      3.914030   0.000000   0.000000
    4        7.386975      7.387511   0.000000   0.000000
    5       11.926542     11.926597   0.000000   0.000000
    6       15.464046     15.464275   0.000000   0.000000
    7       17.782423     17.782984   0.000000   0.000000
    8       18.877392     18.877543   0.000000   0.000000
 
 -0.3076923E+00 -0.4615385E+00  0.7692308E-01  0.1092399E-01
    1      -46.157236    -46.154268   1.000000   1.000000
    2        1.406473      1.406715  -0.032436  -0.032429
    3        4.219018      4.219212   0.000000   0.000000
    4        6.736470      6.737137   0.000000   0.000000
    5       12.022913     12.022983   0.000000   0.000000
    6       15.556417     15.556483   0.000000   0.000000
    7       17.537364     17.537855   0.000000   0.000000
    8       19.122086     19.122469   0.000000   0.000000
 
 -0.3846154E+00 -0.3846154E+00  0.7692308E-01  0.1092399E-01
    1      -46.156586    -46.153618   1.000000   1.000000
    2        2.243794      2.243980  -0.000327  -0.000326
    3        3.319263      3.319489   0.000000   0.000000
    4        6.450073      6.450766   0.000000   0.000000
    5       11.977534     11.977611   0.000000   0.000000
    6       16.043573     16.043686   0.000000   0.000000
    7       17.279553     17.279650   0.000000   0.000000
    8       18.623932     18.624696   0.000000   0.000000
 
  0.1538462E+00  0.1538462E+00  0.1538462E+00  0.3641329E-02
    1      -46.161867    -46.158901   1.000000   1.000000
    2       -0.391511     -0.391184   1.065605   1.065577
    3        7.334825      7.334992   0.000000   0.000000
    4        7.334825      7.334992   0.000000   0.000000
    5        9.525366      9.526078   0.000000   0.000000
    6       19.227012     19.227252   0.000000   0.000000
    7       19.227012     19.227252   0.000000   0.000000
    8       23.025185     23.025279   0.000000   0.000000
 
  0.2307692E+00  0.1538462E+00  0.1538462E+00  0.1092399E-01
    1      -46.159914    -46.156950   1.000000   1.000000
    2        0.577837      0.578113   0.331346   0.331076
    3        5.478213      5.478420   0.000000   0.000000
    4        6.784338      6.784500   0.000000   0.000000
    5        9.112189      9.112969   0.000000   0.000000
    6       19.893603     19.893913   0.000000   0.000000
    7       20.129741     20.130035   0.000000   0.000000
    8       23.437863     23.438009   0.000000   0.000000
 
  0.3076923E+00  0.1538462E+00  0.1538462E+00  0.1092399E-01
    1      -46.158830    -46.155865   1.000000   1.000000
    2        1.612215      1.612419  -0.011706  -0.011700
    3        3.968297      3.968575   0.000000   0.000000
    4        6.507509      6.507669   0.000000   0.000000
    5        8.925653      8.926461   0.000000   0.000000
    6       20.162335     20.162669   0.000000   0.000000
    7       20.615376     20.615690   0.000000   0.000000
    8       24.041505     24.044072   0.000000   0.000000
 
 -0.1538462E+00  0.1538462E+00  0.1538462E+00  0.2730997E-02
    1      -46.168376    -46.165413   1.000000   1.000000
    2       -2.137338     -2.136918   1.000000   1.000000
    3       11.176667     11.177016   0.000000   0.000000
    4       11.176712     11.177045   0.000000   0.000000
    5       13.202804     13.202985   0.000000   0.000000
    6       13.835369     13.835220   0.000000   0.000000
    7       18.745935     18.746256   0.000000   0.000000
    8       18.745960     18.746267   0.000000   0.000000
 
  0.2307692E+00  0.2307692E+00  0.1538462E+00  0.1092399E-01
    1      -46.158812    -46.155845   1.000000   1.000000
    2        1.643475      1.643701  -0.013585  -0.013580
    3        4.526171      4.526344   0.000000   0.000000
    4        5.672577      5.672788   0.000000   0.000000
    5        8.766558      8.767426   0.000000   0.000000
    6       20.947740     20.948114   0.000000   0.000000
    7       21.409996     21.410238   0.000000   0.000000
    8       24.263342     24.262130   0.000000   0.000000
 
  0.3076923E+00  0.2307692E+00  0.1538462E+00  0.1092399E-01
    1      -46.158418    -46.155453   1.000000   1.000000
    2        2.538945      2.539120   0.000000   0.000000
    3        3.554979      3.555185   0.000000   0.000000
    4        5.395804      5.396028   0.000000   0.000000
    5        8.666369      8.667259   0.000000   0.000000
    6       21.309877     21.310307   0.000000   0.000000
    7       22.115742     22.116002   0.000000   0.000000
    8       23.657918     23.658183   0.000000   0.000000
 
 -0.2307692E+00  0.2307692E+00  0.1538462E+00  0.1092399E-01
    1      -46.165215    -46.162249   1.000000   1.000000
    2       -1.582801     -1.582405   1.000000   1.000000
    3        9.471174      9.471511   0.000000   0.000000
    4       10.153161     10.153527   0.000000   0.000000
    5       12.780197     12.780277   0.000000   0.000000
    6       13.343264     13.343263   0.000000   0.000000
    7       18.230348     18.230793   0.000000   0.000000
    8       19.300846     19.301410   0.000000   0.000000
 
 -0.3076923E+00  0.3076923E+00  0.1538462E+00  0.1092399E-01
    1      -46.161800    -46.158835   1.000000   1.000000
    2       -0.812369     -0.812012   1.012880   1.012892
    3        7.374318      7.374654   0.000000   0.000000
    4        9.352265      9.352644   0.000000   0.000000