 running on   24 total cores
 distrk:  each k-point on   24 cores,    1 groups
 distr:  one band on    6 cores,    4 groups
 using from now: INCAR     
 vasp.6.1.2 22Jul20 (build Mar 31 2021 18:09:49) complex                        
  
 POSCAR found type information on POSCAR LiP 
 POSCAR found :  2 types and       8 ions
 scaLAPACK will be used
 -----------------------------------------------------------------------------
|                                                                             |
|               ----> ADVICE to this user running VASP <----                  |
|                                                                             |
|     You have a (more or less) 'small supercell' and for smaller cells       |
|     it is recommended to use the reciprocal-space projection scheme!        |
|     The real-space optimization is not efficient for small cells and it     |
|     is also less accurate ...                                               |
|     Therefore, set LREAL=.FALSE. in the INCAR file.                         |
|                                                                             |
 -----------------------------------------------------------------------------

 LDA part: xc-table for Pade appr. of Perdew
 generate k-points for:    9    9    4
 POSCAR, INCAR and KPOINTS ok, starting setup
 FFT: planning ...
 WAVECAR not read
 entering main loop
       N       E                     dE             d eps       ncg     rms          rms(c)
DAV:   1     0.158042266608E+03    0.15804E+03   -0.11793E+04  9120   0.118E+03
DAV:   2     0.173163493384E+01   -0.15631E+03   -0.14745E+03  9792   0.299E+02
DAV:   3    -0.238295216644E+02   -0.25561E+02   -0.25328E+02 16528   0.697E+01
DAV:   4    -0.264288199878E+02   -0.25993E+01   -0.25801E+01 13312   0.305E+01
DAV:   5    -0.266301937679E+02   -0.20137E+00   -0.20136E+00 14600   0.671E+00    0.149E+01
RMM:   6    -0.270939883682E+02   -0.46379E+00   -0.16308E+00 11136   0.629E+00    0.755E+00
RMM:   7    -0.277995790104E+02   -0.70559E+00   -0.49133E-01 12559   0.424E+00    0.284E+00
RMM:   8    -0.278708340937E+02   -0.71255E-01   -0.38911E-01 14292   0.285E+00    0.118E+00
RMM:   9    -0.278796717467E+02   -0.88377E-02   -0.96042E-02 15152   0.169E+00    0.517E-01
RMM:  10    -0.278878882276E+02   -0.82165E-02   -0.42766E-02 15856   0.101E+00    0.267E-01
RMM:  11    -0.278900649589E+02   -0.21767E-02   -0.15760E-02 16160   0.584E-01    0.196E-01
RMM:  12    -0.278908240827E+02   -0.75912E-03   -0.58422E-03 15792   0.444E-01    0.510E-02
RMM:  13    -0.278914133177E+02   -0.58923E-03   -0.32824E-03 16252   0.270E-01    0.186E-02
RMM:  14    -0.278916186916E+02   -0.20537E-03   -0.16383E-03 15976   0.174E-01    0.220E-02
RMM:  15    -0.278917061715E+02   -0.87480E-04   -0.75014E-04 14304   0.115E-01    0.190E-02
RMM:  16    -0.278917506892E+02   -0.44518E-04   -0.38922E-04 14125   0.831E-02    0.253E-02
RMM:  17    -0.278917684519E+02   -0.17763E-04   -0.21646E-04 13799   0.689E-02    0.180E-02
RMM:  18    -0.278917824921E+02   -0.14040E-04   -0.12720E-04 12745   0.513E-02    0.170E-02
RMM:  19    -0.278917899306E+02   -0.74385E-05   -0.84986E-05 11918   0.432E-02
   1 F= -.27891790E+02 E0= -.27891790E+02  d E =0.000000E+00  mag=    -0.0001
