   12   12    1    2
  0.9602109E+01  0.5270523E-09  0.5270523E-09  0.4711363E-09  0.5000000E-15
  1.000000000000000E-004
  CAR 
 unknown system                          
     56     64     40
 
  0.0000000E+00  0.0000000E+00  0.0000000E+00  0.2915452E-02
    1      -40.002769    -40.002540   1.000000   1.000000
    2      -39.979118    -39.978889   1.000000   1.000000
    3      -39.977819    -39.977590   1.000000   1.000000
    4      -39.976950    -39.976721   1.000000   1.000000
    5      -17.058322    -17.058368   1.000000   1.000000
    6      -16.362315    -16.362376   1.000000   1.000000
    7      -14.923009    -14.923080   1.000000   1.000000
    8      -14.895935    -14.896007   1.000000   1.000000
    9      -12.756448    -12.756492   1.000000   1.000000
   10      -11.161896    -11.161935   1.000000   1.000000
   11       -6.812548     -6.812575   1.000000   1.000000
   12       -3.693445     -3.693469   1.000000   1.000000
   13       -3.421442     -3.421467   1.000000   1.000000
   14       -2.883673     -2.883703   1.000000   1.000000
   15       -2.813014     -2.813040   1.000000   1.000000
   16       -1.638792     -1.638844   1.000000   1.000000
   17       -0.786554     -0.786582   1.000000   1.000000
   18       -0.737572     -0.737589   1.000000   1.000000
   19        0.127470      0.127437   1.000000   1.000000
   20        0.293089      0.293065   1.000000   1.000000
   21        0.509172      0.509142   1.000000   1.000000
   22        1.281038      1.280984   1.000000   1.000000
   23        1.290114      1.290059   1.000000   1.000000
   24        1.364680      1.364631   1.000000   1.000000
   25        1.547064      1.547023   1.000000   1.000000
   26        2.220979      2.220950   1.000000   1.000000
   27        2.223865      2.223828   1.000000   1.000000
   28        2.891252      2.891233   1.000000   1.000000
   29        8.795907      8.795929   0.000003   0.000003
   30        9.878321      9.878326   0.000000   0.000000
   31       10.261607     10.261575   0.000000   0.000000
   32       11.884680     11.884330   0.000000   0.000000
   33       11.955938     11.955894   0.000000   0.000000
   34       12.612868     12.611809   0.000000   0.000000
   35       12.765914     12.765498   0.000000   0.000000
   36       13.686742     13.685617   0.000000   0.000000
   37       13.852797     13.841155   0.000000   0.000000
   38       14.071500     14.073746   0.000000   0.000000
   39       14.503278     14.437068   0.000000   0.000000
   40       15.055506     14.964127   0.000000   0.000000
 
  0.1428571E+00  0.1865347E-16  0.0000000E+00  0.1166181E-01
    1      -40.001869    -40.001640   1.000000   1.000000
    2      -39.981606    -39.981376   1.000000   1.000000
    3      -39.977809    -39.977579   1.000000   1.000000
    4      -39.975438    -39.975208   1.000000   1.000000
    5      -17.037502    -17.037549   1.000000   1.000000
    6      -16.382461    -16.382521   1.000000   1.000000
    7      -14.928010    -14.928081   1.000000   1.000000
    8      -14.900500    -14.900572   1.000000   1.000000
    9      -12.759545    -12.759589   1.000000   1.000000
   10      -11.159969    -11.160008   1.000000   1.000000
   11       -6.815472     -6.815499   1.000000   1.000000
   12       -3.698114     -3.698137   1.000000   1.000000
   13       -3.385879     -3.385905   1.000000   1.000000
   14       -2.848685     -2.848713   1.000000   1.000000
   15       -2.788952     -2.788982   1.000000   1.000000
   16       -1.660262     -1.660312   1.000000   1.000000
   17       -0.884024     -0.884046   1.000000   1.000000
   18       -0.510555     -0.510581   1.000000   1.000000
   19        0.161364      0.161331   1.000000   1.000000
   20        0.333218      0.333191   1.000000   1.000000
   21        0.501185      0.501156   1.000000   1.000000
   22        1.086415      1.086366   1.000000   1.000000
   23        1.214916      1.214872   1.000000   1.000000
   24        1.359798      1.359744   1.000000   1.000000
   25        1.506244      1.506202   1.000000   1.000000
   26        2.171738      2.171704   1.000000   1.000000
   27        2.272411      2.272377   1.000000   1.000000
   28        2.886039      2.886020   1.000000   1.000000
   29        9.025205      9.025222  -0.000000  -0.000000
   30        9.899406      9.899410   0.000000   0.000000
   31       10.365957     10.365922   0.000000   0.000000
   32       11.725553     11.725642   0.000000   0.000000
   33       11.917271     11.917416   0.000000   0.000000
   34       12.371093     12.371075   0.000000   0.000000
   35       12.808487     12.808200   0.000000   0.000000
   36       13.288744     13.288771   0.000000   0.000000
   37       13.649561     13.648118   0.000000   0.000000
   38       13.857831     13.860449   0.000000   0.000000
   39       13.994424     13.994448   0.000000   0.000000
   40       14.963779     14.721073   0.000000   0.000000
 
  0.2857143E+00  0.1813705E-16  0.0000000E+00  0.1166181E-01
    1      -39.999378    -39.999149   1.000000   1.000000
    2      -39.985705    -39.985475   1.000000   1.000000
    3      -39.977420    -39.977190   1.000000   1.000000
    4      -39.974192    -39.973963   1.000000   1.000000
    5      -16.984846    -16.984894   1.000000   1.000000
    6      -16.434058    -16.434116   1.000000   1.000000
    7      -14.939062    -14.939133   1.000000   1.000000
    8      -14.910097    -14.910168   1.000000   1.000000
    9      -12.765757    -12.765801   1.000000   1.000000
   10      -11.156155    -11.156195   1.000000   1.000000
   11       -6.820919     -6.820945   1.000000   1.000000
   12       -3.719003     -3.719023   1.000000   1.000000
   13       -3.283341     -3.283371   1.000000   1.000000
   14       -2.920719     -2.920751   1.000000   1.000000
   15       -2.568969     -2.569003   1.000000   1.000000
   16       -1.725419     -1.725466   1.000000   1.000000
   17       -0.795958     -0.795984   1.000000   1.000000
   18       -0.257362     -0.257393   1.000000   1.000000
   19        0.151739      0.151708   1.000000   1.000000
   20        0.400908      0.400876   1.000000   1.000000
   21        0.524890      0.524863   1.000000   1.000000
   22        0.742251      0.742213   1.000000   1.000000
   23        1.044026      1.043987   1.000000   1.000000
   24        1.288047      1.288007   1.000000   1.000000
   25        1.422393      1.422343   1.000000   1.000000
   26        2.046079      2.046049   1.000000   1.000000
   27        2.395401      2.395357   1.000000   1.000000
   28        2.870401      2.870381   1.000000   1.000000
   29        9.553653      9.553657   0.000000   0.000000
   30        9.940886      9.940892   0.000000   0.000000
   31       10.632771     10.632758   0.000000   0.000000
   32       11.454005     11.453932   0.000000   0.000000
   33       11.680914     11.680913   0.000000   0.000000
   34       11.956089     11.956039   0.000000   0.000000
   35       12.520118     12.519931   0.000000   0.000000
   36       12.947530     12.947336   0.000000   0.000000
   37       13.175081     13.174724   0.000000   0.000000
   38       13.914344     13.912833   0.000000   0.000000
   39       14.020622     14.020773   0.000000   0.000000
   40       14.836206     14.943124   0.000000   0.000000
 
  0.4285714E+00  0.6004430E-16  0.0000000E+00  0.1166181E-01
    1      -39.995903    -39.995674   1.000000   1.000000
    2      -39.990017    -39.989788   1.000000   1.000000
    3      -39.977080    -39.976850   1.000000   1.000000
    4      -39.973708    -39.973479   1.000000   1.000000
    5      -16.933431    -16.933480   1.000000   1.000000
    6      -16.484838    -16.484896   1.000000   1.000000
    7      -14.948095    -14.948165   1.000000   1.000000
    8      -14.917628    -14.917699   1.000000   1.000000
    9      -12.770113    -12.770157   1.000000   1.000000
   10      -11.153707    -11.153747   1.000000   1.000000
   11       -6.824097     -6.824122   1.000000   1.000000
   12       -3.744792     -3.744810   1.000000   1.000000
   13       -3.159314     -3.159342   1.000000   1.000000
   14       -3.011242     -3.011280   1.000000   1.000000
   15       -2.332613     -2.332651   1.000000   1.000000
   16       -1.810506     -1.810550   1.000000   1.000000
   17       -0.596982     -0.597013   1.000000   1.000000
   18       -0.151330     -0.151371   1.000000   1.000000
   19        0.112711      0.112692   1.000000   1.000000
   20        0.307061      0.307035   1.000000   1.000000
   21        0.379839      0.379812   1.000000   1.000000
   22        0.727599      0.727560   1.000000   1.000000
   23        1.025156      1.025123   1.000000   1.000000
   24        1.182873      1.182837   1.000000   1.000000
   25        1.350663      1.350608   1.000000   1.000000
   26        1.926184      1.926159   1.000000   1.000000
   27        2.500934      2.500884   1.000000   1.000000
   28        2.851975      2.851954   1.000000   1.000000
   29        9.693767      9.693734   0.000000   0.000000
   30       10.415920     10.415921   0.000000   0.000000
   31       10.825215     10.825300   0.000000   0.000000
   32       11.216705     11.216733   0.000000   0.000000
   33       11.535004     11.534969   0.000000   0.000000
   34       11.670144     11.670257   0.000000   0.000000
   35       12.042068     12.042113   0.000000   0.000000
   36       12.631240     12.631544   0.000000   0.000000
   37       12.912176     12.911848   0.000000   0.000000
   38       14.141311     14.147055   0.000000   0.000000
   39       14.376215     14.380084   0.000000   0.000000
   40       15.115192     15.021128   0.000000   0.000000
 
  0.1428571E+00  0.1428571E+00  0.0000000E+00  0.5830904E-02
    1      -40.000053    -39.999824   1.000000   1.000000
    2      -39.984797    -39.984568   1.000000   1.000000
    3      -39.977635    -39.977405   1.000000   1.000000
    4      -39.974130    -39.973900   1.000000   1.000000
    5      -16.997404    -16.997452   1.000000   1.000000
    6      -16.426074    -16.426134   1.000000   1.000000
    7      -14.937542    -14.937612   1.000000   1.000000
    8      -14.901800    -14.901872   1.000000   1.000000
    9      -12.760171    -12.760215   1.000000   1.000000
   10      -11.157531    -11.157571   1.000000   1.000000
   11       -6.814321     -6.814347   1.000000   1.000000
   12       -3.728937     -3.728958   1.000000   1.000000
   13       -3.312840     -3.312868   1.000000   1.000000
   14       -2.874916     -2.874947   1.000000   1.000000
   15       -2.700706     -2.700738   1.000000   1.000000
   16       -1.713669     -1.713716   1.000000   1.000000
   17       -0.843213     -0.843238   1.000000   1.000000
   18       -0.207958     -0.207992   1.000000   1.000000
   19        0.261513      0.261486   1.000000   1.000000
   20        0.281028      0.280990   1.000000   1.000000
   21        0.519355      0.519329   1.000000   1.000000
   22        0.890863      0.890818   1.000000   1.000000
   23        0.946398      0.946367   1.000000   1.000000
   24        1.384470      1.384433   1.000000   1.000000
   25        1.407865      1.407808   1.000000   1.000000
   26        2.067151      2.067122   1.000000   1.000000
   27        2.386016      2.385974   1.000000   1.000000
   28        2.891325      2.891304   1.000000   1.000000
   29        9.391287      9.391294   0.000000   0.000000
   30        9.891149      9.891127   0.000000   0.000000
   31       10.512308     10.512295   0.000000   0.000000
   32       11.579029     11.579616   0.000000   0.000000
   33       11.717914     11.717898   0.000000   0.000000
   34       12.341833     12.341785   0.000000   0.000000
   35       12.398980     12.399548   0.000000   0.000000
   36       13.091478     13.091432   0.000000   0.000000
   37       13.244713     13.244389   0.000000   0.000000
   38       13.521043     13.520992   0.000000   0.000000
   39       13.895852     13.894883   0.000000   0.000000
   40       15.332786     15.140862   0.000000   0.000000
 
  0.2857143E+00  0.1428571E+00  0.0000000E+00  0.1166181E-01
    1      -39.996912    -39.996683   1.000000   1.000000
    2      -39.988800    -39.988571   1.000000   1.000000
    3      -39.977514    -39.977284   1.000000   1.000000
    4      -39.973448    -39.973218   1.000000   1.000000
    5      -16.943924    -16.943974   1.000000   1.000000
    6      -16.476393    -16.476450   1.000000   1.000000
    7      -14.968445    -14.968514   1.000000   1.000000
    8      -14.891777    -14.891850   1.000000   1.000000
    9      -12.766762    -12.766807   1.000000   1.000000
   10      -11.154464    -11.154504   1.000000   1.000000
   11       -6.820009     -6.820034   1.000000   1.000000
   12       -3.748246     -3.748265   1.000000   1.000000
   13       -3.212489     -3.212518   1.000000   1.000000
   14       -2.925229     -2.925267   1.000000   1.000000
   15       -2.483690     -2.483726   1.000000   1.000000
   16       -1.774443     -1.774488   1.000000   1.000000
   17       -0.653861     -0.653892   1.000000   1.000000
   18       -0.053369     -0.053415   1.000000   1.000000
   19        0.112788      0.112765   1.000000   1.000000
   20        0.221155      0.221133   1.000000   1.000000
   21        0.610115      0.610079   1.000000   1.000000
   22        0.648833      0.648803   1.000000   1.000000
   23        0.891029      0.890998   1.000000   1.000000
   24        1.248701      1.248666   1.000000   1.000000
   25        1.400945      1.400889   1.000000   1.000000
   26        1.937747      1.937723   1.000000   1.000000
   27        2.492744      2.492695   1.000000   1.000000
   28        2.877789      2.877767   1.000000   1.000000
   29        9.766007      9.765998   0.000000   0.000000
   30        9.998758      9.998750   0.000000   0.000000
   31       10.699299     10.699290   0.000000   0.000000
   32       11.310727     11.310766   0.000000   0.000000
   33       11.715498     11.715397   0.000000   0.000000
   34       11.838776     11.838791   0.000000   0.000000
   35       12.152330     12.152367   0.000000   0.000000
   36       12.668869     12.668819   0.000000   0.000000
   37       13.086596     13.086892   0.000000   0.000000
   38       13.614634     13.614887   0.000000   0.000000
   39       14.051387     14.052476   0.000000   0.000000
   40       15.269675     15.287758   0.000000   0.000000
 
  0.4285714E+00  0.1428571E+00  0.0000000E+00  0.1166181E-01
    1      -39.994418    -39.994189   1.000000   1.000000
    2      -39.991438    -39.991209   1.000000   1.000000
    3      -39.977479    -39.977250   1.000000   1.000000
    4      -39.973411    -39.973182   1.000000   1.000000
    5      -16.922406    -16.922456   1.000000   1.000000
    6      -16.490483    -16.490540   1.000000   1.000000
    7      -14.989843    -14.989912   1.000000   1.000000
    8      -14.885216    -14.885288   1.000000   1.000000
    9      -12.774583    -12.774628   1.000000   1.000000
   10      -11.152656    -11.152695   1.000000   1.000000
   11       -6.829189     -6.829214   1.000000   1.000000
   12       -3.744592     -3.744610   1.000000   1.000000
   13       -3.105651     -3.105677   1.000000   1.000000
   14       -3.002575     -3.002620   1.000000   1.000000
   15       -2.286520     -2.286559   1.000000   1.000000
   16       -1.818654     -1.818697   1.000000   1.000000
   17       -0.528998     -0.529030   1.000000   1.000000
   18       -0.240572     -0.240606   1.000000   1.000000
   19        0.029551      0.029530   1.000000   1.000000
   20        0.206117      0.206093   1.000000   1.000000
   21        0.516277      0.516238   1.000000   1.000000
   22        0.706481      0.706451   1.000000   1.000000
   23        1.023193      1.023163   1.000000   1.000000
   24        1.145424      1.145387   1.000000   1.000000
   25        1.391201      1.391145   1.000000   1.000000
   26        1.904206      1.904183   1.000000   1.000000
   27        2.504948      2.504897   1.000000   1.000000
   28        2.861418      2.861396   1.000000   1.000000
   29        9.753926      9.753914   0.000000   0.000000
   30       10.297993     10.297993   0.000000   0.000000
   31       10.876163     10.876207   0.000000   0.000000
   32       11.098986     11.098994   0.000000   0.000000
   33       11.386668     11.386572   0.000000   0.000000
   34       11.892805     11.892768   0.000000   0.000000
   35       12.170802     12.170867   0.000000   0.000000
   36       12.536908     12.536942   0.000000   0.000000
   37       12.918586     12.918504   0.000000   0.000000
   38       13.924728     13.919429   0.000000   0.000000
   39       14.330413     14.332010   0.000000   0.000000
   40       15.201003     15.123176   0.000000   0.000000
 
 -0.4285714E+00  0.1428571E+00  0.0000000E+00  0.1166181E-01
    1      -39.997551    -39.997322   1.000000   1.000000
    2      -39.987564    -39.987335   1.000000   1.000000
    3      -39.977794    -39.977564   1.000000   1.000000
    4      -39.973846    -39.973617   1.000000   1.000000
    5      -16.956406    -16.956455   1.000000   1.000000
    6      -16.449999    -16.450058   1.000000   1.000000
    7      -14.992634    -14.992703   1.000000   1.000000
    8      -14.880379    -14.880451   1.000000   1.000000
    9      -12.778296    -12.778341   1.000000   1.000000
   10      -11.153071    -11.153110   1.000000   1.000000
   11       -6.835178     -6.835203   1.000000   1.000000
   12       -3.712802     -3.712820   1.000000   1.000000
   13       -3.164837     -3.164873   1.000000   1.000000
   14       -2.966155     -2.966188   1.000000   1.000000
   15       -2.335120     -2.335158   1.000000   1.000000
   16       -1.774042     -1.774086   1.000000   1.000000
   17       -0.670828     -0.670856   1.000000   1.000000
   18       -0.349728     -0.349754   1.000000   1.000000
   19        0.027499      0.027473   1.000000   1.000000
   20        0.296345      0.296315   1.000000   1.000000
   21        0.530174      0.530136   1.000000   1.000000
   22        0.714685      0.714654   1.000000   1.000000
   23        1.080812      1.080775   1.000000   1.000000
   24        1.202940      1.202904   1.000000   1.000000
   25        1.428832      1.428778   1.000000   1.000000
   26        1.992782      1.992753   1.000000   1.000000
   27        2.411318      2.411272   1.000000   1.000000
   28        2.853485      2.853465   1.000000   1.000000
   29        9.783955      9.783956   0.000000   0.000000
   30       10.166930     10.166931   0.000000   0.000000
   31       10.792560     10.792584   0.000000   0.000000
   32       10.963798     10.963824   0.000000   0.000000
   33       11.589033     11.589034   0.000000   0.000000
   34       11.805748     11.805728   0.000000   0.000000
   35       12.626595     12.626669   0.000000   0.000000
   36       12.763202     12.763497   0.000000   0.000000
   37       13.028777     13.028757   0.000000   0.000000
   38       14.075371     14.073321   0.000000   0.000000
   39       14.399894     14.392402   0.000000   0.000000
   40       14.841145     14.773863   0.000000   0.000000
 
 -0.2857143E+00  0.1428571E+00  0.0000000E+00  0.1166181E-01
    1      -40.000456    -40.000228   1.000000   1.000000
    2      -39.983188    -39.982959   1.000000   1.000000
    3      -39.978457    -39.978227   1.000000   1.000000
    4      -39.974634    -39.974405   1.000000   1.000000
    5      -17.009167    -17.009214   1.000000   1.000000
    6      -16.396806    -16.396867   1.000000   1.000000
    7      -14.977226    -14.977295   1.000000   1.000000
    8      -14.878213    -14.878286   1.000000   1.000000
    9      -12.774639    -12.774683   1.000000   1.000000
   10      -11.155963    -11.156002   1.000000   1.000000
   11       -6.832340     -6.832366   1.000000   1.000000
   12       -3.677911     -3.677931   1.000000   1.000000
   13       -3.312469     -3.312503   1.000000   1.000000
   14       -2.873257     -2.873286   1.000000   1.000000
   15       -2.555430     -2.555465   1.000000   1.000000
   16       -1.680874     -1.680922   1.000000   1.000000
   17       -0.807222     -0.807246   1.000000   1.000000
   18       -0.538067     -0.538089   1.000000   1.000000
   19        0.046447      0.046417   1.000000   1.000000
   20        0.408944      0.408914   1.000000   1.000000
   21        0.551225      0.551188   1.000000   1.000000
   22        0.793537      0.793503   1.000000   1.000000
   23        1.191897      1.191854   1.000000   1.000000
   24        1.336823      1.336774   1.000000   1.000000
   25        1.486437      1.486389   1.000000   1.000000
   26        2.108370      2.108337   1.000000   1.000000
   27        2.289023      2.288986   1.000000   1.000000
   28        2.854397      2.854379   1.000000   1.000000
   29        9.433627      9.433638   0.000000   0.000000
   30       10.013233     10.013240   0.000000   0.000000
   31       10.561221     10.561216   0.000000   0.000000
   32       11.270955     11.270860   0.000000   0.000000
   33       11.907872     11.908026   0.000000   0.000000
   34       12.029473     12.029445   0.000000   0.000000
   35       12.621203     12.621445   0.000000   0.000000
   36       13.257350     13.257536   0.000000   0.000000
   37       13.366867     13.366327   0.000000   0.000000
   38       14.032566     14.029228   0.000000   0.000000
   39       14.351477     14.356369   0.000000   0.000000
   40       15.034760     14.898414   0.000000   0.000000
 
 -0.1428571E+00  0.1428571E+00  0.0000000E+00  0.5830904E-02
    1      -40.001996    -40.001767   1.000000   1.000000
    2      -39.979841    -39.979611   1.000000   1.000000
    3      -39.979244    -39.979015   1.000000   1.000000
    4      -39.975599    -39.975370   1.000000   1.000000
    5      -17.041874    -17.041921   1.000000   1.000000
    6      -16.370186    -16.370247   1.000000   1.000000
    7      -14.951666    -14.951736   1.000000   1.000000
    8      -14.883838    -14.883910   1.000000   1.000000
    9      -12.765981    -12.766025   1.000000   1.000000
   10      -11.159287    -11.159326   1.000000   1.000000
   11       -6.823151     -6.823178   1.000000   1.000000
   12       -3.670521     -3.670544   1.000000   1.000000
   13       -3.399450     -3.399479   1.000000   1.000000
   14       -2.826358     -2.826385   1.000000   1.000000
   15       -2.744681     -2.744713   1.000000   1.000000
   16       -1.638368     -1.638418   1.000000   1.000000
   17       -0.780927     -0.780954   1.000000   1.000000
   18       -0.720615     -0.720632   1.000000   1.000000
   19        0.064938      0.064907   1.000000   1.000000
   20        0.331519      0.331493   1.000000   1.000000
   21        0.571958      0.571924   1.000000   1.000000
   22        1.050069      1.050023   1.000000   1.000000
   23        1.289124      1.289074   1.000000   1.000000
   24        1.370013      1.369958   1.000000   1.000000
   25        1.523736      1.523695   1.000000   1.000000
   26        2.184424      2.184388   1.000000   1.000000
   27        2.229651      2.229620   1.000000   1.000000
   28        2.868044      2.868027   1.000000   1.000000
   29        9.042424      9.042442  -0.000000  -0.000000
   30        9.947327      9.947333   0.000000   0.000000
   31       10.376409     10.376394   0.000000   0.000000
   32       11.683488     11.683464   0.000000   0.000000
   33       11.982537     11.982686   0.000000   0.000000
   34       12.278309     12.278228   0.000000   0.000000
   35       12.657896     12.657802   0.000000   0.000000
   36       13.370839     13.369322   0.000000   0.000000
   37       13.791733     13.787450   0.000000   0.000000
   38       14.242833     14.250655   0.000000   0.000000
   39       14.262325     14.266150   0.000000   0.000000
   40       15.082055     15.109123   0.000000   0.000000
 
  0.2857143E+00  0.2857143E+00  0.0000000E+00  0.5830904E-02
    1      -39.993427    -39.993198   1.000000   1.000000
    2      -39.992215    -39.991986   1.000000   1.000000
    3      -39.977937    -39.977708   1.000000   1.000000
    4      -39.973132    -39.972902   1.000000   1.000000
    5      -16.918335    -16.918386   1.000000   1.000000
    6      -16.491084    -16.491141   1.000000   1.000000
    7      -15.012923    -15.012991   1.000000   1.000000
    8      -14.867186    -14.867259   1.000000   1.000000
    9      -12.776609    -12.776653   1.000000   1.000000
   10      -11.152128    -11.152167   1.000000   1.000000
   11       -6.831433     -6.831458   1.000000   1.000000
   12       -3.745691     -3.745708   1.000000   1.000000
   13       -3.112084     -3.112113   1.000000   1.000000
   14       -2.928340     -2.928385   1.000000   1.000000
   15       -2.333054     -2.333091   1.000000   1.000000
   16       -1.794996     -1.795039   1.000000   1.000000
   17       -0.505313     -0.505346   1.000000   1.000000
   18       -0.270708     -0.270739   1.000000   1.000000
   19       -0.082307     -0.082325   1.000000   1.000000
   20        0.354360      0.354333   1.000000   1.000000
   21        0.392786      0.392745   1.000000   1.000000
   22        0.850567      0.850538   1.000000   1.000000
   23        0.879965      0.879935   1.000000   1.000000
   24        1.157921      1.157884   1.000000   1.000000
   25        1.438446      1.438391   1.000000   1.000000
   26        1.891160      1.891138   1.000000   1.000000
   27        2.504767      2.504716   1.000000   1.000000
   28        2.880457      2.880433   1.000000   1.000000
   29        9.934528      9.934532   0.000000   0.000000
   30        9.950500      9.950471   0.000000   0.000000
   31       10.815052     10.815077   0.000000   0.000000
   32       11.002715     11.002657   0.000000   0.000000
   33       11.520111     11.520061   0.000000   0.000000
   34       12.090678     12.090667   0.000000   0.000000
   35       12.311168     12.311186   0.000000   0.000000
   36       12.395776     12.395778   0.000000   0.000000
   37       13.182305     13.183513   0.000000   0.000000
   38       13.426469     13.426131   0.000000   0.000000
   39       14.161016     14.160484   0.000000   0.000000
   40       15.449323     15.441858   0.000000   0.000000
 
  0.4285714E+00  0.2857143E+00  0.0000000E+00  0.1166181E-01
    1      -39.995571    -39.995342   1.000000   1.000000
    2      -39.989292    -39.989062   1.000000   1.000000
    3      -39.978611    -39.978381   1.000000   1.000000
    4      -39.973268    -39.973038   1.000000   1.000000
    5      -16.933364    -16.933414   1.000000   1.000000
    6      -16.460736    -16.460794   1.000000   1.000000
    7      -15.040736    -15.040803   1.000000   1.000000
    8      -14.853243    -14.853316   1.000000   1.000000
    9      -12.788396    -12.788440   1.000000   1.000000
   10      -11.150606    -11.150646   1.000000   1.000000
   11       -6.846032     -6.846057   1.000000   1.000000
   12       -3.719637     -3.719653   1.000000   1.000000
   13       -3.019623     -3.019656   1.000000   1.000000
   14       -2.972863     -2.972907   1.000000   1.000000
   15       -2.216583     -2.216623   1.000000   1.000000
   16       -1.782762     -1.782804   1.000000   1.000000
   17       -0.567987     -0.568016   1.000000   1.000000
   18       -0.408030     -0.408052   1.000000   1.000000
   19       -0.176232     -0.176249   1.000000   1.000000
   20        0.186083      0.186046   1.000000   1.000000
   21        0.479718      0.479682   1.000000   1.000000
   22        0.879932      0.879903   1.000000   1.000000
   23        1.053821      1.053787   1.000000   1.000000
   24        1.114298      1.114260   1.000000   1.000000
   25        1.475451      1.475395   1.000000   1.000000
   26        1.942779      1.942752   1.000000   1.000000
   27        2.418300      2.418253   1.000000   1.000000
   28        2.872352      2.872329   1.000000   1.000000
   29        9.932982      9.932928   0.000000   0.000000
   30       10.151623     10.151614   0.000000   0.000000
   31       10.646015     10.645990   0.000000   0.000000
   32       10.983371     10.983437   0.000000   0.000000
   33       11.489275     11.489168   0.000000   0.000000
   34       11.885258     11.885234   0.000000   0.000000
   35       12.478091     12.478089   0.000000   0.000000
   36       12.717827     12.717976   0.000000   0.000000
   37       13.200395     13.198399   0.000000   0.000000
   38       13.794093     13.790091   0.000000   0.000000
   39       14.258032     14.264029   0.000000   0.000000
   40       15.362260     15.080327   0.000000   0.000000
 
 -0.4285714E+00  0.2857143E+00  0.0000000E+00  0.1166181E-01
    1      -39.998336    -39.998107   1.000000   1.000000
    2      -39.985081    -39.984851   1.000000   1.000000
    3      -39.979620    -39.979390   1.000000   1.000000
    4      -39.973691    -39.973461   1.000000   1.000000
    5      -16.972100    -16.972149   1.000000   1.000000
    6      -16.413747    -16.413806   1.000000   1.000000
    7      -15.041897    -15.041964   1.000000   1.000000
    8      -14.849369    -14.849442   1.000000   1.000000
    9      -12.793325    -12.793369   1.000000   1.000000
   10      -11.151194    -11.151234   1.000000   1.000000
   11       -6.851967     -6.851993   1.000000   1.000000
   12       -3.691494     -3.691511   1.000000   1.000000
   13       -3.127176     -3.127220   1.000000   1.000000
   14       -2.889883     -2.889913   1.000000   1.000000
   15       -2.267245     -2.267284   1.000000   1.000000
   16       -1.736032     -1.736076   1.000000   1.000000
   17       -0.694112     -0.694137   1.000000   1.000000
   18       -0.528402     -0.528420   1.000000   1.000000
   19       -0.066384     -0.066409   1.000000   1.000000