 running on    8 total cores
 distrk:  each k-point on    8 cores,    1 groups
 distr:  one band on    1 cores,    8 groups
 using from now: INCAR     
 vasp.6.1.2 22Jul20 (build Mar 20 2021 11:25:07) complex                        
  
 POSCAR found type information on POSCAR LiP N O 
 POSCAR found :  4 types and      12 ions
 scaLAPACK will be used
 -----------------------------------------------------------------------------
|                                                                             |
|           W    W    AA    RRRRR   N    N  II  N    N   GGGG   !!!           |
|           W    W   A  A   R    R  NN   N  II  NN   N  G    G  !!!           |
|           W    W  A    A  R    R  N N  N  II  N N  N  G       !!!           |
|           W WW W  AAAAAA  RRRRR   N  N N  II  N  N N  G  GGG   !            |
|           WW  WW  A    A  R   R   N   NN  II  N   NN  G    G                |
|           W    W  A    A  R    R  N    N  II  N    N   GGGG   !!!           |
|                                                                             |
|     The value NCORE = 6 specified in the INCAR file was overwritten,        |
|     because it was not compatible with the 8 processes available:           |
|     NCORE = 1                                                               |
|     was used instead, please check that this makes sense for your           |
|     machine.                                                                |
|                                                                             |
 -----------------------------------------------------------------------------

 -----------------------------------------------------------------------------
|                                                                             |
|           W    W    AA    RRRRR   N    N  II  N    N   GGGG   !!!           |
|           W    W   A  A   R    R  NN   N  II  NN   N  G    G  !!!           |
|           W    W  A    A  R    R  N N  N  II  N N  N  G       !!!           |
|           W WW W  AAAAAA  RRRRR   N  N N  II  N  N N  G  GGG   !            |
|           WW  WW  A    A  R   R   N   NN  II  N   NN  G    G                |
|           W    W  A    A  R    R  N    N  II  N    N   GGGG   !!!           |
|                                                                             |
|     For optimal performance we recommend to set                             |
|       NCORE = 4 - approx SQRT(number of cores).                             |
|     NCORE specifies how many cores store one orbital (NPAR=cpu/NCORE).      |
|     This setting can greatly improve the performance of VASP for DFT.       |
|     The default, NCORE=1 might be grossly inefficient on modern             |
|     multi-core architectures or massively parallel machines. Do your        |
|     own testing!!!!                                                         |
|     Unfortunately you need to use the default for GW and RPA                |
|     calculations (for HF NCORE is supported but not extensively tested      |
|     yet).                                                                   |
|                                                                             |
 -----------------------------------------------------------------------------

 LDA part: xc-table for Pade appr. of Perdew
 generate k-points for:    7    7    7
 POSCAR, INCAR and KPOINTS ok, starting setup
 FFT: planning ...
 WAVECAR not read
 entering main loop
       N       E                     dE             d eps       ncg     rms          rms(c)
DAV:   1     0.416407512538E+03    0.41641E+03   -0.27399E+04 10240   0.146E+03
DAV:   2    -0.436561448052E+02   -0.46006E+03   -0.44086E+03 11904   0.372E+02
DAV:   3    -0.813443379185E+02   -0.37688E+02   -0.37502E+02 14976   0.998E+01
DAV:   4    -0.847692467755E+02   -0.34249E+01   -0.34117E+01 16920   0.235E+01
DAV:   5    -0.849953665484E+02   -0.22612E+00   -0.22611E+00 14184   0.460E+00    0.333E+01
RMM:   6    -0.769371900797E+02    0.80582E+01   -0.30059E+01 10892   0.229E+01    0.139E+01
RMM:   7    -0.774168862579E+02   -0.47970E+00   -0.46320E+00 15156   0.988E+00    0.710E+00
RMM:   8    -0.775923587557E+02   -0.17547E+00   -0.83526E-01 16677   0.471E+00    0.368E+00
RMM:   9    -0.776269870837E+02   -0.34628E-01   -0.27569E-01 16562   0.306E+00    0.104E+00
RMM:  10    -0.776538325617E+02   -0.26845E-01   -0.19467E-01 18948   0.186E+00    0.356E-01
RMM:  11    -0.776640375591E+02   -0.10205E-01   -0.85110E-02 19624   0.109E+00    0.270E-01
RMM:  12    -0.776683939632E+02   -0.43564E-02   -0.33273E-02 19917   0.687E-01    0.184E-01
RMM:  13    -0.776701300342E+02   -0.17361E-02   -0.13096E-02 19564   0.443E-01    0.671E-02
RMM:  14    -0.776708701701E+02   -0.74014E-03   -0.57047E-03 19659   0.307E-01    0.346E-02
RMM:  15    -0.776711476329E+02   -0.27746E-03   -0.24893E-03 19317   0.190E-01    0.289E-02
RMM:  16    -0.776712564723E+02   -0.10884E-03   -0.10486E-03 19015   0.122E-01    0.161E-02
RMM:  17    -0.776712953840E+02   -0.38912E-04   -0.41272E-04 18669   0.805E-02    0.529E-03
RMM:  18    -0.776713177652E+02   -0.22381E-04   -0.17875E-04 17331   0.549E-02    0.571E-03
RMM:  19    -0.776713217737E+02   -0.40086E-05   -0.43225E-05 13711   0.390E-02
   1 F= -.77671322E+02 E0= -.77671322E+02  d E =0.000000E+00  mag=     0.0000
