       N       E                     dE             d eps       ncg     rms          rms(c)
DAV:   1     0.420178267348E+03    0.42018E+03   -0.27748E+04 10248   0.147E+03
DAV:   2    -0.445876663837E+02   -0.46477E+03   -0.44603E+03 11976   0.378E+02
DAV:   3    -0.814088737673E+02   -0.36821E+02   -0.36652E+02 15040   0.988E+01
DAV:   4    -0.847266089537E+02   -0.33177E+01   -0.33052E+01 16600   0.236E+01
DAV:   5    -0.849289006573E+02   -0.20229E+00   -0.20228E+00 14264   0.455E+00    0.357E+01
RMM:   6    -0.765774319013E+02    0.83515E+01   -0.29829E+01 10912   0.232E+01    0.153E+01
RMM:   7    -0.769899198216E+02   -0.41249E+00   -0.50669E+00 15114   0.102E+01    0.764E+00
RMM:   8    -0.771798483731E+02   -0.18993E+00   -0.82022E-01 16594   0.480E+00    0.386E+00
RMM:   9    -0.772157840873E+02   -0.35936E-01   -0.30046E-01 16642   0.313E+00    0.111E+00
RMM:  10    -0.772440370983E+02   -0.28253E-01   -0.20756E-01 18977   0.191E+00    0.367E-01
RMM:  11    -0.772546897422E+02   -0.10653E-01   -0.88301E-02 19714   0.112E+00    0.294E-01
RMM:  12    -0.772589361642E+02   -0.42464E-02   -0.33668E-02 19932   0.691E-01    0.214E-01
RMM:  13    -0.772605279446E+02   -0.15918E-02   -0.12394E-02 19411   0.446E-01    0.788E-02
RMM:  14    -0.772612849204E+02   -0.75698E-03   -0.56757E-03 19718   0.307E-01    0.329E-02
RMM:  15    -0.772615604837E+02   -0.27556E-03   -0.24039E-03 19498   0.190E-01    0.306E-02
RMM:  16    -0.772616674741E+02   -0.10699E-03   -0.10322E-03 18966   0.120E-01    0.187E-02
RMM:  17    -0.772617021580E+02   -0.34684E-04   -0.36076E-04 18656   0.779E-02    0.698E-03
RMM:  18    -0.772617193909E+02   -0.17233E-04   -0.15994E-04 17027   0.523E-02    0.514E-03
RMM:  19    -0.772617231366E+02   -0.37457E-05   -0.37562E-05 13663   0.383E-02
   1 F= -.77261723E+02 E0= -.77261723E+02  d E =0.000000E+00  mag=    -0.0000
