       N       E                     dE             d eps       ncg     rms          rms(c)
DAV:   1     0.545453423720E+03    0.54545E+03   -0.42663E+04 35984   0.142E+03
DAV:   2    -0.716277542392E+02   -0.61708E+03   -0.60073E+03 44872   0.334E+02
DAV:   3    -0.109776814812E+03   -0.38149E+02   -0.37892E+02 43368   0.895E+01
DAV:   4    -0.110369451096E+03   -0.59264E+00   -0.59020E+00 44576   0.118E+01
DAV:   5    -0.110382879637E+03   -0.13429E-01   -0.13406E-01 43540   0.170E+00    0.422E+01
DAV:   6    -0.932232897351E+02    0.17160E+02   -0.56807E+01 40680   0.356E+01    0.212E+01
DAV:   7    -0.973112180631E+02   -0.40879E+01   -0.98880E+00 42376   0.127E+01    0.646E+00
DAV:   8    -0.980576826886E+02   -0.74646E+00   -0.17964E+00 42852   0.551E+00    0.285E+00
DAV:   9    -0.980506113270E+02    0.70714E-02   -0.83392E-02 42588   0.180E+00    0.138E+00
DAV:  10    -0.980499410581E+02    0.67027E-03   -0.30883E-02 48156   0.107E+00    0.430E-01
DAV:  11    -0.980509609569E+02   -0.10199E-02   -0.47915E-03 42116   0.372E-01    0.259E-01
DAV:  12    -0.980513397645E+02   -0.37881E-03   -0.17723E-03 45804   0.234E-01    0.112E-01
DAV:  13    -0.980514337426E+02   -0.93978E-04   -0.15949E-04 42576   0.791E-02    0.464E-02
DAV:  14    -0.980514501858E+02   -0.16443E-04   -0.98578E-05 44328   0.549E-02    0.178E-02
DAV:  15    -0.980514546176E+02   -0.44318E-05   -0.99319E-06 27240   0.199E-02
   1 F= -.98051455E+02 E0= -.98051455E+02  d E =0.000000E+00  mag=    -0.0004
