 running on   48 total cores
 distrk:  each k-point on   48 cores,    1 groups
 distr:  one band on    6 cores,    8 groups
 using from now: INCAR     
 vasp.6.1.2 22Jul20 (build Mar 31 2021 18:09:49) complex                        
  
 POSCAR found type information on POSCAR LiP O 
 POSCAR found :  3 types and     100 ions
 scaLAPACK will be used
 LDA part: xc-table for Pade appr. of Perdew
 generate k-points for:    6    3    2
 POSCAR, INCAR and KPOINTS ok, starting setup
 FFT: planning ...
 WAVECAR not read
 entering main loop
       N       E                     dE             d eps       ncg     rms          rms(c)
DAV:   1     0.449704584006E+04    0.44970E+04   -0.25639E+05 27520   0.151E+03
DAV:   2    -0.258406351367E+03   -0.47555E+04   -0.45071E+04 32392   0.387E+02
DAV:   3    -0.711787661536E+03   -0.45338E+03   -0.45004E+03 34392   0.129E+02
DAV:   4    -0.742216943822E+03   -0.30429E+02   -0.30288E+02 47616   0.267E+01
DAV:   5    -0.748586156188E+03   -0.63692E+01   -0.63658E+01 44336   0.727E+00    0.107E+02
DAV:   6    -0.570687927834E+03    0.17790E+03   -0.43554E+02 33120   0.392E+01    0.594E+01
DAV:   7    -0.595362525259E+03   -0.24675E+02   -0.64678E+01 34208   0.142E+01    0.205E+01
DAV:   8    -0.611346227792E+03   -0.15984E+02   -0.11947E+01 34000   0.681E+00    0.121E+01
DAV:   9    -0.632198985674E+03   -0.20853E+02   -0.10212E+01 33496   0.540E+00    0.753E+00
DAV:  10    -0.656133800216E+03   -0.23935E+02   -0.22225E+01 33856   0.673E+00    0.406E+00
DAV:  11    -0.666126321950E+03   -0.99925E+01   -0.11545E+01 34408   0.471E+00    0.280E+00
DAV:  12    -0.668584527659E+03   -0.24582E+01   -0.33750E+00 33432   0.285E+00    0.175E+00
DAV:  13    -0.668765676126E+03   -0.18115E+00   -0.50745E-01 32016   0.126E+00    0.946E-01
DAV:  14    -0.668781598683E+03   -0.15923E-01   -0.72998E-02 34440   0.590E-01    0.569E-01
DAV:  15    -0.668780042066E+03    0.15566E-02   -0.17257E-02 31256   0.305E-01    0.279E-01
DAV:  16    -0.668780647058E+03   -0.60499E-03   -0.47166E-03 37128   0.153E-01    0.101E-01
DAV:  17    -0.668781181977E+03   -0.53492E-03   -0.15330E-03 34320   0.835E-02    0.544E-02
DAV:  18    -0.668781317227E+03   -0.13525E-03   -0.23802E-04 33776   0.391E-02    0.302E-02
DAV:  19    -0.668781349382E+03   -0.32155E-04   -0.56008E-05 28880   0.181E-02    0.139E-02
DAV:  20    -0.668781356026E+03   -0.66436E-05   -0.13568E-05 22920   0.987E-03
   1 F= -.66878136E+03 E0= -.66878136E+03  d E =0.000000E+00  mag=     0.0000
