    8    8    1    2
  0.1323436E+02  0.3812273E-09  0.4235858E-09  0.7570718E-09  0.5000000E-15
  1.000000000000000E-004
  CAR 
 unknown system                          
     28    138     22
 
  0.0000000E+00  0.0000000E+00  0.0000000E+00  0.2777778E-02
    1      -42.229394    -42.229128   1.000000   1.000000
    2      -42.202275    -42.202008   1.000000   1.000000
    3      -42.183466    -42.183197   1.000000   1.000000
    4      -42.156982    -42.156713   1.000000   1.000000
    5      -41.673045    -41.672570   1.000000   1.000000
    6      -41.672937    -41.672463   1.000000   1.000000
    7       -6.355499     -6.355663   1.000000   1.000000
    8       -5.982554     -5.982706   1.000000   1.000000
    9       -0.444934     -0.444977   1.000000   1.000000
   10        2.336993      2.336884   1.000000   1.000000
   11        2.688961      2.688820   1.000000   1.000000
   12        3.080324      3.080236   1.000000   1.000000
   13        3.235304      3.235157   1.000000   1.000000
   14        3.606312      3.606210   0.999996   0.999998
   15        5.458412      5.458342   0.000000   0.000000
   16        6.722029      6.721893   0.000000   0.000000
   17        6.741972      6.741949   0.000000   0.000000
   18        7.704826      7.704795   0.000000   0.000000
   19        7.749317      7.749385   0.000000   0.000000
   20        8.512085      8.513018   0.000000   0.000000
   21        8.705233      8.705362   0.000000   0.000000
   22        8.908177      8.909178   0.000000   0.000000
 
  0.1000000E+00 -0.1875576E-16  0.0000000E+00  0.5555556E-02
    1      -42.228012    -42.227745   1.000000   1.000000
    2      -42.201117    -42.200850   1.000000   1.000000
    3      -42.184338    -42.184070   1.000000   1.000000
    4      -42.158031    -42.157762   1.000000   1.000000
    5      -41.673183    -41.672708   1.000000   1.000000
    6      -41.673050    -41.672576   1.000000   1.000000
    7       -6.300169     -6.300335   1.000000   1.000000
    8       -5.937577     -5.937699   1.000000   1.000000
    9       -0.357467     -0.357512   1.000000   1.000000
   10        2.348042      2.347930   1.000000   1.000000
   11        2.397347      2.397228   1.000000   1.000000
   12        2.735510      2.735425   1.000000   1.000000
   13        2.979664      2.979540   1.000000   1.000000
   14        3.216560      3.216474   1.000001   1.000000
   15        5.509214      5.509151   0.000000   0.000000
   16        6.781058      6.780975   0.000000   0.000000
   17        7.052257      7.052149   0.000000   0.000000
   18        7.810525      7.810530   0.000000   0.000000
   19        8.069039      8.068344   0.000000   0.000000
   20        8.278655      8.277539   0.000000   0.000000
   21        9.190876      9.198764   0.000000   0.000000
   22        9.221358      9.219139   0.000000   0.000000
 
  0.2000000E+00 -0.3751152E-16  0.0000000E+00  0.5555556E-02
    1      -42.224011    -42.223745   1.000000   1.000000
    2      -42.197738    -42.197470   1.000000   1.000000
    3      -42.186880    -42.186612   1.000000   1.000000
    4      -42.161078    -42.160809   1.000000   1.000000
    5      -41.673487    -41.673012   1.000000   1.000000
    6      -41.673325    -41.672850   1.000000   1.000000
    7       -6.143669     -6.143843   1.000000   1.000000
    8       -5.814542     -5.814719   1.000000   1.000000
    9       -0.097023     -0.097077   1.000000   1.000000
   10        1.778629      1.778548   1.000000   1.000000
   11        1.897000      1.896943   1.000000   1.000000
   12        2.268835      2.268752   1.000000   1.000000
   13        2.360870      2.360747   1.000000   1.000000
   14        2.654959      2.654894   1.000000   1.000000
   15        5.566678      5.566636   0.000000   0.000000
   16        7.015399      7.015249   0.000000   0.000000
   17        7.386554      7.386427   0.000000   0.000000
   18        7.406034      7.414794   0.000000   0.000000
   19        7.835275      7.833494   0.000000   0.000000
   20        8.685401      8.685551   0.000000   0.000000
   21        9.003978      9.004808   0.000000   0.000000
   22        9.169595      9.163660   0.000000   0.000000
 
  0.3000000E+00 -0.7311546E-16  0.0000000E+00  0.5555556E-02
    1      -42.218056    -42.217789   1.000000   1.000000
    2      -42.192556    -42.192288   1.000000   1.000000
    3      -42.191032    -42.190765   1.000000   1.000000
    4      -42.165881    -42.165612   1.000000   1.000000
    5      -41.673906    -41.673431   1.000000   1.000000
    6      -41.673633    -41.673157   1.000000   1.000000
    7       -5.919026     -5.919216   1.000000   1.000000
    8       -5.652640     -5.652849   1.000000   1.000000
    9        0.326466      0.326399   1.000000   1.000000
   10        0.852571      0.852539   1.000000   1.000000
   11        1.393613      1.393563   1.000000   1.000000
   12        1.408509      1.408437   1.000000   1.000000
   13        2.229283      2.229220   1.000000   1.000000
   14        2.302044      2.301908   1.000000   1.000000
   15        5.649918      5.649829   0.000000   0.000000
   16        6.173145      6.176556   0.000000   0.000000
   17        7.146236      7.145855   0.000000   0.000000
   18        7.188487      7.188370   0.000000   0.000000
   19        7.788600      7.788464   0.000000   0.000000
   20        9.182269      9.182251   0.000000   0.000000
   21       10.085893     10.072844   0.000000   0.000000
   22       10.217066     10.215929   0.000000   0.000000
 
  0.4000000E+00 -0.1000376E-15  0.0000000E+00  0.5555556E-02
    1      -42.210995    -42.210728   1.000000   1.000000
    2      -42.196605    -42.196338   1.000000   1.000000
    3      -42.186179    -42.185911   1.000000   1.000000
    4      -42.171991    -42.171722   1.000000   1.000000
    5      -41.674271    -41.673796   1.000000   1.000000
    6      -41.673862    -41.673386   1.000000   1.000000
    7       -5.693687     -5.693894   1.000000   1.000000
    8       -5.521749     -5.521970   1.000000   1.000000
    9        0.170095      0.170091   1.000000   1.000000
   10        0.771866      0.771831   1.000000   1.000000
   11        0.881080      0.880990   1.000000   1.000000
   12        1.082419      1.082356   1.000000   1.000000
   13        1.945347      1.945293   1.000000   1.000000
   14        2.044770      2.044635   1.000000   1.000000
   15        5.339201      5.338932   0.000000   0.000000
   16        5.750288      5.750201   0.000000   0.000000
   17        6.751031      6.750925   0.000000   0.000000
   18        7.311231      7.311134   0.000000   0.000000
   19        8.201678      8.201532   0.000000   0.000000
   20        9.048747      9.048778   0.000000   0.000000
   21       10.158278     10.158224   0.000000   0.000000
   22       11.175012     11.170899   0.000000   0.000000
 
  0.5000000E+00 -0.1236865E-15  0.0000000E+00  0.2777778E-02
    1      -42.204915    -42.204649   1.000000   1.000000
    2      -42.202116    -42.201849   1.000000   1.000000
    3      -42.180334    -42.180066   1.000000   1.000000
    4      -42.177697    -42.177429   1.000000   1.000000
    5      -41.674416    -41.673941   1.000000   1.000000
    6      -41.673915    -41.673440   1.000000   1.000000
    7       -5.582466     -5.582682   1.000000   1.000000
    8       -5.483759     -5.483984   1.000000   1.000000
    9       -0.079982     -0.079974   1.000000   1.000000
   10        0.538145      0.538118   1.000000   1.000000
   11        0.975059      0.974999   1.000000   1.000000
   12        1.384934      1.384811   1.000000   1.000000
   13        1.644043      1.643936   1.000000   1.000000
   14        1.846615      1.846564   1.000000   1.000000
   15        5.065366      5.065269   0.000000   0.000000
   16        5.797380      5.797294   0.000000   0.000000
   17        6.617748      6.617649   0.000000   0.000000
   18        7.358601      7.358513   0.000000   0.000000
   19        8.442050      8.441884   0.000000   0.000000
   20        8.957478      8.957539   0.000000   0.000000
   21        9.747300      9.747214   0.000000   0.000000
   22       11.470201     11.468715   0.000000   0.000000
 
 -0.5579241E-17  0.1111111E+00  0.0000000E+00  0.5555556E-02
    1      -42.228273    -42.228006   1.000000   1.000000
    2      -42.201342    -42.201075   1.000000   1.000000
    3      -42.184177    -42.183908   1.000000   1.000000
    4      -42.157859    -42.157589   1.000000   1.000000
    5      -41.673174    -41.672699   1.000000   1.000000
    6      -41.673053    -41.672579   1.000000   1.000000
    7       -6.308214     -6.308378   1.000000   1.000000
    8       -5.949306     -5.949479   1.000000   1.000000
    9       -0.358090     -0.358136   1.000000   1.000000
   10        2.110065      2.109954   1.000000   1.000000
   11        2.320199      2.320090   1.000000   1.000000
   12        2.636014      2.635902   1.000000   1.000000
   13        3.011814      3.011688   1.000000   1.000000
   14        3.517993      3.517887   1.000000   1.000000
   15        5.615645      5.615560   0.000000   0.000000
   16        7.051400      7.051372   0.000000   0.000000
   17        7.574927      7.574868   0.000000   0.000000
   18        7.688025      7.688727   0.000000   0.000000
   19        7.973500      7.973557   0.000000   0.000000
   20        8.023905      8.023837   0.000000   0.000000
   21        8.914610      8.921841   0.000000   0.000000
   22        9.153830      9.153014   0.000000   0.000000
 
  0.1000000E+00  0.1111111E+00  0.0000000E+00  0.5555556E-02
    1      -42.225738    -42.225471   1.000000   1.000000
    2      -42.199233    -42.198965   1.000000   1.000000
    3      -42.185767    -42.185499   1.000000   1.000000
    4      -42.159742    -42.159472   1.000000   1.000000
    5      -41.673372    -41.672897   1.000000   1.000000
    6      -41.673227    -41.672752   1.000000   1.000000
    7       -6.208079     -6.208250   1.000000   1.000000
    8       -5.873331     -5.873485   1.000000   1.000000
    9       -0.185245     -0.185294   1.000000   1.000000
   10        1.591179      1.591085   1.000000   1.000000
   11        2.073853      2.073758   1.000000   1.000000
   12        2.310854      2.310737   1.000000   1.000000
   13        2.597952      2.597841   1.000000   1.000000
   14        3.109490      3.109405   1.000000   1.000000
   15        5.730426      5.730309   0.000000   0.000000
   16        7.033781      7.033456   0.000000   0.000000
   17        7.481393      7.481226   0.000000   0.000000
   18        7.805782      7.805679   0.000000   0.000000
   19        8.188637      8.188659   0.000000   0.000000
   20        8.542570      8.542577   0.000000   0.000000
   21        8.682401      8.683177   0.000000   0.000000
   22        9.673398      9.670270   0.000000   0.000000
 
  0.2000000E+00  0.1111111E+00  0.0000000E+00  0.5555556E-02
    1      -42.220961    -42.220695   1.000000   1.000000
    2      -42.195119    -42.194852   1.000000   1.000000
    3      -42.188961    -42.188693   1.000000   1.000000
    4      -42.163542    -42.163273   1.000000   1.000000
    5      -41.673748    -41.673273   1.000000   1.000000
    6      -41.673523    -41.673048   1.000000   1.000000
    7       -6.021086     -6.021267   1.000000   1.000000
    8       -5.735557     -5.735752   1.000000   1.000000
    9        0.156401      0.156340   1.000000   1.000000
   10        1.119063      1.118973   1.000000   1.000000
   11        1.276854      1.276799   1.000000   1.000000
   12        1.877973      1.877895   1.000000   1.000000
   13        2.287592      2.287464   1.000000   1.000000
   14        2.455160      2.455118   1.000000   1.000000
   15        5.917339      5.917239   0.000000   0.000000
   16        6.077134      6.077382   0.000000   0.000000
   17        7.628034      7.627913   0.000000   0.000000
   18        7.871536      7.871209   0.000000   0.000000
   19        7.945478      7.945367   0.000000   0.000000
   20        9.424104      9.424534   0.000000   0.000000
   21        9.611216      9.611294   0.000000   0.000000
   22        9.728828      9.729382   0.000000   0.000000
 
  0.3000000E+00  0.1111111E+00  0.0000000E+00  0.5555556E-02
    1      -42.214591    -42.214324   1.000000   1.000000
    2      -42.193691    -42.193424   1.000000   1.000000
    3      -42.189481    -42.189213   1.000000   1.000000
    4      -42.168825    -42.168556   1.000000   1.000000
    5      -41.674141    -41.673666   1.000000   1.000000
    6      -41.673777    -41.673302   1.000000   1.000000
    7       -5.793396     -5.793594   1.000000   1.000000
    8       -5.586666     -5.586880   1.000000   1.000000
    9        0.503543      0.503515   1.000000   1.000000
   10        0.647736      0.647657   1.000000   1.000000
   11        0.793378      0.793300   1.000000   1.000000
   12        1.188713      1.188664   1.000000   1.000000
   13        1.995215      1.995181   1.000000   1.000000
   14        2.170376      2.170238   1.000000   1.000000
   15        5.131685      5.131831   0.000000   0.000000
   16        6.092907      6.092810   0.000000   0.000000
   17        7.451250      7.451115   0.000000   0.000000
   18        7.713782      7.713679   0.000000   0.000000
   19        8.201420      8.201288   0.000000   0.000000
   20        9.349117      9.349025   0.000000   0.000000
   21       10.438727     10.400049   0.000000   0.000000
   22       10.726453     10.640840   0.000000   0.000000
 
  0.4000000E+00  0.1111111E+00  0.0000000E+00  0.5555556E-02
    1      -42.207536    -42.207269   1.000000   1.000000
    2      -42.199651    -42.199384   1.000000   1.000000
    3      -42.182926    -42.182658   1.000000   1.000000
    4      -42.175161    -42.174892   1.000000   1.000000
    5      -41.674388    -41.673913   1.000000   1.000000
    6      -41.673916    -41.673441   1.000000   1.000000
    7       -5.608712     -5.608925   1.000000   1.000000
    8       -5.498890     -5.499113   1.000000   1.000000
    9        0.038722      0.038722   1.000000   1.000000
   10        0.575977      0.575920   1.000000   1.000000
   11        0.821013      0.820967   1.000000   1.000000
   12        1.224795      1.224688   1.000000   1.000000
   13        1.783835      1.783798   1.000000   1.000000
   14        1.841662      1.841533   1.000000   1.000000
   15        4.610900      4.610958   0.000000   0.000000
   16        6.198274      6.198181   0.000000   0.000000
   17        7.254140      7.253972   0.000000   0.000000
   18        7.747129      7.747034   0.000000   0.000000
   19        8.462122      8.461964   0.000000   0.000000
   20        9.051809      9.051863   0.000000   0.000000
   21        9.870793      9.870793   0.000000   0.000000
   22       10.849813     10.852635   0.000000   0.000000
 
  0.5000000E+00  0.1111111E+00  0.0000000E+00  0.5555556E-02
    1      -42.206700    -42.206433   1.000000   1.000000
    2      -42.200436    -42.200169   1.000000   1.000000
    3      -42.182109    -42.181840   1.000000   1.000000
    4      -42.175957    -42.175688   1.000000   1.000000
    5      -41.674409    -41.673933   1.000000   1.000000
    6      -41.673916    -41.673441   1.000000   1.000000
    7       -5.600273     -5.600488   1.000000   1.000000
    8       -5.488349     -5.488573   1.000000   1.000000
    9        0.024975      0.024981   1.000000   1.000000
   10        0.527396      0.527374   1.000000   1.000000
   11        0.892639      0.892565   1.000000   1.000000
   12        1.227479      1.227372   1.000000   1.000000
   13        1.795048      1.795004   1.000000   1.000000
   14        1.845256      1.845127   1.000000   1.000000
   15        4.689188      4.689239   0.000000   0.000000
   16        6.169047      6.168957   0.000000   0.000000
   17        7.191412      7.191276   0.000000   0.000000
   18        7.677834      7.677733   0.000000   0.000000
   19        8.412049      8.411886   0.000000   0.000000
   20        9.035705      9.035751   0.000000   0.000000
   21        9.858055      9.857316   0.000000   0.000000
   22       10.747146     10.741251   0.000000   0.000000
 
 -0.4000000E+00  0.1111111E+00  0.0000000E+00  0.5555556E-02
    1      -42.213744    -42.213477   1.000000   1.000000
    2      -42.194316    -42.194049   1.000000   1.000000
    3      -42.188711    -42.188443   1.000000   1.000000
    4      -42.169533    -42.169264   1.000000   1.000000
    5      -41.674136    -41.673661   1.000000   1.000000
    6      -41.673780    -41.673304   1.000000   1.000000
    7       -5.773354     -5.773556   1.000000   1.000000
    8       -5.560914     -5.561131   1.000000   1.000000
    9        0.473514      0.473505   1.000000   1.000000
   10        0.650943      0.650863   1.000000   1.000000
   11        0.785923      0.785906   1.000000   1.000000
   12        1.278870      1.278778   1.000000   1.000000
   13        2.008379      2.008322   1.000000   1.000000
   14        2.199456      2.199317   1.000000   1.000000
   15        5.350313      5.350360   0.000000   0.000000
   16        6.020206      6.020117   0.000000   0.000000
   17        7.311284      7.311176   0.000000   0.000000
   18        7.495237      7.495117   0.000000   0.000000
   19        7.955188      7.955044   0.000000   0.000000
   20        9.184924      9.184895   0.000000   0.000000
   21        9.915321      9.914823   0.000000   0.000000
   22       10.247444     10.252562   0.000000   0.000000
 
 -0.3000000E+00  0.1111111E+00  0.0000000E+00  0.5555556E-02
    1      -42.220266    -42.219999   1.000000   1.000000
    2      -42.194510    -42.194242   1.000000   1.000000
    3      -42.189417    -42.189149   1.000000   1.000000
    4      -42.164082    -42.163813   1.000000   1.000000
    5      -41.673793    -41.673318   1.000000   1.000000
    6      -41.673496    -41.673021   1.000000   1.000000
    7       -5.999564     -5.999749   1.000000   1.000000
    8       -5.706583     -5.706790   1.000000   1.000000
    9        0.159651      0.159590   1.000000   1.000000
   10        1.240543      1.240494   1.000000   1.000000
   11        1.296938      1.296916   1.000000   1.000000
   12        1.905540      1.905440   1.000000   1.000000
   13        2.341329      2.341199   1.000000   1.000000
   14        2.385167      2.385088   1.000000   1.000000
   15        5.820302      5.820219   0.000000   0.000000
   16        6.458254      6.458029   0.000000   0.000000
   17        7.221202      7.221061   0.000000   0.000000
   18        7.379379      7.379251   0.000000   0.000000
   19        7.727324      7.727136   0.000000   0.000000
   20        9.044856      9.044871   0.000000   0.000000
   21        9.081648      9.080833   0.000000   0.000000
   22        9.318648      9.318631   0.000000   0.000000
 
 -0.2000000E+00  0.1111111E+00  0.0000000E+00  0.5555556E-02
    1      -42.225295    -42.225028   1.000000   1.000000
    2      -42.198812    -42.198544   1.000000   1.000000
    3      -42.186023    -42.185755   1.000000   1.000000
    4      -42.160107    -42.159838   1.000000   1.000000
    5      -41.673405    -41.672930   1.000000   1.000000
    6      -41.673217    -41.672742   1.000000   1.000000
    7       -6.192512     -6.192685   1.000000   1.000000
    8       -5.851794     -5.851980   1.000000   1.000000
    9       -0.182655     -0.182705   1.000000   1.000000
   10        1.882259      1.882185   1.000000   1.000000
   11        2.190495      2.190419   1.000000   1.000000
   12        2.360362      2.360242   1.000000   1.000000
   13        2.508169      2.508069   1.000000   1.000000
   14        2.852335      2.852235   1.000000   1.000000
   15        5.619807      5.619736   0.000000   0.000000
   16        6.942203      6.942065   0.000000   0.000000
   17        7.009489      7.009384   0.000000   0.000000
   18        7.645999      7.638255   0.000000   0.000000
   19        8.395887      8.395927   0.000000   0.000000
   20        8.503498      8.503524   0.000000   0.000000
   21        8.568334      8.568616   0.000000   0.000000
   22        8.847434      8.847296   0.000000   0.000000
 
 -0.1000000E+00  0.1111111E+00  0.0000000E+00  0.5555556E-02
    1      -42.228111    -42.227844   1.000000   1.000000
    2      -42.201209    -42.200941   1.000000   1.000000
    3      -42.184275    -42.184007   1.000000   1.000000
    4      -42.157989    -42.157720   1.000000   1.000000
    5      -41.673190    -41.672716   1.000000   1.000000
    6      -41.673059    -41.672585   1.000000   1.000000
    7       -6.302606     -6.302771   1.000000   1.000000
    8       -5.941450     -5.941601   1.000000   1.000000
    9       -0.357157     -0.357203   1.000000   1.000000
   10        2.339792      2.339680   1.000000   1.000000
   11        2.384058      2.383929   1.000000   1.000000
   12        2.643738      2.643655   1.000000   1.000000
   13        2.943156      2.943026   1.000000   1.000000
   14        3.288591      3.288524   1.000001   1.000000
   15        5.566212      5.566135   0.000000   0.000000
   16        6.844395      6.844739   0.000000   0.000000
   17        7.126928      7.126974   0.000000   0.000000
   18        8.022809      8.024334   0.000000   0.000000
   19        8.105037      8.107727   0.000000   0.000000
   20        8.255623      8.255338   0.000000   0.000000
   21        8.748123      8.705138   0.000000   0.000000
   22        9.074868      9.075895   0.000000   0.000000
 
  0.7029913E-17  0.2222222E+00  0.0000000E+00  0.5555556E-02
    1      -42.225163    -42.224897   1.000000   1.000000
    2      -42.198786    -42.198518   1.000000   1.000000
    3      -42.186216    -42.185948   1.000000   1.000000
    4      -42.160257    -42.159988   1.000000   1.000000
    5      -41.673464    -41.672989   1.000000   1.000000
    6      -41.673378    -41.672903   1.000000   1.000000
    7       -6.177991     -6.178162   1.000000   1.000000
    8       -5.863996     -5.864179   1.000000   1.000000
    9       -0.100974     -0.101025   1.000000   1.000000
   10        1.121865      1.121778   1.000000   1.000000
   11        1.753938      1.753828   1.000000   1.000000
   12        2.228843      2.228730   1.000000   1.000000
   13        2.607321      2.607214   1.000000   1.000000
   14        3.265457      3.265356   1.000000   1.000000
   15        5.868214      5.868131   0.000000   0.000000
   16        6.521712      6.521513   0.000000   0.000000
   17        7.882225      7.882276   0.000000   0.000000
   18        8.156722      8.156783   0.000000   0.000000
   19        8.716998      8.715595   0.000000   0.000000
   20        8.791861      8.789887   0.000000   0.000000
   21        9.047945      9.044324   0.000000   0.000000
   22        9.690720      9.663306   0.000000   0.000000
 
  0.1000000E+00  0.2222222E+00  0.0000000E+00  0.5555556E-02
    1      -42.222024    -42.221758   1.000000   1.000000
    2      -42.196123    -42.195855   1.000000   1.000000
    3      -42.188293    -42.188025   1.000000   1.000000
    4      -42.162722    -42.162453   1.000000   1.000000
    5      -41.673721    -41.673246   1.000000   1.000000
    6      -41.673560    -41.673085   1.000000   1.000000
    7       -6.051399     -6.051578   1.000000   1.000000
    8       -5.778464     -5.778659   1.000000   1.000000
    9        0.151284      0.151225   1.000000   1.000000
   10        0.688611      0.688537   1.000000   1.000000
   11        1.270548      1.270454   1.000000   1.000000
   12        2.154920      2.154805   1.000000   1.000000
   13        2.181473      2.181385   1.000000   1.000000
   14        2.876433      2.876358   1.000000   1.000000
   15        5.928608      5.928590   0.000000   0.000000
   16        6.165510      6.165413   0.000000   0.000000
   17        8.155100      8.155122   0.000000   0.000000
   18        8.297833      8.297748   0.000000   0.000000
   19        8.365031      8.365003   0.000000   0.000000
   20        8.981782      8.981657   0.000000   0.000000
   21        9.307270      9.307232   0.000000   0.000000
   22        9.478964      9.479227   0.000000   0.000000
 
  0.2000000E+00  0.2222222E+00  0.0000000E+00  0.5555556E-02
    1      -42.217067    -42.216800   1.000000   1.000000
    2      -42.191838    -42.191570   1.000000   1.000000
    3      -42.191795    -42.191527   1.000000   1.000000
    4      -42.166713    -42.166444   1.000000   1.000000
    5      -41.674050    -41.673575   1.000000   1.000000
    6      -41.673756    -41.673281   1.000000   1.000000
    7       -5.863199     -5.863391   1.000000   1.000000
    8       -5.655897     -5.656103   1.000000   1.000000
    9        0.411546      0.411477   1.000000   1.000000
   10        0.560327      0.560253   1.000000   1.000000
   11        0.774170      0.774094   1.000000   1.000000
   12        1.450802      1.450740   1.000000   1.000000
   13        2.078914      2.078790   1.000000   1.000000
   14        2.248327      2.248296   1.000000   1.000000
   15        5.034449      5.034453   0.000000   0.000000
   16        6.648284      6.648200   0.000000   0.000000
   17        8.018946      8.018897   0.000000   0.000000
   18        8.563091      8.563017   0.000000   0.000000
   19        8.653155      8.653032   0.000000   0.000000
   20        9.307292      9.307088   0.000000   0.000000
   21        9.732132      9.731797   0.000000   0.000000
   22       10.123035     10.124016   0.000000   0.000000
 
  0.3000000E+00  0.2222222E+00  0.0000000E+00  0.5555556E-02
    1      -42.211077    -42.210811   1.000000   1.000000
    2      -42.196645    -42.196378   1.000000   1.000000
    3      -42.186313    -42.186045   1.000000   1.000000
    4      -42.171944    -42.171675   1.000000   1.000000
    5      -41.674325    -41.673850   1.000000   1.000000
    6      -41.673961    -41.673485   1.000000   1.000000
    7       -5.668784     -5.668990   1.000000   1.000000
    8       -5.549293     -5.549508   1.000000   1.000000
    9        0.305331      0.305308   1.000000   1.000000
   10        0.374112      0.374025   1.000000   1.000000
   11        0.819963      0.819915   1.000000   1.000000
   12        1.082534      1.082436   1.000000   1.000000
   13        1.789306      1.789297   1.000000   1.000000
   14        1.953478      1.953344   1.000000   1.000000
   15        4.218074      4.218114   0.000000   0.000000
   16        7.058896      7.058892   0.000000   0.000000
   17        8.084759      8.084696   0.000000   0.000000
   18        8.700169      8.700095   0.000000   0.000000
   19        8.750400      8.750379   0.000000   0.000000
   20        9.540915      9.541684   0.000000   0.000000
   21        9.580535      9.667153   0.000000   0.000000
   22       10.148524     10.028210   0.000000   0.000000
 
  0.4000000E+00  0.2222222E+00  0.0000000E+00  0.5555556E-02
    1      -42.205187    -42.204920   1.000000   1.000000
    2      -42.201956    -42.201689   1.000000   1.000000
    3      -42.180736    -42.180467   1.000000   1.000000
    4      -42.177422    -42.177154   1.000000   1.000000
    5      -41.674481    -41.674006   1.000000   1.000000
    6      -41.674012    -41.673536   1.000000   1.000000
    7       -5.556454     -5.556670   1.000000   1.000000
    8       -5.508682     -5.508902   1.000000   1.000000
    9        0.125125      0.125128   1.000000   1.000000
   10        0.425703      0.425662   1.000000   1.000000
   11        0.513814      0.513733   1.000000   1.000000
   12        1.537358      1.537235   1.000000   1.000000
   13        1.641687      1.641672   1.000000   1.000000
   14        1.704206      1.704076   1.000000   1.000000
   15        3.928340      3.928401   0.000000   0.000000
   16        7.221109      7.221003   0.000000   0.000000
   17        8.167924      8.167845   0.000000   0.000000
   18        8.657218      8.657436   0.000000   0.000000
   19        8.730784      8.731159   0.000000   0.000000
   20        9.152727      9.154258   0.000000   0.000000
   21        9.517027      9.550731   0.000000   0.000000
   22       10.125380     10.105030   0.000000   0.000000
 
  0.5000000E+00  0.2222222E+00  0.0000000E+00  0.5555556E-02
    1      -42.209118    -42.208852   1.000000   1.000000
    2      -42.198278    -42.198011   1.000000   1.000000
    3      -42.184454    -42.184186   1.000000   1.000000
    4      -42.173708    -42.173440   1.000000   1.000000
    5      -41.674384    -41.673909   1.000000   1.000000
    6      -41.673911    -41.673436   1.000000   1.000000
    7       -5.635991     -5.636202   1.000000   1.000000
    8       -5.508966     -5.509188   1.000000   1.000000
    9        0.269209      0.269234   1.000000   1.000000
   10        0.340935      0.340891   1.000000   1.000000
   11        0.902730      0.902637   1.000000   1.000000
   12        1.093442      1.093343   1.000000   1.000000
   13        1.782128      1.782092   1.000000   1.000000
   14        1.993483      1.993346   1.000000   1.000000
   15        4.378150      4.378189   0.000000   0.000000
   16        6.996300      6.996208   0.000000   0.000000
   17        7.938246      7.938206   0.000000   0.000000
   18        8.330405      8.330146   0.000000   0.000000
   19        8.416297      8.416254   0.000000   0.000000
   20        9.427172      9.426491   0.000000   0.000000
   21        9.446752      9.443405   0.000000   0.000000
   22        9.991496      9.993018   0.000000   0.000000
 
 -0.4000000E+00  0.2222222E+00  0.0000000E+00  0.5555556E-02
    1      -42.215334    -42.215068   1.000000   1.000000
    2      -42.193083    -42.192815   1.000000   1.000000
    3      -42.190156    -42.189888   1.000000   1.000000
    4      -42.168257    -42.167988   1.000000   1.000000