       N       E                     dE             d eps       ncg     rms          rms(c)
DAV:   1     0.466388573856E+02    0.46639E+02   -0.52361E+03  4616   0.768E+02
DAV:   2    -0.103085851342E+02   -0.56947E+02   -0.54223E+02  6296   0.192E+02
DAV:   3    -0.152298222171E+02   -0.49212E+01   -0.48928E+01  7240   0.406E+01
DAV:   4    -0.152946099026E+02   -0.64788E-01   -0.64783E-01  5232   0.602E+00
DAV:   5    -0.152953015233E+02   -0.69162E-03   -0.69162E-03  6424   0.470E-01    0.116E+01
RMM:   6    -0.142114537582E+02    0.10838E+01   -0.21081E+00  5113   0.809E+00    0.504E+00
RMM:   7    -0.143028358390E+02   -0.91382E-01   -0.72909E-02  5726   0.180E+00    0.200E+00
RMM:   8    -0.143006610459E+02    0.21748E-02   -0.39102E-02  6258   0.160E+00    0.117E+00
RMM:   9    -0.143140678068E+02   -0.13407E-01   -0.23893E-02  6444   0.137E+00    0.246E-01
RMM:  10    -0.143145217142E+02   -0.45391E-03   -0.39143E-03  7160   0.454E-01    0.149E-01
RMM:  11    -0.143155337898E+02   -0.10121E-02   -0.41634E-03  6584   0.431E-01    0.231E-01
RMM:  12    -0.143150769568E+02    0.45683E-03   -0.97629E-04  6852   0.229E-01    0.926E-02
RMM:  13    -0.143150290345E+02    0.47922E-04   -0.51861E-04  7065   0.165E-01    0.167E-02
RMM:  14    -0.143150554123E+02   -0.26378E-04   -0.18733E-04  6709   0.851E-02    0.157E-02
RMM:  15    -0.143150667215E+02   -0.11309E-04   -0.75111E-05  5877   0.508E-02    0.224E-02
RMM:  16    -0.143150676262E+02   -0.90466E-06   -0.35267E-05  6001   0.397E-02
   1 F= -.14315068E+02 E0= -.14315068E+02  d E =0.000000E+00  mag=     0.0000
