 running on   12 total cores
 distrk:  each k-point on   12 cores,    1 groups
 distr:  one band on    6 cores,    2 groups
 using from now: INCAR     
 vasp.6.1.2 22Jul20 (build Mar 20 2021 11:25:07) complex                        
  
 POSCAR found type information on POSCAR P N O 
 POSCAR found :  3 types and       6 ions
 scaLAPACK will be used
 -----------------------------------------------------------------------------
|                                                                             |
|               ----> ADVICE to this user running VASP <----                  |
|                                                                             |
|     You have a (more or less) 'small supercell' and for smaller cells       |
|     it is recommended to use the reciprocal-space projection scheme!        |
|     The real-space optimization is not efficient for small cells and it     |
|     is also less accurate ...                                               |
|     Therefore, set LREAL=.FALSE. in the INCAR file.                         |
|                                                                             |
 -----------------------------------------------------------------------------

 LDA part: xc-table for Pade appr. of Perdew
 generate k-points for:    8    8   10
 POSCAR, INCAR and KPOINTS ok, starting setup
 FFT: planning ...
 WAVECAR not read
 entering main loop
       N       E                     dE             d eps       ncg     rms          rms(c)
DAV:   1     0.185883077684E+03    0.18588E+03   -0.16580E+04 28528   0.131E+03
DAV:   2    -0.378431848066E+02   -0.22373E+03   -0.21617E+03 39152   0.301E+02
DAV:   3    -0.496526395107E+02   -0.11809E+02   -0.11749E+02 36258   0.751E+01
DAV:   4    -0.498041146729E+02   -0.15148E+00   -0.15125E+00 35600   0.938E+00
DAV:   5    -0.498073326206E+02   -0.32179E-02   -0.32169E-02 35788   0.131E+00    0.269E+01
RMM:   6    -0.438231290234E+02    0.59842E+01   -0.19988E+01 28847   0.255E+01    0.116E+01
RMM:   7    -0.440888535771E+02   -0.26572E+00   -0.47733E+00 32800   0.134E+01    0.493E+00
RMM:   8    -0.440810478171E+02    0.78058E-02   -0.46040E-01 33434   0.487E+00    0.296E+00
RMM:   9    -0.440794502901E+02    0.15975E-02   -0.12181E-01 33403   0.257E+00    0.786E-01
RMM:  10    -0.440808275863E+02   -0.13773E-02   -0.27990E-02 36654   0.109E+00    0.251E-01
RMM:  11    -0.440813149406E+02   -0.48735E-03   -0.13671E-02 35105   0.696E-01    0.220E-01
RMM:  12    -0.440813179715E+02   -0.30309E-05   -0.16241E-03 35768   0.296E-01    0.114E-01
RMM:  13    -0.440812942240E+02    0.23748E-04   -0.77693E-04 34915   0.194E-01    0.296E-02
RMM:  14    -0.440813056467E+02   -0.11423E-04   -0.11974E-04 36546   0.786E-02    0.210E-02
RMM:  15    -0.440813012382E+02    0.44084E-05   -0.25898E-05 26433   0.342E-02
   1 F= -.44081301E+02 E0= -.44081301E+02  d E =0.000000E+00  mag=    -0.0001
