 running on   12 total cores
 distrk:  each k-point on   12 cores,    1 groups
 distr:  one band on    6 cores,    2 groups
 using from now: INCAR     
 vasp.6.1.2 22Jul20 (build Mar 20 2021 11:25:07) complex                        
  
 POSCAR found type information on POSCAR LiP N O 
 POSCAR found :  4 types and      12 ions
 scaLAPACK will be used
 LDA part: xc-table for Pade appr. of Perdew
 generate k-points for:    7    7    7
 POSCAR, INCAR and KPOINTS ok, starting setup
 FFT: planning ...
 WAVECAR not read
 entering main loop
       N       E                     dE             d eps       ncg     rms          rms(c)
DAV:   1     0.414351043831E+03    0.41435E+03   -0.27300E+04 10240   0.145E+03
DAV:   2    -0.432550252492E+02   -0.45761E+03   -0.43813E+03 11840   0.369E+02
DAV:   3    -0.812425868103E+02   -0.37988E+02   -0.37795E+02 14920   0.999E+01
DAV:   4    -0.846535848791E+02   -0.34110E+01   -0.33975E+01 17080   0.234E+01
DAV:   5    -0.848832046364E+02   -0.22962E+00   -0.22960E+00 14312   0.458E+00    0.323E+01
RMM:   6    -0.769402765091E+02    0.79429E+01   -0.30189E+01 10919   0.227E+01    0.132E+01
RMM:   7    -0.774466783005E+02   -0.50640E+00   -0.44558E+00 15194   0.972E+00    0.687E+00
RMM:   8    -0.776156920149E+02   -0.16901E+00   -0.84368E-01 16728   0.466E+00    0.360E+00
RMM:   9    -0.776501310253E+02   -0.34439E-01   -0.26494E-01 16482   0.304E+00    0.101E+00
RMM:  10    -0.776764942315E+02   -0.26363E-01   -0.19099E-01 18920   0.185E+00    0.356E-01
RMM:  11    -0.776865243977E+02   -0.10030E-01   -0.84272E-02 19542   0.109E+00    0.261E-01
RMM:  12    -0.776909760767E+02   -0.44517E-02   -0.33441E-02 19898   0.688E-01    0.172E-01
RMM:  13    -0.776927934217E+02   -0.18173E-02   -0.13659E-02 19647   0.443E-01    0.654E-02
RMM:  14    -0.776935239859E+02   -0.73056E-03   -0.57247E-03 19632   0.308E-01    0.352E-02
RMM:  15    -0.776938109259E+02   -0.28694E-03   -0.26208E-03 19266   0.191E-01    0.273E-02
RMM:  16    -0.776939213966E+02   -0.11047E-03   -0.10554E-03 19005   0.125E-01    0.158E-02
RMM:  17    -0.776939635220E+02   -0.42125E-04   -0.45910E-04 18628   0.837E-02    0.674E-03
RMM:  18    -0.776939899508E+02   -0.26429E-04   -0.20913E-04 17892   0.584E-02    0.636E-03
RMM:  19    -0.776939949642E+02   -0.50134E-05   -0.54730E-05 14039   0.402E-02
   1 F= -.77693995E+02 E0= -.77693995E+02  d E =0.000000E+00  mag=    -0.0000
