 running on   24 total cores
 distrk:  each k-point on   24 cores,    1 groups
 distr:  one band on    6 cores,    4 groups
 using from now: INCAR     
 vasp.6.1.2 22Jul20 (build Mar 31 2021 18:09:49) complex                        
  
 POSCAR found type information on POSCAR LiO 
 POSCAR found :  2 types and       8 ions
 scaLAPACK will be used
 -----------------------------------------------------------------------------
|                                                                             |
|               ----> ADVICE to this user running VASP <----                  |
|                                                                             |
|     You have a (more or less) 'small supercell' and for smaller cells       |
|     it is recommended to use the reciprocal-space projection scheme!        |
|     The real-space optimization is not efficient for small cells and it     |
|     is also less accurate ...                                               |
|     Therefore, set LREAL=.FALSE. in the INCAR file.                         |
|                                                                             |
 -----------------------------------------------------------------------------

 LDA part: xc-table for Pade appr. of Perdew
 generate k-points for:   12   12    4
 POSCAR, INCAR and KPOINTS ok, starting setup
 FFT: planning ...
 WAVECAR not read
 entering main loop
       N       E                     dE             d eps       ncg     rms          rms(c)
DAV:   1     0.252343029506E+03    0.25234E+03   -0.17284E+04 18368   0.137E+03
DAV:   2    -0.143879763181E+02   -0.26673E+03   -0.25648E+03 21924   0.346E+02
DAV:   3    -0.372873286032E+02   -0.22899E+02   -0.22703E+02 29252   0.847E+01
DAV:   4    -0.391118834757E+02   -0.18246E+01   -0.18169E+01 27660   0.217E+01
DAV:   5    -0.391577569900E+02   -0.45874E-01   -0.45870E-01 25956   0.315E+00    0.178E+01
RMM:   6    -0.380226081076E+02    0.11351E+01   -0.45698E+00 20518   0.109E+01    0.783E+00
RMM:   7    -0.386231571305E+02   -0.60055E+00   -0.69374E-01 23191   0.511E+00    0.389E+00
RMM:   8    -0.386986597393E+02   -0.75503E-01   -0.30088E-01 27382   0.315E+00    0.157E+00
RMM:   9    -0.387087497132E+02   -0.10090E-01   -0.99338E-02 28754   0.204E+00    0.387E-01
RMM:  10    -0.387181193857E+02   -0.93697E-02   -0.51715E-02 32454   0.116E+00    0.187E-01
RMM:  11    -0.387218172624E+02   -0.36979E-02   -0.19691E-02 33101   0.669E-01    0.127E-01
RMM:  12    -0.387230779403E+02   -0.12607E-02   -0.81895E-03 34254   0.403E-01    0.900E-02
RMM:  13    -0.387234843534E+02   -0.40641E-03   -0.31082E-03 32986   0.271E-01    0.347E-02
RMM:  14    -0.387237304661E+02   -0.24611E-03   -0.15427E-03 33428   0.188E-01    0.823E-03
RMM:  15    -0.387238150315E+02   -0.84565E-04   -0.70259E-04 31672   0.112E-01    0.898E-03
RMM:  16    -0.387238478737E+02   -0.32842E-04   -0.29854E-04 30618   0.738E-02    0.546E-03
RMM:  17    -0.387238607413E+02   -0.12868E-04   -0.11913E-04 28158   0.508E-02    0.299E-03
RMM:  18    -0.387238648772E+02   -0.41360E-05   -0.41174E-05 23902   0.371E-02
   1 F= -.38723865E+02 E0= -.38723865E+02  d E =0.000000E+00  mag=    -0.0000
