    1    1    1    2
  0.2193157E+02  0.3234806E-09  0.2967711E-09  0.2967711E-09  0.5000000E-15
  1.000000000000000E-004
  CAR 
 unknown system                          
      3    553      6
 
  0.0000000E+00  0.0000000E+00  0.0000000E+00  0.4930966E-03
    1      -46.274459    -46.272983   1.000000   1.000000
    2       -3.040873     -3.041287   1.000000   1.000000
    3       13.064259     13.064246   0.000000   0.000000
    4       14.355682     14.355587   0.000000   0.000000
    5       14.735800     14.735744   0.000000   0.000000
    6       17.003456     17.003205   0.000000   0.000000
 
  0.8333333E-01 -0.1262125E-17  0.1262125E-17  0.9861933E-03
    1      -46.273748    -46.272271   1.000000   1.000000
    2       -2.927147     -2.927564   1.000000   1.000000
    3       11.885211     11.885275   0.000000   0.000000
    4       13.873309     13.873227   0.000000   0.000000
    5       14.519663     14.519541   0.000000   0.000000
    6       17.161154     17.160822   0.000000   0.000000
 
  0.1666667E+00  0.1125150E-17 -0.1125150E-17  0.9861933E-03
    1      -46.271845    -46.270368   1.000000   1.000000
    2       -2.586219     -2.586644   1.000000   1.000000
    3        9.629088      9.629083   0.000000   0.000000
    4       13.088860     13.088796   0.000000   0.000000
    5       14.003520     14.003270   0.000000   0.000000
    6       16.799199     16.798563   0.000000   0.000000
 
  0.2500000E+00  0.1473512E-16  0.1302045E-16  0.9861933E-03
    1      -46.269249    -46.267771   1.000000   1.000000
    2       -2.020842     -2.021282   1.000000   1.000000
    3        7.343446      7.343193   0.000000   0.000000
    4       12.318569     12.318509   0.000000   0.000000
    5       13.428095     13.427741   0.000000   0.000000
    6       15.793425     15.793076   0.000000   0.000000
 
  0.3333333E+00  0.1247869E-16 -0.1247869E-16  0.9861933E-03
    1      -46.266636    -46.265158   1.000000   1.000000
    2       -1.246622     -1.247087   1.000000   1.000000
    3        5.281801      5.281500   0.000000   0.000000
    4       11.710048     11.709988   0.000000   0.000000
    5       12.953789     12.953370   0.000000   0.000000
    6       15.027105     15.026736   0.000000   0.000000
 
  0.4166667E+00 -0.9906676E-17  0.9906676E-17  0.9861933E-03
    1      -46.264739    -46.263260   1.000000   1.000000
    2       -0.342583     -0.343097   1.000000   1.000000
    3        3.589577      3.589306   0.000000   0.000000
    4       11.328211     11.328149   0.000000   0.000000
    5       12.652336     12.651880   0.000000   0.000000
    6       14.553152     14.552773   0.000000   0.000000
 
  0.5000000E+00  0.2947025E-16  0.2604090E-16  0.4930966E-03
    1      -46.264033    -46.262555   1.000000   1.000000
    2        0.225116      0.224533   1.000000   1.000000
    3        2.757009      2.756800   0.000000   0.000000
    4       11.198661     11.198600   0.000000   0.000000
    5       12.549812     12.549345   0.000000   0.000000
    6       14.393036     14.392656   0.000000   0.000000
 
  0.2132626E-17  0.7692308E-01  0.8330561E-15  0.1972387E-02
    1      -46.273507    -46.272030   1.000000   1.000000
    2       -2.925666     -2.926083   1.000000   1.000000
    3       12.607000     12.606961   0.000000   0.000000
    4       13.931095     13.931107   0.000000   0.000000
    5       14.400365     14.400305   0.000000   0.000000
    6       16.795376     16.794897   0.000000   0.000000
 
  0.8333333E-01  0.7692308E-01  0.8273794E-15  0.1972387E-02
    1      -46.272119    -46.270642   1.000000   1.000000
    2       -2.697419     -2.697841   1.000000   1.000000
    3       10.799553     10.799604   0.000000   0.000000
    4       13.265786     13.265770   0.000000   0.000000
    5       14.102392     14.102256   0.000000   0.000000
    6       16.474636     16.474074   0.000000   0.000000
 
  0.1666667E+00  0.7692308E-01  0.8398642E-15  0.1972387E-02
    1      -46.269790    -46.268313   1.000000   1.000000
    2       -2.242475     -2.242906   1.000000   1.000000
    3        8.520289      8.520058   0.000000   0.000000
    4       12.332797     12.332720   0.000000   0.000000
    5       13.466489     13.466228   0.000000   0.000000
    6       16.628994     16.628440   0.000000   0.000000
 
  0.2500000E+00  0.7692308E-01  0.8658990E-15  0.1972387E-02
    1      -46.267176    -46.265699   1.000000   1.000000
    2       -1.567436     -1.567886   1.000000   1.000000
    3        6.339379      6.339070   0.000000   0.000000
    4       11.531613     11.531515   0.000000   0.000000
    5       12.780593     12.780260   0.000000   0.000000
    6       16.186351     16.186219   0.000000   0.000000
 
  0.3333333E+00  0.7692308E-01  0.8820332E-15  0.1972387E-02
    1      -46.264966    -46.263487   1.000000   1.000000
    2       -0.704816     -0.705298   1.018487   1.018388
    3        4.435034      4.434731   0.000000   0.000000
    4       10.952789     10.952690   0.000000   0.000000
    5       12.231166     12.230804   0.000000   0.000000
    6       15.797629     15.797439   0.000000   0.000000
 
  0.4166667E+00  0.7692308E-01  0.8211518E-15  0.1972387E-02
    1      -46.263724    -46.262245   1.000000   1.000000
    2        0.157954      0.157400   1.013970   1.014140
    3        3.041164      3.040916   0.000000   0.000000
    4       10.620096     10.619987   0.000000   0.000000
    5       11.896422     11.896059   0.000000   0.000000
    6       15.659414     15.659213   0.000000   0.000000
 
  0.5000000E+00  0.7692308E-01  0.8372860E-15  0.1972387E-02
    1      -46.263853    -46.262374   1.000000   1.000000
    2        0.159344      0.158788   1.008851   1.008601
    3        3.035237      3.034990   0.000000   0.000000
    4       10.538288     10.538165   0.000000   0.000000
    5       11.804811     11.804460   0.000000   0.000000
    6       15.775395     15.775198   0.000000   0.000000
 
 -0.4166667E+00  0.7692308E-01  0.8013385E-15  0.1972387E-02
    1      -46.265272    -46.263793   1.000000   1.000000
    2       -0.704641     -0.705127   1.000153   1.000138
    3        4.423171      4.422865   0.000000   0.000000
    4       10.703261     10.703128   0.000000   0.000000
    5       11.959941     11.959615   0.000000   0.000000
    6       16.128567     16.128398   0.000000   0.000000
 
 -0.3333333E+00  0.7692308E-01  0.7940222E-15  0.1972387E-02
    1      -46.267570    -46.266092   1.000000   1.000000
    2       -1.569001     -1.569453   1.000000   1.000000
    3        6.327801      6.327482   0.000000   0.000000
    4       11.101633     11.101489   0.000000   0.000000
    5       12.346315     12.346017   0.000000   0.000000
    6       16.664677     16.664641   0.000000   0.000000
 
 -0.2500000E+00  0.7692308E-01  0.8537358E-15  0.1972387E-02
    1      -46.270184    -46.268706   1.000000   1.000000
    2       -2.244773     -2.245207   1.000000   1.000000
    3        8.524035      8.523761   0.000000   0.000000
    4       11.704811     11.704677   0.000000   0.000000
    5       12.924638     12.924377   0.000000   0.000000
    6       17.225665     17.227105   0.000000   0.000000
 
 -0.1666667E+00  0.7692308E-01  0.8004811E-15  0.1972387E-02
    1      -46.272407    -46.270930   1.000000   1.000000
    2       -2.699334     -2.699757   1.000000   1.000000
    3       10.865263     10.865194   0.000000   0.000000
    4       12.456442     12.456356   0.000000   0.000000
    5       13.614948     13.614739   0.000000   0.000000
    6       17.367618     17.368977   0.000000   0.000000
 
 -0.8333333E-01  0.7692308E-01  0.8321730E-15  0.1972387E-02
    1      -46.273623    -46.272147   1.000000   1.000000
    2       -2.926432     -2.926850   1.000000   1.000000
    3       12.711471     12.711496   0.000000   0.000000
    4       13.376959     13.376788   0.000000   0.000000
    5       14.246331     14.246201   0.000000   0.000000
    6       17.086238     17.085979   0.000000   0.000000
 
  0.1370456E-17  0.1538462E+00  0.5207094E-14  0.1972387E-02
    1      -46.270919    -46.269442   1.000000   1.000000
    2       -2.579817     -2.580240   1.000000   1.000000
    3       11.654934     11.654853   0.000000   0.000000
    4       12.290059     12.290108   0.000000   0.000000
    5       13.914314     13.914181   0.000000   0.000000
    6       15.140614     15.140268   0.000000   0.000000
 
  0.8333333E-01  0.1538462E+00  0.5195473E-14  0.1972387E-02
    1      -46.269071    -46.267594   1.000000   1.000000
    2       -2.236360     -2.236790   1.000000   1.000000
    3        9.778385      9.778244   0.000000   0.000000
    4       11.237771     11.237782   0.000000   0.000000
    5       13.432823     13.432642   0.000000   0.000000
    6       15.741983     15.741592   0.000000   0.000000
 
  0.1666667E+00  0.1538462E+00  0.5259492E-14  0.1972387E-02
    1      -46.266695    -46.265217   1.000000   1.000000
    2       -1.666890     -1.667333   1.000000   1.000000
    3        7.563661      7.563339   0.000000   0.000000
    4       10.307360     10.307227   0.000000   0.000000
    5       12.752523     12.752298   0.000000   0.000000
    6       16.487253     16.486783   0.000000   0.000000
 
  0.2500000E+00  0.1538462E+00  0.5220115E-14  0.1972387E-02
    1      -46.264462    -46.262983   1.000000   1.000000
    2       -0.883160     -0.883624   1.026193   1.026140
    3        5.507569      5.507216   0.000000   0.000000
    4        9.585725      9.585530   0.000000   0.000000
    5       12.145718     12.145480   0.000000   0.000000
    6       16.914865     16.914830   0.000000   0.000000
 
  0.3333333E+00  0.1538462E+00  0.5315538E-14  0.1972387E-02
    1      -46.262902    -46.261423   1.000000   1.000000
    2        0.050194      0.049684   0.913852   0.914406
    3        3.784320      3.783993   0.000000   0.000000
    4        9.100209      9.100002   0.000000   0.000000
    5       11.723474     11.723238   0.000000   0.000000
    6       17.061369     17.061246   0.000000   0.000000
 
  0.4166667E+00  0.1538462E+00  0.5207100E-14  0.1972387E-02
    1      -46.262493    -46.261015   1.000000   1.000000
    2        0.672661      0.672082   0.229569   0.230690
    3        2.886978      2.886712   0.000000   0.000000
    4        8.861934      8.861720   0.000000   0.000000
    5       11.521650     11.521422   0.000000   0.000000
    6       17.162781     17.162478   0.000000   0.000000
 
  0.5000000E+00  0.1538462E+00  0.5195479E-14  0.1972387E-02
    1      -46.263322    -46.261844   1.000000   1.000000
    2        0.053503      0.052986   1.008462   1.008780
    3        3.755092      3.754763   0.000000   0.000000
    4        8.875287      8.875074   0.000000   0.000000
    5       11.545112     11.544891   0.000000   0.000000
    6       17.342635     17.342487   0.000000   0.000000
 
 -0.4166667E+00  0.1538462E+00  0.5224943E-14  0.1972387E-02
    1      -46.265197    -46.263719   1.000000   1.000000
    2       -0.884845     -0.885315   1.001309   1.001246
    3        5.458141      5.457775   0.000000   0.000000
    4        9.138975      9.138773   0.000000   0.000000
    5       11.781762     11.781547   0.000000   0.000000
    6       17.546728     17.546413   0.000000   0.000000
 
 -0.3333333E+00  0.1538462E+00  0.5166050E-14  0.1972387E-02
    1      -46.267547    -46.266070   1.000000   1.000000
    2       -1.671774     -1.672223   1.000000   1.000000
    3        7.493082      7.492716   0.000000   0.000000
    4        9.650417      9.650245   0.000000   0.000000
    5       12.207516     12.207296   0.000000   0.000000
    6       17.523426     17.490658   0.000000   0.000000
 
 -0.2500000E+00  0.1538462E+00  0.5229763E-14  0.1972387E-02
    1      -46.269790    -46.268313   1.000000   1.000000
    2       -2.241471     -2.241905   1.000000   1.000000
    3        9.653730      9.653342   0.000000   0.000000
    4       10.448289     10.448206   0.000000   0.000000
    5       12.789325     12.789098   0.000000   0.000000
    6       17.169898     17.165930   0.000000   0.000000
 
 -0.1666667E+00  0.1538462E+00  0.5187922E-14  0.1972387E-02
    1      -46.271359    -46.269882   1.000000   1.000000
    2       -2.583015     -2.583441   1.000000   1.000000
    3       11.081095     11.081095   0.000000   0.000000
    4       12.008685     12.008608   0.000000   0.000000
    5       13.497453     13.497211   0.000000   0.000000
    6       16.375275     16.375414   0.000000   0.000000
 
 -0.8333333E-01  0.1538462E+00  0.5233588E-14  0.1972387E-02
    1      -46.271771    -46.270294   1.000000   1.000000
    2       -2.695565     -2.695987   1.000000   1.000000
    3       11.924833     11.924828   0.000000   0.000000
    4       12.899231     12.899280   0.000000   0.000000
    5       13.967519     13.967359   0.000000   0.000000
    6       15.871971     15.871233   0.000000   0.000000
 
 -0.1685430E-16  0.2307692E+00 -0.4625924E-14  0.1972387E-02
    1      -46.267240    -46.265762   1.000000   1.000000
    2       -2.003542     -2.003976   1.000000   1.000000
    3        9.927740      9.927572   0.000000   0.000000
    4       10.707062     10.706986   0.000000   0.000000
    5       13.286610     13.286371   0.000000   0.000000
    6       14.102867     14.103086   0.000000   0.000000
 
  0.8333333E-01  0.2307692E+00 -0.4665301E-14  0.1972387E-02
    1      -46.265331    -46.263853   1.000000   1.000000
    2       -1.545742     -1.546184   1.000000   1.000000
    3        8.509887      8.509433   0.000000   0.000000
    4        9.344562      9.344526   0.000000   0.000000
    5       12.733909     12.733674   0.000000   0.000000
    6       15.144010     15.143870   0.000000   0.000000
 
  0.1666667E+00  0.2307692E+00 -0.4591381E-14  0.1972387E-02
    1      -46.263296    -46.261818   1.000000   1.000000
    2       -0.863176     -0.863633   1.030913   1.030872
    3        6.622819      6.622352   0.000000   0.000000
    4        8.337855      8.337756   0.000000   0.000000
    5       12.161786     12.161562   0.000000   0.000000
    6       16.538747     16.538405   0.000000   0.000000
 
  0.2500000E+00  0.2307692E+00 -0.4595048E-14  0.1972387E-02
    1      -46.261672    -46.260193   1.000000   1.000000
    2        0.026551      0.026070   0.819462   0.819830
    3        4.767645      4.767202   0.000000   0.000000
    4        7.697890      7.697753   0.000000   0.000000
    5       11.707255     11.707049   0.000000   0.000000
    6       17.480018     17.479734   0.000000   0.000000
 
  0.3333333E+00  0.2307692E+00 -0.4567068E-14  0.1972387E-02
    1      -46.260948    -46.259470   1.000000   1.000000
    2        0.991321      0.990781   0.035647   0.035869
    3        3.281979      3.281590   0.000000   0.000000
    4        7.333572      7.333420   0.000000   0.000000
    5       11.424054     11.423861   0.000000   0.000000
    6       18.050925     18.050149   0.000000   0.000000
 
  0.4166667E+00  0.2307692E+00 -0.4612040E-14  0.1972387E-02
    1      -46.261285    -46.259807   1.000000   1.000000
    2        1.002543      1.001993  -0.020889  -0.020760
    3        3.233496      3.233113   0.000000   0.000000
    4        7.241741      7.241588   0.000000   0.000000
    5       11.328407     11.328221   0.000000   0.000000
    6       18.284124     18.284267   0.000000   0.000000
 
  0.5000000E+00  0.2307692E+00 -0.4631616E-14  0.1972387E-02
    1      -46.262583    -46.261104   1.000000   1.000000
    2        0.028546      0.028051   0.920285   0.920708
    3        4.633027      4.632583   0.000000   0.000000
    4        7.447666      7.447528   0.000000   0.000000
    5       11.416727     11.416538   0.000000   0.000000
    6       18.018239     18.017582   0.000000   0.000000
 
 -0.4166667E+00  0.2307692E+00 -0.4582308E-14  0.1972387E-02
    1      -46.264504    -46.263025   1.000000   1.000000
    2       -0.870210     -0.870678   1.004161   1.004105
    3        6.283369      6.282896   0.000000   0.000000
    4        8.066716      8.066606   0.000000   0.000000
    5       11.676185     11.675979   0.000000   0.000000
    6       17.386080     17.388207   0.000000   0.000000
 
 -0.3333333E+00  0.2307692E+00 -0.4633268E-14  0.1972387E-02
    1      -46.266537    -46.265060   1.000000   1.000000
    2       -1.555880     -1.556332   1.000000   1.000000
    3        7.643734      7.643338   0.000000   0.000000
    4        9.426049      9.425909   0.000000   0.000000
    5       12.096541     12.096300   0.000000   0.000000
    6       16.626478     16.626403   0.000000   0.000000
 
 -0.2500000E+00  0.2307692E+00 -0.4576832E-14  0.1972387E-02
    1      -46.268164    -46.266686   1.000000   1.000000
    2       -2.011844     -2.012285   1.000000   1.000000
    3        8.696250      8.696106   0.000000   0.000000
    4       11.208589     11.208537   0.000000   0.000000
    5       12.725369     12.725051   0.000000   0.000000
    6       15.434832     15.434606   0.000000   0.000000
 
 -0.1666667E+00  0.2307692E+00 -0.4630743E-14  0.1972387E-02
    1      -46.268895    -46.267418   1.000000   1.000000
    2       -2.237263     -2.237696   1.000000   1.000000
    3        9.754750      9.754709   0.000000   0.000000
    4       11.947985     11.947960   0.000000   0.000000
    5       13.273258     13.272977   0.000000   0.000000
    6       15.368032     15.368037   0.000000   0.000000
 
 -0.8333333E-01  0.2307692E+00 -0.4626192E-14  0.1972387E-02
    1      -46.268558    -46.267081   1.000000   1.000000
    2       -2.234152     -2.234583   1.000000   1.000000
    3       10.734087     10.734007   0.000000   0.000000
    4       11.146222     11.146270   0.000000   0.000000
    5       13.358957     13.358759   0.000000   0.000000
    6       14.851070     14.850591   0.000000   0.000000
 
  0.2740912E-17  0.3076923E+00 -0.2439525E-15  0.1972387E-02
    1      -46.263374    -46.261896   1.000000   1.000000
    2       -1.203966     -1.204416   1.000000   1.000000
    3        7.587156      7.586806   0.000000   0.000000
    4        9.932717      9.932625   0.000000   0.000000
    5       12.691474     12.691157   0.000000   0.000000
    6       13.350191     13.350733   0.000000   0.000000
 
  0.8333333E-01  0.3076923E+00 -0.2317955E-15  0.1972387E-02
    1      -46.261749    -46.260271   1.000000   1.000000
    2       -0.641086     -0.641546   1.044964   1.044930
    3        6.471653      6.471223   0.000000   0.000000
    4        8.631101      8.630998   0.000000   0.000000
    5       12.143059     12.142789   0.000000   0.000000
    6       14.569728     14.569736   0.000000   0.000000
 
  0.1666667E+00  0.3076923E+00 -0.1776773E-15  0.1972387E-02
    1      -46.260338    -46.258858   1.000000   1.000000
    2        0.140271      0.139796   0.734258   0.734665
    3        5.284524      5.283990   0.000000   0.000000
    4        7.244166      7.244124   0.000000   0.000000
    5       11.712934     11.712708   0.000000   0.000000
    6       16.407676     16.407584   0.000000   0.000000
 
  0.2500000E+00  0.3076923E+00 -0.2368553E-15  0.1972387E-02
    1      -46.259533    -46.258053   1.000000   1.000000
    2        1.118388      1.117886   0.009088   0.009257
    3        3.912284      3.911728   0.000000   0.000000
    4        6.437340      6.437314   0.000000   0.000000
    5       11.408270     11.408077   0.000000   0.000000
    6       18.076523     18.078153   0.000000   0.000000
 
  0.3333333E+00  0.3076923E+00 -0.2564311E-15  0.1972387E-02
    1      -46.259552    -46.258073   1.000000   1.000000
    2        2.010339      2.009774  -0.007273  -0.007290
    3        2.796084      2.795592   0.000000   0.000000
    4        6.169578      6.169539   0.000000   0.000000
    5       11.241045     11.240866   0.000000   0.000000
    6       19.182720     19.182672   0.000000   0.000000
 
  0.4166667E+00  0.3076923E+00 -0.2062902E-15  0.1972387E-02
    1      -46.260371    -46.258893   1.000000   1.000000
    2        1.135764      1.135233  -0.031623  -0.031582
    3        3.678139      3.677633   0.000000   0.000000
    4        6.408487      6.408431   0.000000   0.000000
    5       11.215580     11.215398   0.000000   0.000000
    6       18.129836     18.129785   0.000000   0.000000
 
  0.5000000E+00  0.3076923E+00 -0.2734227E-15  0.1972387E-02
    1      -46.261810    -46.260332   1.000000   1.000000
    2        0.130771      0.130268   0.816393   0.816905
    3        4.752207      4.751752   0.000000   0.000000
    4        7.315543      7.315425   0.000000   0.000000
    5       11.329542     11.329336   0.000000   0.000000
    6       17.214988     17.214679   0.000000   0.000000
 
 -0.4166667E+00  0.3076923E+00 -0.2399813E-15  0.1972387E-02
    1      -46.263428    -46.261949   1.000000   1.000000
    2       -0.660887     -0.661367   1.017122   1.017055
    3        5.621368      5.620994   0.000000   0.000000
    4        8.880339      8.880165   0.000000   0.000000
    5       11.590890     11.590639   0.000000   0.000000
    6       16.094879     16.094742   0.000000   0.000000
 
 -0.3333333E+00  0.3076923E+00 -0.2456147E-15  0.1972387E-02
    1      -46.264824    -46.263346   1.000000   1.000000
    2       -1.222985     -1.223450   1.000000   1.000000
    3        6.483566      6.483235   0.000000   0.000000
    4       10.567914     10.567867   0.000000   0.000000
    5       12.102555     12.102187   0.000000   0.000000
    6       14.633865     14.633547   0.000000   0.000000
 
 -0.2500000E+00  0.3076923E+00 -0.2430951E-15  0.1972387E-02
    1      -46.265614    -46.264136   1.000000   1.000000
    2       -1.555698     -1.556151   1.000000   1.000000
    3        7.466219      7.465932   0.000000   0.000000
    4       11.093482     11.093421   0.000000   0.000000
    5       12.564621     12.564257   0.000000   0.000000
    6       14.645458     14.645258   0.000000   0.000000
 
 -0.1666667E+00  0.3076923E+00 -0.1873162E-15  0.1972387E-02
    1      -46.265615    -46.264137   1.000000   1.000000
    2       -1.662067     -1.662514   1.000000   1.000000
    3        8.565749      8.565511   0.000000   0.000000
    4       10.152431     10.152382   0.000000   0.000000
    5       12.611905     12.611658   0.000000   0.000000
    6       15.601830     15.601412   0.000000   0.000000
 
 -0.8333333E-01  0.3076923E+00 -0.1906977E-15  0.1972387E-02
    1      -46.264781    -46.263303   1.000000   1.000000
    2       -1.544453     -1.544898   1.000000   1.000000
    3        8.760999      8.760703   0.000000   0.000000
    4        9.759950      9.759932   0.000000   0.000000
    5       12.692245     12.691994   0.000000   0.000000
    6       14.363495     14.363384   0.000000   0.000000
 
 -0.1606057E-17  0.3846154E+00  0.5672927E-15  0.1972387E-02
    1      -46.260144    -46.258666   1.000000   1.000000
    2       -0.219468     -0.219941   1.058025   1.058104
    3        5.528044      5.527677   0.000000   0.000000
    4        9.399929      9.399832   0.000000   0.000000
    5       12.251785     12.251418   0.000000   0.000000
    6       12.824283     12.825082   0.000000   0.000000
 
  0.8333333E-01  0.3846154E+00  0.5834269E-15  0.1972387E-02
    1      -46.259129    -46.257650   1.000000   1.000000
    2        0.392792      0.392302   0.510988   0.511578
    3        4.664605      4.664204   0.000000   0.000000
    4        8.309775      8.309647   0.000000   0.000000
    5       11.761077     11.760787   0.000000   0.000000
    6       14.128396     14.128410   0.000000   0.000000
 
  0.1666667E+00  0.3846154E+00  0.4947900E-15  0.1972387E-02
    1      -46.258548    -46.257068   1.000000   1.000000
    2        1.153677      1.153166  -0.025558  -0.025461
    3        3.931462      3.930984   0.000000   0.000000
    4        6.918318      6.918237   0.000000   0.000000
    5       11.465365     11.465136   0.000000   0.000000
    6       16.136391     16.136202   0.000000   0.000000
 
  0.2500000E+00  0.3846154E+00  0.5941909E-15  0.1972387E-02
    1      -46.258476    -46.256996   1.000000   1.000000
    2        1.913913      1.913389  -0.003913  -0.003925
    3        3.247788      3.247215   0.000000   0.000000
    4        6.041985      6.041989   0.000000   0.000000
    5       11.281269     11.281075   0.000000   0.000000
    6       17.971931     18.030266   0.000000   0.000000
 
  0.3333333E+00  0.3846154E+00  0.6380807E-15  0.1972387E-02
    1      -46.259013    -46.257535   1.000000   1.000000
    2        1.922818      1.922244   0.000000   0.000000
    3        3.072004      3.071511   0.000000   0.000000
    4        6.095478      6.095450   0.000000   0.000000
    5       11.188939     11.188751   0.000000   0.000000
    6       17.919902     17.919932   0.000000   0.000000
 
  0.4166667E+00  0.3846154E+00  0.5216882E-15  0.1972387E-02
    1      -46.259969    -46.258491   1.000000   1.000000
    2        1.119002      1.118435  -0.030389  -0.030383
    3        3.488832      3.488453   0.000000   0.000000
    4        7.074337      7.074198   0.000000   0.000000
    5       11.191282     11.191072   0.000000   0.000000
    6       17.064835     17.064571   0.000000   0.000000
 
  0.5000000E+00  0.3846154E+00  0.5655780E-15  0.1972387E-02
    1      -46.261149    -46.259669   1.000000   1.000000
    2        0.340064      0.339528   0.607349   0.608278
    3        3.973657      3.973333   0.000000   0.000000
    4        8.610912      8.610724   0.000000   0.000000
    5       11.312604     11.312342   0.000000   0.000000
    6       15.732007     15.731783   0.000000   0.000000
 
 -0.4166667E+00  0.3846154E+00  0.5756033E-15  0.1972387E-02
    1      -46.262146    -46.260668   1.000000   1.000000
    2       -0.269052     -0.269559   1.042064   1.042045
    3        4.599038      4.598726   0.000000   0.000000
    4       10.151871     10.151837   0.000000   0.000000
    5       11.701938     11.701539   0.000000   0.000000
    6       14.076947     14.076604   0.000000   0.000000
 
 -0.3333333E+00  0.3846154E+00  0.6223990E-15  0.1972387E-02
    1      -46.262742    -46.261264   1.000000   1.000000
    2       -0.676438     -0.676922   1.000000   1.000000
    3        5.408846      5.408531   0.000000   0.000000
    4       10.463473     10.463418   0.000000   0.000000
    5       12.000999     12.000593   0.000000   0.000000
    6       14.085789     14.085487   0.000000   0.000000
 
 -0.2500000E+00  0.3846154E+00  0.5681500E-15  0.1972387E-02
    1      -46.262780    -46.261302   1.000000   1.000000
    2       -0.874316     -0.874785   1.000000   1.000000
    3        6.395069      6.394724   0.000000   0.000000
    4        9.384373      9.384189   0.000000   0.000000
    5       11.957045     11.956775   0.000000   0.000000
    6       16.065647     16.070300   0.000000   0.000000
 
 -0.1666667E+00  0.3846154E+00  0.5981620E-15  0.1972387E-02
    1      -46.262255    -46.260777   1.000000   1.000000
    2       -0.862169     -0.862631   1.000000   1.000000
    3        7.283352      7.282877   0.000000   0.000000
    4        8.304853      8.304768   0.000000   0.000000
    5       12.059520     12.059280   0.000000   0.000000
    6       15.655583     15.655203   0.000000   0.000000
 
 -0.8333333E-01  0.3846154E+00  0.6621808E-15  0.1972387E-02
    1      -46.261287    -46.259809   1.000000   1.000000
    2       -0.642256     -0.642720   1.019462   1.019403
    3        6.546421      6.546041   0.000000   0.000000
    4        8.996875      8.996755   0.000000   0.000000
    5       12.118153     12.117870   0.000000   0.000000
    6       14.049262     14.049266   0.000000   0.000000
 
 -0.3568480E-16  0.4615385E+00  0.5028554E-14  0.1972387E-02
    1      -46.258294    -46.256815   1.000000   1.000000
    2        0.734489      0.733973   0.099264   0.099704
    3        4.027669      4.027328   0.000000   0.000000
    4        9.129673      9.129573   0.000000   0.000000
    5       12.021942     12.021548   0.000000   0.000000
    6       12.553231     12.554311   0.000000   0.000000
 
  0.8333333E-01  0.4615385E+00  0.4953467E-14  0.1972387E-02
    1      -46.258099    -46.256620   1.000000   1.000000
    2        1.036340      1.035811  -0.032446  -0.032514
    3        3.765712      3.765354   0.000000   0.000000
    4        8.267887      8.267750   0.000000   0.000000
    5       11.626390     11.626091   0.000000   0.000000
    6       13.893469     13.893501   0.000000   0.000000
 
  0.1666667E+00  0.4615385E+00  0.5059119E-14  0.1972387E-02
    1      -46.258265    -46.256785   1.000000   1.000000
    2        1.140693      1.140174  -0.039349  -0.039382
    3        3.996742      3.996287   0.000000   0.000000
    4        6.991635      6.991538   0.000000   0.000000
    5       11.444896     11.444663   0.000000   0.000000
    6       15.953097     15.952840   0.000000   0.000000
 
  0.2500000E+00  0.4615385E+00  0.5055452E-14  0.1972387E-02
    1      -46.258747    -46.257268   1.000000   1.000000
    2        1.087560      1.087041  -0.049983  -0.049964
    3        4.234881      4.234338   0.000000   0.000000
    4        6.390401      6.390378   0.000000   0.000000
    5       11.338757     11.338553   0.000000   0.000000
    6       17.217902     17.217668   0.000000   0.000000
 
  0.3333333E+00  0.4615385E+00  0.5043830E-14  0.1972387E-02
    1      -46.259471    -46.257992   1.000000   1.000000
    2        0.980485      0.979935  -0.050890  -0.050873
    3        3.798494      3.798107   0.000000   0.000000
    4        7.166045      7.165901   0.000000   0.000000
    5       11.272867     11.272649   0.000000   0.000000
    6       16.931417     16.931199   0.000000   0.000000
 
  0.4166667E+00  0.4615385E+00  0.5038460E-14  0.1972387E-02
    1      -46.260192    -46.258712   1.000000   1.000000
    2        0.809510      0.808924  -0.044307  -0.044382