 running on   12 total cores
 distrk:  each k-point on   12 cores,    1 groups
 distr:  one band on    6 cores,    2 groups
 using from now: INCAR     
 vasp.6.1.2 22Jul20 (build Mar 20 2021 11:25:07) complex                        
  
 POSCAR found type information on POSCAR Li
 POSCAR found :  1 types and       1 ions
 scaLAPACK will be used
 -----------------------------------------------------------------------------
|                                                                             |
|               ----> ADVICE to this user running VASP <----                  |
|                                                                             |
|     You have a (more or less) 'small supercell' and for smaller cells       |
|     it is recommended to use the reciprocal-space projection scheme!        |
|     The real-space optimization is not efficient for small cells and it     |
|     is also less accurate ...                                               |
|     Therefore, set LREAL=.FALSE. in the INCAR file.                         |
|                                                                             |
 -----------------------------------------------------------------------------

 LDA part: xc-table for Pade appr. of Perdew
 generate k-points for:   12   13   13
 POSCAR, INCAR and KPOINTS ok, starting setup
 FFT: planning ...
 WAVECAR not read
 entering main loop
       N       E                     dE             d eps       ncg     rms          rms(c)
DAV:   1     0.650108719642E+00    0.65011E+00   -0.70722E+02 13338   0.344E+02
DAV:   2    -0.150356508517E+01   -0.21537E+01   -0.21118E+01 18780   0.489E+01
DAV:   3    -0.158788417405E+01   -0.84319E-01   -0.84061E-01 16740   0.656E+00
DAV:   4    -0.158944186215E+01   -0.15577E-02   -0.15564E-02 19458   0.842E-01
DAV:   5    -0.158945056738E+01   -0.87052E-05   -0.86404E-05 17586   0.511E-02    0.546E+00
RMM:   6    -0.181582478573E+01   -0.22637E+00   -0.65102E-02 15528   0.236E+00    0.260E+00
RMM:   7    -0.188952420650E+01   -0.73699E-01   -0.21946E-02 14966   0.151E+00    0.181E-01
RMM:   8    -0.189087959695E+01   -0.13554E-02   -0.90110E-03 16595   0.846E-01    0.922E-02
RMM:   9    -0.189113778661E+01   -0.25819E-03   -0.23800E-03 19309   0.452E-01    0.327E-02
RMM:  10    -0.189145698387E+01   -0.31920E-03   -0.13533E-03 18306   0.329E-01    0.270E-02
RMM:  11    -0.189150552747E+01   -0.48544E-04   -0.27828E-04 20550   0.139E-01    0.204E-02
RMM:  12    -0.189151352585E+01   -0.79984E-05   -0.13652E-04 19462   0.102E-01    0.926E-03
RMM:  13    -0.189152750774E+01   -0.13982E-04   -0.35755E-05 17432   0.610E-02    0.524E-03
RMM:  14    -0.189152979372E+01   -0.22860E-05   -0.15346E-05 13195   0.364E-02
   1 F= -.18915298E+01 E0= -.18915298E+01  d E =0.000000E+00  mag=    -0.0001
 -----------------------------------------------------------------------------
|                                                                             |
|           W    W    AA    RRRRR   N    N  II  N    N   GGGG   !!!           |
|           W    W   A  A   R    R  NN   N  II  NN   N  G    G  !!!           |
|           W    W  A    A  R    R  N N  N  II  N N  N  G       !!!           |
|           W WW W  AAAAAA  RRRRR   N  N N  II  N  N N  G  GGG   !            |
|           WW  WW  A    A  R   R   N   NN  II  N   NN  G    G                |
|           W    W  A    A  R    R  N    N  II  N    N   GGGG   !!!           |
|                                                                             |
|     Tetrahedron method does not include variations of the Fermi             |
|     occupations, so forces and stress will be inaccurate. We suggest        |
|     using a different smearing scheme ISMEAR = 1 or 2 for metals in         |
|     relaxations.                                                            |
|                                                                             |
 -----------------------------------------------------------------------------

