 running on    8 total cores
 distrk:  each k-point on    8 cores,    1 groups
 distr:  one band on    1 cores,    8 groups
 using from now: INCAR     
 vasp.6.1.2 22Jul20 (build Mar 20 2021 11:25:07) complex                        
  
 POSCAR found type information on POSCAR LiP N O 
 POSCAR found :  4 types and      12 ions
 scaLAPACK will be used
 -----------------------------------------------------------------------------
|                                                                             |
|           W    W    AA    RRRRR   N    N  II  N    N   GGGG   !!!           |
|           W    W   A  A   R    R  NN   N  II  NN   N  G    G  !!!           |
|           W    W  A    A  R    R  N N  N  II  N N  N  G       !!!           |
|           W WW W  AAAAAA  RRRRR   N  N N  II  N  N N  G  GGG   !            |
|           WW  WW  A    A  R   R   N   NN  II  N   NN  G    G                |
|           W    W  A    A  R    R  N    N  II  N    N   GGGG   !!!           |
|                                                                             |
|     The value NCORE = 6 specified in the INCAR file was overwritten,        |
|     because it was not compatible with the 8 processes available:           |
|     NCORE = 1                                                               |
|     was used instead, please check that this makes sense for your           |
|     machine.                                                                |
|                                                                             |
 -----------------------------------------------------------------------------

 -----------------------------------------------------------------------------
|                                                                             |
|           W    W    AA    RRRRR   N    N  II  N    N   GGGG   !!!           |
|           W    W   A  A   R    R  NN   N  II  NN   N  G    G  !!!           |
|           W    W  A    A  R    R  N N  N  II  N N  N  G       !!!           |
|           W WW W  AAAAAA  RRRRR   N  N N  II  N  N N  G  GGG   !            |
|           WW  WW  A    A  R   R   N   NN  II  N   NN  G    G                |
|           W    W  A    A  R    R  N    N  II  N    N   GGGG   !!!           |
|                                                                             |
|     For optimal performance we recommend to set                             |
|       NCORE = 4 - approx SQRT(number of cores).                             |
|     NCORE specifies how many cores store one orbital (NPAR=cpu/NCORE).      |
|     This setting can greatly improve the performance of VASP for DFT.       |
|     The default, NCORE=1 might be grossly inefficient on modern             |
|     multi-core architectures or massively parallel machines. Do your        |
|     own testing!!!!                                                         |
|     Unfortunately you need to use the default for GW and RPA                |
|     calculations (for HF NCORE is supported but not extensively tested      |
|     yet).                                                                   |
|                                                                             |
 -----------------------------------------------------------------------------

 LDA part: xc-table for Pade appr. of Perdew
 generate k-points for:    7    7    7
 POSCAR, INCAR and KPOINTS ok, starting setup
 FFT: planning ...
 WAVECAR not read
 entering main loop
       N       E                     dE             d eps       ncg     rms          rms(c)
DAV:   1     0.411843219591E+03    0.41184E+03   -0.26945E+04 10248   0.144E+03
DAV:   2    -0.414861296658E+02   -0.45333E+03   -0.43360E+03 11832   0.363E+02
DAV:   3    -0.808651535099E+02   -0.39379E+02   -0.39172E+02 15096   0.100E+02
DAV:   4    -0.840916016524E+02   -0.32264E+01   -0.32128E+01 17432   0.233E+01
DAV:   5    -0.843349945712E+02   -0.24339E+00   -0.24338E+00 14392   0.449E+00    0.302E+01
RMM:   6    -0.766201281726E+02    0.77149E+01   -0.30572E+01 10877   0.223E+01    0.121E+01
RMM:   7    -0.771602653386E+02   -0.54014E+00   -0.40794E+00 15277   0.927E+00    0.639E+00
RMM:   8    -0.773127992070E+02   -0.15253E+00   -0.85126E-01 16841   0.448E+00    0.342E+00
RMM:   9    -0.773476234176E+02   -0.34824E-01   -0.24798E-01 16361   0.298E+00    0.945E-01
RMM:  10    -0.773720567469E+02   -0.24433E-01   -0.18053E-01 18865   0.178E+00    0.356E-01
RMM:  11    -0.773815399190E+02   -0.94832E-02   -0.80624E-02 19368   0.106E+00    0.247E-01
RMM:  12    -0.773861326690E+02   -0.45928E-02   -0.33157E-02 19812   0.682E-01    0.151E-01
RMM:  13    -0.773879786736E+02   -0.18460E-02   -0.14178E-02 19578   0.440E-01    0.662E-02
RMM:  14    -0.773886831532E+02   -0.70448E-03   -0.57160E-03 19601   0.310E-01    0.354E-02
RMM:  15    -0.773889927781E+02   -0.30962E-03   -0.29554E-03 19234   0.196E-01    0.233E-02
RMM:  16    -0.773891129045E+02   -0.12013E-03   -0.11398E-03 18934   0.132E-01    0.158E-02
RMM:  17    -0.773891644509E+02   -0.51546E-04   -0.56928E-04 18525   0.916E-02    0.978E-03
RMM:  18    -0.773891990098E+02   -0.34559E-04   -0.28072E-04 18213   0.654E-02    0.838E-03
RMM:  19    -0.773892086311E+02   -0.96213E-05   -0.10430E-04 15669   0.447E-02    0.649E-03
RMM:  20    -0.773892097839E+02   -0.11528E-05   -0.30786E-05 13274   0.362E-02
   1 F= -.77389210E+02 E0= -.77389210E+02  d E =0.000000E+00  mag=     0.0000
