   16   16    1    2
  0.1167813E+02  0.4690793E-09  0.5043864E-09  0.9240513E-09  0.5000000E-15
  1.000000000000000E-004
  CAR 
 unknown system                          
     80     99     54
 
  0.0000000E+00  0.0000000E+00  0.0000000E+00  0.5102041E-02
    1      -16.396680    -16.396695   1.000000   1.000000
    2      -15.671477    -15.671493   1.000000   1.000000
    3      -14.487372    -14.487384   1.000000   1.000000
    4      -12.369824    -12.369841   1.000000   1.000000
    5      -11.845322    -11.845343   1.000000   1.000000
    6      -11.808011    -11.808032   1.000000   1.000000
    7      -11.586304    -11.586322   1.000000   1.000000
    8      -11.392714    -11.392734   1.000000   1.000000
    9      -11.296208    -11.296225   1.000000   1.000000
   10      -10.889942    -10.889970   1.000000   1.000000
   11       -8.312030     -8.312039   1.000000   1.000000
   12       -8.171229     -8.171238   1.000000   1.000000
   13       -8.086847     -8.086860   1.000000   1.000000
   14       -5.377681     -5.377695   1.000000   1.000000
   15       -5.191246     -5.191262   1.000000   1.000000
   16       -4.573437     -4.573457   1.000000   1.000000
   17       -3.965097     -3.965118   1.000000   1.000000
   18       -3.293780     -3.293802   1.000000   1.000000
   19       -2.853896     -2.853910   1.000000   1.000000
   20       -2.701610     -2.701619   1.000000   1.000000
   21       -2.027905     -2.027920   1.000000   1.000000
   22       -1.823282     -1.823292   1.000000   1.000000
   23       -1.807847     -1.807863   1.000000   1.000000
   24       -1.380189     -1.380207   1.000000   1.000000
   25        0.357334      0.357326   1.000000   1.000000
   26        0.822622      0.822610   1.000000   1.000000
   27        0.885836      0.885824   1.000000   1.000000
   28        1.172946      1.172943   1.000000   1.000000
   29        1.379862      1.379856   1.000000   1.000000
   30        1.623213      1.623200   1.000000   1.000000
   31        1.833265      1.833256   1.000000   1.000000
   32        1.852649      1.852641   1.000000   1.000000
   33        2.167051      2.167051   1.000000   1.000000
   34        2.605001      2.604997   1.000000   1.000000
   35        2.807993      2.807997   1.000000   1.000000
   36        3.299808      3.299798   1.000000   1.000000
   37        3.503016      3.503011   1.000000   1.000000
   38        3.740943      3.740948   1.000000   1.000000
   39        4.303737      4.303734   1.000000   1.000000
   40        4.711045      4.711045   1.000000   1.000000
   41        9.068960      9.068976   0.000000   0.000000
   42        9.589537      9.589551   0.000000   0.000000
   43       10.046902     10.046898   0.000000   0.000000
   44       10.130988     10.131016   0.000000   0.000000
   45       10.191906     10.191921   0.000000   0.000000
   46       10.606296     10.606291   0.000000   0.000000
   47       11.108331     11.108342   0.000000   0.000000
   48       11.343321     11.343338   0.000000   0.000000
   49       11.552327     11.552322   0.000000   0.000000
   50       11.685731     11.685734   0.000000   0.000000
   51       11.992317     11.992336   0.000000   0.000000
   52       12.563906     12.563910   0.000000   0.000000
   53       13.082266     13.082913   0.000000   0.000000
   54       13.269334     13.263696   0.000000   0.000000
 
  0.1428571E+00  0.1083703E-16 -0.2409199E-17  0.1020408E-01
    1      -16.319826    -16.319840   1.000000   1.000000
    2      -15.636281    -15.636297   1.000000   1.000000
    3      -14.410385    -14.410398   1.000000   1.000000
    4      -12.775225    -12.775239   1.000000   1.000000
    5      -12.298570    -12.298589   1.000000   1.000000
    6      -11.722160    -11.722178   1.000000   1.000000
    7      -11.622422    -11.622443   1.000000   1.000000
    8      -11.252080    -11.252102   1.000000   1.000000
    9      -11.017442    -11.017462   1.000000   1.000000
   10      -10.874135    -10.874162   1.000000   1.000000
   11       -8.808194     -8.808201   1.000000   1.000000
   12       -7.936075     -7.936088   1.000000   1.000000
   13       -7.338702     -7.338713   1.000000   1.000000
   14       -5.674298     -5.674312   1.000000   1.000000
   15       -5.016770     -5.016786   1.000000   1.000000
   16       -4.501076     -4.501096   1.000000   1.000000
   17       -3.962714     -3.962735   1.000000   1.000000
   18       -3.444317     -3.444336   1.000000   1.000000
   19       -2.920578     -2.920591   1.000000   1.000000
   20       -2.543196     -2.543211   1.000000   1.000000
   21       -2.121410     -2.121421   1.000000   1.000000
   22       -1.863450     -1.863469   1.000000   1.000000
   23       -1.722259     -1.722269   1.000000   1.000000
   24       -1.328298     -1.328318   1.000000   1.000000
   25        0.306451      0.306445   1.000000   1.000000
   26        0.639765      0.639758   1.000000   1.000000
   27        0.824726      0.824713   1.000000   1.000000
   28        1.325221      1.325208   1.000000   1.000000
   29        1.444435      1.444429   1.000000   1.000000
   30        1.689465      1.689453   1.000000   1.000000
   31        1.844012      1.844006   1.000000   1.000000
   32        1.896525      1.896521   1.000000   1.000000
   33        2.127201      2.127197   1.000000   1.000000
   34        2.524641      2.524643   1.000000   1.000000
   35        2.984269      2.984268   1.000000   1.000000
   36        3.227978      3.227969   1.000000   1.000000
   37        3.436956      3.436949   1.000000   1.000000
   38        3.658210      3.658215   1.000000   1.000000
   39        4.240088      4.240085   1.000000   1.000000
   40        4.527282      4.527283   1.000000   1.000000
   41        9.132099      9.132117   0.000000   0.000000
   42        9.627516      9.627527   0.000000   0.000000
   43        9.804504      9.804524   0.000000   0.000000
   44       10.223449     10.223465   0.000000   0.000000
   45       10.318774     10.318781   0.000000   0.000000
   46       10.679245     10.679249   0.000000   0.000000
   47       10.825812     10.825815   0.000000   0.000000
   48       11.419985     11.419980   0.000000   0.000000
   49       11.569408     11.569425   0.000000   0.000000
   50       11.778080     11.778086   0.000000   0.000000
   51       12.177095     12.177105   0.000000   0.000000
   52       12.409453     12.409452   0.000000   0.000000
   53       12.602530     12.602521   0.000000   0.000000
   54       13.218860     13.223193   0.000000   0.000000
 
  0.2857143E+00 -0.1153866E-16 -0.5177323E-16  0.1020408E-01
    1      -16.108209    -16.108224   1.000000   1.000000
    2      -15.560940    -15.560956   1.000000   1.000000
    3      -14.221231    -14.221245   1.000000   1.000000
    4      -13.358503    -13.358514   1.000000   1.000000
    5      -12.853207    -12.853224   1.000000   1.000000
    6      -12.020021    -12.020040   1.000000   1.000000
    7      -11.577353    -11.577372   1.000000   1.000000
    8      -11.100147    -11.100173   1.000000   1.000000
    9      -10.905321    -10.905346   1.000000   1.000000
   10      -10.741296    -10.741321   1.000000   1.000000
   11       -8.839290     -8.839295   1.000000   1.000000
   12       -7.453982     -7.453995   1.000000   1.000000
   13       -6.649748     -6.649760   1.000000   1.000000
   14       -5.954112     -5.954126   1.000000   1.000000
   15       -4.857757     -4.857773   1.000000   1.000000
   16       -4.496147     -4.496168   1.000000   1.000000
   17       -3.946626     -3.946645   1.000000   1.000000
   18       -3.617386     -3.617406   1.000000   1.000000
   19       -2.933524     -2.933536   1.000000   1.000000
   20       -2.533295     -2.533312   1.000000   1.000000
   21       -2.032429     -2.032442   1.000000   1.000000
   22       -1.992109     -1.992123   1.000000   1.000000
   23       -1.547699     -1.547709   1.000000   1.000000
   24       -1.268284     -1.268307   1.000000   1.000000
   25        0.248026      0.248025   1.000000   1.000000
   26        0.335964      0.335957   1.000000   1.000000
   27        0.897879      0.897865   1.000000   1.000000
   28        1.129501      1.129492   1.000000   1.000000
   29        1.491340      1.491333   1.000000   1.000000
   30        1.673738      1.673725   1.000000   1.000000
   31        1.794515      1.794511   1.000000   1.000000
   32        2.085710      2.085706   1.000000   1.000000
   33        2.336128      2.336123   1.000000   1.000000
   34        2.549601      2.549603   1.000000   1.000000
   35        2.956030      2.956028   1.000000   1.000000
   36        3.116193      3.116185   1.000000   1.000000
   37        3.269161      3.269152   1.000000   1.000000
   38        3.556797      3.556803   1.000000   1.000000
   39        4.110561      4.110556   1.000000   1.000000
   40        4.271313      4.271318   1.000000   1.000000
   41        9.205380      9.205407   0.000000   0.000000
   42        9.229316      9.229338   0.000000   0.000000
   43        9.914578      9.914585   0.000000   0.000000
   44       10.114753     10.114765   0.000000   0.000000
   45       10.408876     10.408882   0.000000   0.000000
   46       10.925608     10.925607   0.000000   0.000000
   47       11.015993     11.015996   0.000000   0.000000
   48       11.410028     11.410024   0.000000   0.000000
   49       11.682495     11.682509   0.000000   0.000000
   50       11.977100     11.977098   0.000000   0.000000
   51       12.168889     12.168901   0.000000   0.000000
   52       12.340695     12.340691   0.000000   0.000000
   53       12.559492     12.559491   0.000000   0.000000
   54       13.094278     13.094308   0.000000   0.000000
 
  0.4285714E+00  0.2632766E-16  0.4636210E-16  0.1020408E-01
    1      -15.846912    -15.846929   1.000000   1.000000
    2      -15.544956    -15.544972   1.000000   1.000000
    3      -14.121159    -14.121173   1.000000   1.000000
    4      -13.582294    -13.582307   1.000000   1.000000
    5      -13.289900    -13.289913   1.000000   1.000000
    6      -12.323775    -12.323793   1.000000   1.000000
    7      -11.562805    -11.562824   1.000000   1.000000
    8      -10.979889    -10.979916   1.000000   1.000000
    9      -10.895992    -10.896016   1.000000   1.000000
   10      -10.786118    -10.786143   1.000000   1.000000
   11       -8.493531     -8.493537   1.000000   1.000000
   12       -7.080242     -7.080256   1.000000   1.000000
   13       -6.856071     -6.856083   1.000000   1.000000
   14       -5.437417     -5.437433   1.000000   1.000000
   15       -4.926757     -4.926773   1.000000   1.000000
   16       -4.632509     -4.632527   1.000000   1.000000
   17       -3.963489     -3.963507   1.000000   1.000000
   18       -3.658066     -3.658086   1.000000   1.000000
   19       -2.744016     -2.744032   1.000000   1.000000
   20       -2.562780     -2.562795   1.000000   1.000000
   21       -2.242543     -2.242562   1.000000   1.000000
   22       -1.803493     -1.803502   1.000000   1.000000
   23       -1.415992     -1.416003   1.000000   1.000000
   24       -1.298069     -1.298092   1.000000   1.000000
   25        0.148029      0.148024   1.000000   1.000000
   26        0.262777      0.262776   1.000000   1.000000
   27        0.718503      0.718491   1.000000   1.000000
   28        1.087650      1.087641   1.000000   1.000000
   29        1.415425      1.415419   1.000000   1.000000
   30        1.696022      1.696022   1.000000   1.000000
   31        1.874725      1.874714   1.000000   1.000000
   32        2.126367      2.126358   1.000000   1.000000
   33        2.288663      2.288659   1.000000   1.000000
   34        2.658256      2.658252   1.000000   1.000000
   35        2.758102      2.758101   1.000000   1.000000
   36        2.990429      2.990425   1.000000   1.000000
   37        3.269170      3.269161   1.000000   1.000000
   38        3.496604      3.496611   1.000000   1.000000
   39        3.963486      3.963483   1.000000   1.000000
   40        4.331859      4.331859   1.000000   1.000000
   41        8.740726      8.740759   0.000000   0.000000
   42        9.235252      9.235278   0.000000   0.000000
   43        9.976758      9.976757   0.000000   0.000000
   44       10.240526     10.240535   0.000000   0.000000
   45       10.614436     10.614434   0.000000   0.000000
   46       11.038135     11.038121   0.000000   0.000000
   47       11.435011     11.435026   0.000000   0.000000
   48       11.499535     11.499544   0.000000   0.000000
   49       11.876003     11.876002   0.000000   0.000000
   50       12.022805     12.022809   0.000000   0.000000
   51       12.121318     12.121323   0.000000   0.000000
   52       12.319124     12.319132   0.000000   0.000000
   53       12.592530     12.592531   0.000000   0.000000
   54       12.872450     12.872432   0.000000   0.000000
 
 -0.1472042E-17  0.1428571E+00 -0.7048259E-17  0.1020408E-01
    1      -16.347157    -16.347172   1.000000   1.000000
    2      -15.670631    -15.670647   1.000000   1.000000
    3      -14.455424    -14.455437   1.000000   1.000000
    4      -12.548167    -12.548184   1.000000   1.000000
    5      -12.062341    -12.062358   1.000000   1.000000
    6      -11.842079    -11.842098   1.000000   1.000000
    7      -11.690280    -11.690303   1.000000   1.000000
    8      -11.368913    -11.368934   1.000000   1.000000
    9      -10.991116    -10.991137   1.000000   1.000000
   10      -10.857741    -10.857769   1.000000   1.000000
   11       -8.799434     -8.799440   1.000000   1.000000
   12       -7.970787     -7.970800   1.000000   1.000000
   13       -7.494315     -7.494325   1.000000   1.000000
   14       -5.548226     -5.548239   1.000000   1.000000
   15       -5.040493     -5.040510   1.000000   1.000000
   16       -4.566196     -4.566216   1.000000   1.000000
   17       -3.960697     -3.960718   1.000000   1.000000
   18       -3.450874     -3.450894   1.000000   1.000000
   19       -2.864484     -2.864497   1.000000   1.000000
   20       -2.480964     -2.480977   1.000000   1.000000
   21       -2.078813     -2.078825   1.000000   1.000000
   22       -2.011563     -2.011580   1.000000   1.000000
   23       -1.669232     -1.669244   1.000000   1.000000
   24       -1.393489     -1.393508   1.000000   1.000000
   25        0.193348      0.193342   1.000000   1.000000
   26        0.641360      0.641347   1.000000   1.000000
   27        0.933257      0.933241   1.000000   1.000000
   28        1.239925      1.239924   1.000000   1.000000
   29        1.553480      1.553467   1.000000   1.000000
   30        1.601453      1.601448   1.000000   1.000000
   31        1.792601      1.792594   1.000000   1.000000
   32        1.864883      1.864878   1.000000   1.000000
   33        2.249675      2.249674   1.000000   1.000000
   34        2.557314      2.557313   1.000000   1.000000
   35        2.900615      2.900615   1.000000   1.000000
   36        3.241271      3.241262   1.000000   1.000000
   37        3.443836      3.443832   1.000000   1.000000
   38        3.672801      3.672806   1.000000   1.000000
   39        4.238119      4.238116   1.000000   1.000000
   40        4.570136      4.570137   1.000000   1.000000
   41        9.212415      9.212436   0.000000   0.000000
   42        9.482124      9.482134   0.000000   0.000000
   43        9.767657      9.767666   0.000000   0.000000
   44       10.256933     10.256959   0.000000   0.000000
   45       10.503567     10.503565   0.000000   0.000000
   46       10.663322     10.663324   0.000000   0.000000
   47       10.918349     10.918358   0.000000   0.000000
   48       11.151985     11.151999   0.000000   0.000000
   49       11.514266     11.514257   0.000000   0.000000
   50       12.085242     12.085247   0.000000   0.000000
   51       12.154479     12.154491   0.000000   0.000000
   52       12.446956     12.446959   0.000000   0.000000
   53       13.071842     13.071844   0.000000   0.000000
   54       13.477795     13.476763   0.000000   0.000000
 
  0.1428571E+00  0.1428571E+00 -0.8890788E-17  0.1020408E-01
    1      -16.275363    -16.275378   1.000000   1.000000
    2      -15.663284    -15.663300   1.000000   1.000000
    3      -14.318130    -14.318143   1.000000   1.000000
    4      -12.765121    -12.765138   1.000000   1.000000
    5      -12.376102    -12.376119   1.000000   1.000000
    6      -12.127268    -12.127282   1.000000   1.000000
    7      -11.516584    -11.516607   1.000000   1.000000
    8      -11.218174    -11.218195   1.000000   1.000000
    9      -11.069535    -11.069555   1.000000   1.000000
   10      -10.892406    -10.892434   1.000000   1.000000
   11       -8.006329     -8.006339   1.000000   1.000000
   12       -7.974671     -7.974683   1.000000   1.000000
   13       -7.752318     -7.752329   1.000000   1.000000
   14       -5.846662     -5.846675   1.000000   1.000000
   15       -4.691843     -4.691860   1.000000   1.000000
   16       -4.493575     -4.493595   1.000000   1.000000
   17       -3.882606     -3.882628   1.000000   1.000000
   18       -3.385786     -3.385806   1.000000   1.000000
   19       -3.023754     -3.023766   1.000000   1.000000
   20       -2.582441     -2.582458   1.000000   1.000000
   21       -2.070129     -2.070140   1.000000   1.000000
   22       -1.941056     -1.941066   1.000000   1.000000
   23       -1.757225     -1.757242   1.000000   1.000000
   24       -1.352313     -1.352331   1.000000   1.000000
   25        0.182045      0.182044   1.000000   1.000000
   26        0.594712      0.594698   1.000000   1.000000
   27        0.692567      0.692555   1.000000   1.000000
   28        1.217057      1.217053   1.000000   1.000000
   29        1.504496      1.504488   1.000000   1.000000
   30        1.705874      1.705860   1.000000   1.000000
   31        1.834532      1.834528   1.000000   1.000000
   32        2.058838      2.058832   1.000000   1.000000
   33        2.204549      2.204543   1.000000   1.000000
   34        2.600009      2.600008   1.000000   1.000000
   35        2.976774      2.976776   1.000000   1.000000
   36        3.178163      3.178154   1.000000   1.000000
   37        3.399318      3.399313   1.000000   1.000000
   38        3.618923      3.618926   1.000000   1.000000
   39        4.104742      4.104741   1.000000   1.000000
   40        4.461552      4.461552   1.000000   1.000000
   41        9.132627      9.132652   0.000000   0.000000
   42        9.540682      9.540696   0.000000   0.000000
   43        9.730659      9.730668   0.000000   0.000000
   44       10.121717     10.121730   0.000000   0.000000
   45       10.495935     10.495933   0.000000   0.000000
   46       10.669063     10.669066   0.000000   0.000000
   47       10.931985     10.931989   0.000000   0.000000
   48       11.375902     11.375910   0.000000   0.000000
   49       11.610722     11.610713   0.000000   0.000000
   50       11.660508     11.660511   0.000000   0.000000
   51       12.281152     12.281172   0.000000   0.000000
   52       12.617077     12.617083   0.000000   0.000000
   53       12.972324     12.972325   0.000000   0.000000
   54       13.252799     13.252785   0.000000   0.000000
 
  0.2857143E+00  0.1428571E+00  0.4002303E-16  0.1020408E-01
    1      -16.065886    -16.065902   1.000000   1.000000
    2      -15.594168    -15.594184   1.000000   1.000000
    3      -14.072098    -14.072113   1.000000   1.000000
    4      -13.315271    -13.315285   1.000000   1.000000
    5      -12.972574    -12.972589   1.000000   1.000000
    6      -12.356027    -12.356042   1.000000   1.000000
    7      -11.475708    -11.475731   1.000000   1.000000
    8      -11.061218    -11.061239   1.000000   1.000000
    9      -11.008288    -11.008312   1.000000   1.000000
   10      -10.855239    -10.855265   1.000000   1.000000
   11       -8.109287     -8.109296   1.000000   1.000000
   12       -7.486341     -7.486354   1.000000   1.000000
   13       -7.044475     -7.044486   1.000000   1.000000
   14       -6.091595     -6.091609   1.000000   1.000000
   15       -4.499111     -4.499130   1.000000   1.000000
   16       -4.385722     -4.385740   1.000000   1.000000
   17       -3.881759     -3.881780   1.000000   1.000000
   18       -3.514356     -3.514376   1.000000   1.000000
   19       -3.075136     -3.075147   1.000000   1.000000
   20       -2.696922     -2.696942   1.000000   1.000000
   21       -2.009781     -2.009794   1.000000   1.000000
   22       -1.883944     -1.883957   1.000000   1.000000
   23       -1.781926     -1.781937   1.000000   1.000000
   24       -1.237095     -1.237115   1.000000   1.000000
   25        0.134702      0.134705   1.000000   1.000000
   26        0.479101      0.479087   1.000000   1.000000
   27        0.618631      0.618623   1.000000   1.000000
   28        1.174407      1.174399   1.000000   1.000000
   29        1.399870      1.399863   1.000000   1.000000
   30        1.605708      1.605702   1.000000   1.000000
   31        1.731944      1.731933   1.000000   1.000000
   32        2.317741      2.317735   1.000000   1.000000
   33        2.377204      2.377199   1.000000   1.000000
   34        2.592742      2.592744   1.000000   1.000000
   35        2.954065      2.954058   1.000000   1.000000
   36        3.121261      3.121255   1.000000   1.000000
   37        3.304405      3.304400   1.000000   1.000000
   38        3.523321      3.523323   1.000000   1.000000
   39        3.992107      3.992103   1.000000   1.000000
   40        4.150401      4.150405   1.000000   1.000000
   41        9.133295      9.133319   0.000000   0.000000
   42        9.220738      9.220764   0.000000   0.000000
   43        9.839675      9.839679   0.000000   0.000000
   44       10.231067     10.231069   0.000000   0.000000
   45       10.477982     10.477994   0.000000   0.000000
   46       10.660855     10.660846   0.000000   0.000000
   47       11.046352     11.046362   0.000000   0.000000
   48       11.491955     11.491950   0.000000   0.000000
   49       11.730310     11.730311   0.000000   0.000000
   50       11.794171     11.794167   0.000000   0.000000
   51       12.234749     12.234758   0.000000   0.000000
   52       12.692737     12.692740   0.000000   0.000000
   53       12.982909     12.982873   0.000000   0.000000
   54       13.067930     13.066947   0.000000   0.000000
 
  0.4285714E+00  0.1428571E+00  0.2373605E-16  0.1020408E-01
    1      -15.805149    -15.805166   1.000000   1.000000
    2      -15.539488    -15.539503   1.000000   1.000000
    3      -14.005582    -14.005596   1.000000   1.000000
    4      -13.586982    -13.586998   1.000000   1.000000
    5      -13.403300    -13.403310   1.000000   1.000000
    6      -12.528812    -12.528828   1.000000   1.000000
    7      -11.483536    -11.483557   1.000000   1.000000
    8      -11.027171    -11.027192   1.000000   1.000000
    9      -10.954059    -10.954085   1.000000   1.000000
   10      -10.858299    -10.858326   1.000000   1.000000
   11       -8.006558     -8.006566   1.000000   1.000000
   12       -7.114235     -7.114248   1.000000   1.000000
   13       -6.949432     -6.949445   1.000000   1.000000
   14       -5.595235     -5.595250   1.000000   1.000000
   15       -4.795893     -4.795913   1.000000   1.000000
   16       -4.442198     -4.442215   1.000000   1.000000
   17       -3.818340     -3.818359   1.000000   1.000000
   18       -3.723560     -3.723580   1.000000   1.000000
   19       -2.898359     -2.898375   1.000000   1.000000
   20       -2.660340     -2.660358   1.000000   1.000000
   21       -2.232901     -2.232920   1.000000   1.000000
   22       -1.773749     -1.773763   1.000000   1.000000
   23       -1.553964     -1.553975   1.000000   1.000000
   24       -1.204129     -1.204148   1.000000   1.000000
   25        0.086566      0.086561   1.000000   1.000000
   26        0.401939      0.401938   1.000000   1.000000
   27        0.707716      0.707703   1.000000   1.000000
   28        0.864085      0.864079   1.000000   1.000000
   29        1.485366      1.485359   1.000000   1.000000
   30        1.666211      1.666206   1.000000   1.000000
   31        1.730861      1.730854   1.000000   1.000000
   32        2.174823      2.174815   1.000000   1.000000
   33        2.392690      2.392684   1.000000   1.000000
   34        2.561441      2.561438   1.000000   1.000000
   35        2.654706      2.654708   1.000000   1.000000
   36        3.056718      3.056712   1.000000   1.000000
   37        3.354509      3.354502   1.000000   1.000000
   38        3.529524      3.529528   1.000000   1.000000
   39        3.898027      3.898022   1.000000   1.000000
   40        4.186166      4.186168   1.000000   1.000000
   41        8.766091      8.766121   0.000000   0.000000
   42        9.305044      9.305070   0.000000   0.000000
   43        9.910585      9.910585   0.000000   0.000000
   44       10.364235     10.364242   0.000000   0.000000
   45       10.503128     10.503129   0.000000   0.000000
   46       10.772635     10.772627   0.000000   0.000000
   47       11.067024     11.067028   0.000000   0.000000
   48       11.741411     11.741413   0.000000   0.000000
   49       11.914338     11.914341   0.000000   0.000000
   50       11.998281     11.998276   0.000000   0.000000
   51       12.342597     12.342612   0.000000   0.000000
   52       12.677498     12.677496   0.000000   0.000000
   53       12.800430     12.800414   0.000000   0.000000
   54       13.122191     13.121813   0.000000   0.000000
 
 -0.4285714E+00  0.1428571E+00 -0.3896590E-16  0.1020408E-01
    1      -15.815874    -15.815891   1.000000   1.000000
    2      -15.461127    -15.461143   1.000000   1.000000
    3      -14.123543    -14.123556   1.000000   1.000000
    4      -13.776316    -13.776328   1.000000   1.000000
    5      -13.295873    -13.295887   1.000000   1.000000
    6      -12.296166    -12.296183   1.000000   1.000000
    7      -11.506884    -11.506905   1.000000   1.000000
    8      -11.084769    -11.084791   1.000000   1.000000
    9      -10.917755    -10.917780   1.000000   1.000000
   10      -10.870823    -10.870849   1.000000   1.000000
   11       -8.403387     -8.403394   1.000000   1.000000
   12       -6.856311     -6.856327   1.000000   1.000000
   13       -6.673941     -6.673952   1.000000   1.000000
   14       -5.326494     -5.326512   1.000000   1.000000
   15       -5.001493     -5.001508   1.000000   1.000000
   16       -4.732312     -4.732329   1.000000   1.000000
   17       -3.930596     -3.930616   1.000000   1.000000
   18       -3.824934     -3.824952   1.000000   1.000000
   19       -2.732605     -2.732621   1.000000   1.000000
   20       -2.634012     -2.634026   1.000000   1.000000
   21       -2.313982     -2.314001   1.000000   1.000000
   22       -1.670001     -1.670016   1.000000   1.000000
   23       -1.466132     -1.466148   1.000000   1.000000
   24       -1.208662     -1.208680   1.000000   1.000000
   25        0.131319      0.131308   1.000000   1.000000
   26        0.357342      0.357344   1.000000   1.000000
   27        0.701001      0.700989   1.000000   1.000000
   28        1.107329      1.107322   1.000000   1.000000
   29        1.427378      1.427373   1.000000   1.000000
   30        1.743529      1.743529   1.000000   1.000000
   31        1.817026      1.817015   1.000000   1.000000
   32        1.856878      1.856872   1.000000   1.000000
   33        2.252677      2.252674   1.000000   1.000000
   34        2.584544      2.584541   1.000000   1.000000
   35        2.807102      2.807103   1.000000   1.000000
   36        2.990062      2.990057   1.000000   1.000000
   37        3.242723      3.242715   1.000000   1.000000
   38        3.510609      3.510615   1.000000   1.000000
   39        3.946793      3.946788   1.000000   1.000000
   40        4.261468      4.261469   1.000000   1.000000
   41        8.820956      8.820987   0.000000   0.000000
   42        9.270309      9.270334   0.000000   0.000000
   43       10.020400     10.020405   0.000000   0.000000
   44       10.243828     10.243830   0.000000   0.000000
   45       10.600372     10.600376   0.000000   0.000000
   46       10.882102     10.882111   0.000000   0.000000
   47       10.969490     10.969478   0.000000   0.000000
   48       11.844056     11.844060   0.000000   0.000000
   49       11.941894     11.941899   0.000000   0.000000
   50       12.048659     12.048663   0.000000   0.000000
   51       12.311345     12.311349   0.000000   0.000000
   52       12.584029     12.584025   0.000000   0.000000
   53       12.790413     12.790495   0.000000   0.000000
   54       13.008089     13.006679   0.000000   0.000000
 
 -0.2857143E+00  0.1428571E+00 -0.2523064E-16  0.1020408E-01
    1      -16.059560    -16.059576   1.000000   1.000000
    2      -15.481594    -15.481611   1.000000   1.000000
    3      -14.289785    -14.289798   1.000000   1.000000
    4      -13.522259    -13.522271   1.000000   1.000000
    5      -12.950686    -12.950701   1.000000   1.000000
    6      -11.807004    -11.807023   1.000000   1.000000
    7      -11.553955    -11.553976   1.000000   1.000000
    8      -11.234559    -11.234582   1.000000   1.000000
    9      -10.918426    -10.918451   1.000000   1.000000
   10      -10.738896    -10.738921   1.000000   1.000000
   11       -9.073861     -9.073865   1.000000   1.000000
   12       -7.089463     -7.089477   1.000000   1.000000
   13       -6.123810     -6.123824   1.000000   1.000000
   14       -5.829546     -5.829561   1.000000   1.000000
   15       -5.314330     -5.314346   1.000000   1.000000
   16       -4.477729     -4.477749   1.000000   1.000000
   17       -4.006162     -4.006180   1.000000   1.000000