       N       E                     dE             d eps       ncg     rms          rms(c)
DAV:   1     0.477179659727E+03    0.47718E+03   -0.40689E+04 21384   0.137E+03
DAV:   2    -0.100805985369E+03   -0.57799E+03   -0.55397E+03 27148   0.313E+02
DAV:   3    -0.137004422004E+03   -0.36198E+02   -0.35909E+02 26592   0.840E+01
DAV:   4    -0.137676444045E+03   -0.67202E+00   -0.66942E+00 27696   0.119E+01
DAV:   5    -0.137693847706E+03   -0.17404E-01   -0.17380E-01 26254   0.180E+00    0.496E+01
DAV:   6    -0.116726289585E+03    0.20968E+02   -0.67852E+01 24850   0.329E+01    0.252E+01
DAV:   7    -0.118731412579E+03   -0.20051E+01   -0.11465E+01 26120   0.124E+01    0.796E+00
DAV:   8    -0.118674010634E+03    0.57402E-01   -0.68631E-01 25176   0.376E+00    0.492E+00
DAV:   9    -0.118675377053E+03   -0.13664E-02   -0.74435E-02 26018   0.138E+00    0.249E+00
DAV:  10    -0.118674155815E+03    0.12212E-02   -0.29823E-02 25070   0.867E-01    0.502E-01
DAV:  11    -0.118677167614E+03   -0.30118E-02   -0.56981E-03 24254   0.422E-01    0.263E-01
DAV:  12    -0.118677739188E+03   -0.57157E-03   -0.68030E-04 27210   0.144E-01    0.148E-01
DAV:  13    -0.118678047458E+03   -0.30827E-03   -0.26631E-04 24792   0.826E-02    0.625E-02
DAV:  14    -0.118678129819E+03   -0.82361E-04   -0.55582E-05 24560   0.375E-02    0.203E-02
DAV:  15    -0.118678146916E+03   -0.17098E-04   -0.10981E-05 17054   0.176E-02    0.109E-02
DAV:  16    -0.118678151919E+03   -0.50022E-05   -0.59637E-06 16656   0.111E-02
   1 F= -.11867815E+03 E0= -.11867815E+03  d E =0.000000E+00  mag=    -0.0005
