   16   16    1    2
  0.1460586E+02  0.4622458E-09  0.5593872E-09  0.1025075E-08  0.5000000E-15
  1.000000000000000E-004
  CAR 
 unknown system                          
     64     56     46
 
  0.0000000E+00  0.0000000E+00  0.0000000E+00  0.5952381E-02
    1      -40.853414    -40.853413   1.000000   1.000000
    2      -40.849984    -40.849965   1.000000   1.000000
    3      -40.842613    -40.842674   1.000000   1.000000
    4      -40.838573    -40.838623   1.000000   1.000000
    5      -40.837348    -40.837375   1.000000   1.000000
    6      -40.836364    -40.836408   1.000000   1.000000
    7      -40.836255    -40.836219   1.000000   1.000000
    8      -40.836005    -40.835981   1.000000   1.000000
    9       -8.829120     -8.829135   1.000000   1.000000
   10       -8.549318     -8.549330   1.000000   1.000000
   11       -6.011562     -6.011572   1.000000   1.000000
   12       -5.616601     -5.616604   1.000000   1.000000
   13       -5.399132     -5.399136   1.000000   1.000000
   14       -5.348575     -5.348576   1.000000   1.000000
   15       -1.796490     -1.796494   1.000000   1.000000
   16       -1.524875     -1.524872   1.000000   1.000000
   17       -0.706008     -0.706012   1.000000   1.000000
   18        0.034789      0.034764   1.000000   1.000000
   19        0.041860      0.041859   1.000000   1.000000
   20        0.387922      0.387901   1.000000   1.000000
   21        1.044458      1.044433   1.000000   1.000000
   22        1.350980      1.350964   1.000000   1.000000
   23        1.530876      1.530859   1.000000   1.000000
   24        1.781448      1.781434   1.000000   1.000000
   25        2.421058      2.421047   1.000000   1.000000
   26        2.702585      2.702588   1.000000   1.000000
   27        3.034365      3.034359   1.000000   1.000000
   28        3.248962      3.248961   1.000000   1.000000
   29        3.720378      3.720373   1.000000   1.000000
   30        4.058998      4.058990   1.000000   1.000000
   31        4.070588      4.070576   1.000000   1.000000
   32        4.779003      4.778998   1.000000   1.000000
   33        6.129276      6.129278   0.000001   0.000001
   34        6.491374      6.491368   0.000000   0.000000
   35        6.560887      6.560889   0.000000   0.000000
   36        7.153779      7.153759   0.000000   0.000000
   37        7.470790      7.470769   0.000000   0.000000
   38        8.157900      8.157895   0.000000   0.000000
   39        8.391717      8.391684   0.000000   0.000000
   40        8.422384      8.422349   0.000000   0.000000
   41        9.038844      9.038835   0.000000   0.000000
   42        9.090969      9.090994   0.000000   0.000000
   43        9.529247      9.529244   0.000000   0.000000
   44        9.626946      9.626968   0.000000   0.000000
   45        9.812497      9.812538   0.000000   0.000000
   46       10.116419     10.116849   0.000000   0.000000
 
  0.1428571E+00  0.0000000E+00  0.0000000E+00  0.1190476E-01
    1      -40.852806    -40.852804   1.000000   1.000000
    2      -40.849593    -40.849572   1.000000   1.000000
    3      -40.842366    -40.842427   1.000000   1.000000
    4      -40.838881    -40.838912   1.000000   1.000000
    5      -40.838806    -40.838812   1.000000   1.000000
    6      -40.838158    -40.838198   1.000000   1.000000
    7      -40.835205    -40.835190   1.000000   1.000000
    8      -40.834709    -40.834708   1.000000   1.000000
    9       -8.742153     -8.742168   1.000000   1.000000
   10       -8.466405     -8.466417   1.000000   1.000000
   11       -6.332502     -6.332508   1.000000   1.000000
   12       -6.176816     -6.176821   1.000000   1.000000
   13       -5.061365     -5.061369   1.000000   1.000000
   14       -4.849075     -4.849078   1.000000   1.000000
   15       -2.156811     -2.156811   1.000000   1.000000
   16       -1.661218     -1.661217   1.000000   1.000000
   17       -0.601401     -0.601406   1.000000   1.000000
   18        0.109553      0.109530   1.000000   1.000000
   19        0.214043      0.214018   1.000000   1.000000
   20        0.313808      0.313806   1.000000   1.000000
   21        0.738877      0.738852   1.000000   1.000000
   22        1.401520      1.401505   1.000000   1.000000
   23        1.614047      1.614038   1.000000   1.000000
   24        1.771853      1.771846   1.000000   1.000000
   25        2.636838      2.636826   1.000000   1.000000
   26        2.872720      2.872721   1.000000   1.000000
   27        2.892351      2.892341   1.000000   1.000000
   28        3.270740      3.270732   1.000000   1.000000
   29        3.568584      3.568573   1.000000   1.000000
   30        3.677404      3.677391   1.000000   1.000000
   31        3.901164      3.901152   1.000000   1.000000
   32        4.830066      4.830056   1.000000   1.000000
   33        6.353881      6.353875  -0.000000  -0.000000
   34        6.657228      6.657231   0.000000   0.000000
   35        7.073379      7.073374   0.000000   0.000000
   36        7.148357      7.148352   0.000000   0.000000
   37        7.774575      7.774563   0.000000   0.000000
   38        7.925703      7.925695   0.000000   0.000000
   39        8.062153      8.062149   0.000000   0.000000
   40        8.959508      8.959487   0.000000   0.000000
   41        8.979453      8.979453   0.000000   0.000000
   42        9.372180      9.372187   0.000000   0.000000
   43        9.388740      9.388728   0.000000   0.000000
   44        9.674741      9.674739   0.000000   0.000000
   45        9.841998      9.841961   0.000000   0.000000
   46       10.169550     10.158625   0.000000   0.000000
 
  0.2857143E+00  0.0000000E+00  0.0000000E+00  0.1190476E-01
    1      -40.851074    -40.851067   1.000000   1.000000
    2      -40.848482    -40.848456   1.000000   1.000000
    3      -40.841708    -40.841770   1.000000   1.000000
    4      -40.841040    -40.841059   1.000000   1.000000
    5      -40.840856    -40.840862   1.000000   1.000000
    6      -40.838995    -40.839056   1.000000   1.000000
    7      -40.834207    -40.834196   1.000000   1.000000
    8      -40.833847    -40.833843   1.000000   1.000000
    9       -8.485688     -8.485702   1.000000   1.000000
   10       -8.223571     -8.223581   1.000000   1.000000
   11       -6.916469     -6.916475   1.000000   1.000000
   12       -6.789497     -6.789503   1.000000   1.000000
   13       -4.573861     -4.573867   1.000000   1.000000
   14       -4.212995     -4.212997   1.000000   1.000000
   15       -2.761796     -2.761795   1.000000   1.000000
   16       -2.216640     -2.216638   1.000000   1.000000
   17       -0.205998     -0.206005   1.000000   1.000000
   18        0.037679      0.037651   1.000000   1.000000
   19        0.321524      0.321506   1.000000   1.000000
   20        0.548963      0.548939   1.000000   1.000000
   21        0.758960      0.758956   1.000000   1.000000
   22        0.903570      0.903552   1.000000   1.000000
   23        1.658637      1.658635   1.000000   1.000000
   24        1.722447      1.722447   1.000000   1.000000
   25        2.249217      2.249196   1.000000   1.000000
   26        2.731843      2.731828   1.000000   1.000000
   27        2.972362      2.972345   1.000000   1.000000
   28        3.203559      3.203556   1.000000   1.000000
   29        3.604347      3.604334   1.000000   1.000000
   30        3.781908      3.781888   1.000000   1.000000
   31        3.832509      3.832494   1.000000   1.000000
   32        4.888328      4.888313   1.000000   1.000000
   33        6.579486      6.579468   0.000000   0.000000
   34        6.976818      6.976825   0.000000   0.000000
   35        7.055756      7.055762   0.000000   0.000000
   36        7.707235      7.707223   0.000000   0.000000
   37        7.804767      7.804774   0.000000   0.000000
   38        8.383908      8.383922   0.000000   0.000000
   39        8.468798      8.468803   0.000000   0.000000
   40        8.903547      8.903531   0.000000   0.000000
   41        9.030144      9.030136   0.000000   0.000000
   42        9.146123      9.146118   0.000000   0.000000
   43       10.050879     10.050825   0.000000   0.000000
   44       10.173540     10.173519   0.000000   0.000000
   45       10.289393     10.289379   0.000000   0.000000
   46       10.575614     10.524513   0.000000   0.000000
 
  0.4285714E+00  0.0000000E+00  0.0000000E+00  0.1190476E-01
    1      -40.848710    -40.848691   1.000000   1.000000
    2      -40.847446    -40.847411   1.000000   1.000000
    3      -40.843285    -40.843317   1.000000   1.000000
    4      -40.842915    -40.842934   1.000000   1.000000
    5      -40.840684    -40.840744   1.000000   1.000000
    6      -40.839742    -40.839803   1.000000   1.000000
    7      -40.833621    -40.833612   1.000000   1.000000
    8      -40.833500    -40.833493   1.000000   1.000000
    9       -8.074071     -8.074082   1.000000   1.000000
   10       -7.839486     -7.839494   1.000000   1.000000
   11       -7.534645     -7.534653   1.000000   1.000000
   12       -7.347244     -7.347252   1.000000   1.000000
   13       -4.019091     -4.019096   1.000000   1.000000
   14       -3.561042     -3.561043   1.000000   1.000000
   15       -3.405889     -3.405891   1.000000   1.000000
   16       -2.886893     -2.886892   1.000000   1.000000
   17        0.072627      0.072602   1.000000   1.000000
   18        0.163393      0.163381   1.000000   1.000000
   19        0.515256      0.515239   1.000000   1.000000
   20        0.534858      0.534840   1.000000   1.000000
   21        0.680979      0.680964   1.000000   1.000000
   22        1.146909      1.146902   1.000000   1.000000
   23        1.191015      1.191014   1.000000   1.000000
   24        1.547093      1.547094   1.000000   1.000000
   25        1.934313      1.934284   1.000000   1.000000
   26        2.090629      2.090604   1.000000   1.000000
   27        3.019527      3.019510   1.000000   1.000000
   28        3.231451      3.231440   1.000000   1.000000
   29        3.645741      3.645728   1.000000   1.000000
   30        3.857513      3.857496   1.000000   1.000000
   31        4.512834      4.512820   1.000000   1.000000
   32        4.829656      4.829641   1.000000   1.000000
   33        6.868687      6.868672   0.000000   0.000000
   34        7.008782      7.008779   0.000000   0.000000
   35        7.164528      7.164536   0.000000   0.000000
   36        7.450771      7.450779   0.000000   0.000000
   37        8.086677      8.086659   0.000000   0.000000
   38        8.519075      8.519058   0.000000   0.000000
   39        8.937344      8.937333   0.000000   0.000000
   40        9.249474      9.249471   0.000000   0.000000
   41        9.253930      9.253943   0.000000   0.000000
   42        9.856900      9.856885   0.000000   0.000000
   43       10.055089     10.055105   0.000000   0.000000
   44       10.652037     10.652055   0.000000   0.000000
   45       10.722585     10.722573   0.000000   0.000000
   46       10.922506     10.922532   0.000000   0.000000
 
  0.0000000E+00  0.1666667E+00 -0.9533813E-16  0.1190476E-01
    1      -40.852531    -40.852528   1.000000   1.000000
    2      -40.849807    -40.849791   1.000000   1.000000
    3      -40.842426    -40.842472   1.000000   1.000000
    4      -40.839371    -40.839397   1.000000   1.000000
    5      -40.839292    -40.839321   1.000000   1.000000
    6      -40.838692    -40.838713   1.000000   1.000000
    7      -40.834312    -40.834311   1.000000   1.000000
    8      -40.834095    -40.834093   1.000000   1.000000
    9       -8.783016     -8.783031   1.000000   1.000000
   10       -8.563537     -8.563549   1.000000   1.000000
   11       -5.929731     -5.929742   1.000000   1.000000
   12       -5.664291     -5.664293   1.000000   1.000000
   13       -5.539682     -5.539686   1.000000   1.000000
   14       -5.393291     -5.393294   1.000000   1.000000
   15       -1.708297     -1.708300   1.000000   1.000000
   16       -1.389620     -1.389617   1.000000   1.000000
   17       -0.680674     -0.680680   1.000000   1.000000
   18       -0.265506     -0.265509   1.000000   1.000000
   19        0.091513      0.091490   1.000000   1.000000
   20        0.568295      0.568274   1.000000   1.000000
   21        0.933291      0.933271   1.000000   1.000000
   22        1.330108      1.330095   1.000000   1.000000
   23        1.560023      1.560006   1.000000   1.000000
   24        1.733342      1.733328   1.000000   1.000000
   25        2.285160      2.285150   1.000000   1.000000
   26        2.912139      2.912142   1.000000   1.000000
   27        2.944203      2.944197   1.000000   1.000000
   28        3.523657      3.523654   1.000000   1.000000
   29        3.863879      3.863873   1.000000   1.000000
   30        3.963607      3.963599   1.000000   1.000000
   31        4.108611      4.108599   1.000000   1.000000
   32        4.627129      4.627126   1.000000   1.000000
   33        6.310674      6.310671  -0.000000  -0.000000
   34        6.551052      6.551045   0.000000   0.000000
   35        6.608685      6.608684   0.000000   0.000000
   36        7.379437      7.379421   0.000000   0.000000
   37        7.469187      7.469177   0.000000   0.000000
   38        7.682754      7.682750   0.000000   0.000000
   39        8.420445      8.420417   0.000000   0.000000
   40        8.474794      8.474762   0.000000   0.000000
   41        9.263291      9.263313   0.000000   0.000000
   42        9.329076      9.329085   0.000000   0.000000
   43        9.452736      9.452731   0.000000   0.000000
   44        9.486384      9.486382   0.000000   0.000000
   45        9.705904      9.705925   0.000000   0.000000
   46       10.120401     10.136958   0.000000   0.000000
 
  0.1428571E+00  0.1666667E+00 -0.9533813E-16  0.2380952E-01
    1      -40.852097    -40.852093   1.000000   1.000000
    2      -40.849276    -40.849259   1.000000   1.000000
    3      -40.842539    -40.842573   1.000000   1.000000
    4      -40.840595    -40.840624   1.000000   1.000000
    5      -40.839364    -40.839419   1.000000   1.000000
    6      -40.837400    -40.837419   1.000000   1.000000
    7      -40.835887    -40.835875   1.000000   1.000000
    8      -40.833266    -40.833264   1.000000   1.000000
    9       -8.696473     -8.696488   1.000000   1.000000
   10       -8.481526     -8.481537   1.000000   1.000000
   11       -6.295741     -6.295748   1.000000   1.000000
   12       -6.213763     -6.213767   1.000000   1.000000
   13       -5.143699     -5.143706   1.000000   1.000000
   14       -4.910813     -4.910816   1.000000   1.000000
   15       -2.061600     -2.061601   1.000000   1.000000
   16       -1.678689     -1.678688   1.000000   1.000000
   17       -0.505689     -0.505697   1.000000   1.000000
   18       -0.130356     -0.130376   1.000000   1.000000
   19        0.103321      0.103308   1.000000   1.000000
   20        0.654084      0.654069   1.000000   1.000000
   21        0.730113      0.730089   1.000000   1.000000
   22        1.287309      1.287295   1.000000   1.000000
   23        1.505846      1.505837   1.000000   1.000000
   24        1.834324      1.834315   1.000000   1.000000
   25        2.439437      2.439428   1.000000   1.000000
   26        2.837031      2.837019   1.000000   1.000000
   27        3.078845      3.078844   1.000000   1.000000
   28        3.598479      3.598472   1.000000   1.000000
   29        3.660105      3.660093   1.000000   1.000000
   30        3.825249      3.825235   1.000000   1.000000
   31        3.874522      3.874512   1.000000   1.000000
   32        4.853190      4.853184   1.000000   1.000000
   33        6.433109      6.433102  -0.000000  -0.000000
   34        6.643223      6.643224   0.000000   0.000000
   35        6.944062      6.944057   0.000000   0.000000
   36        7.262420      7.262417   0.000000   0.000000
   37        7.395773      7.395772   0.000000   0.000000
   38        7.872252      7.872244   0.000000   0.000000
   39        8.396919      8.396904   0.000000   0.000000
   40        8.779555      8.779541   0.000000   0.000000
   41        9.085851      9.085839   0.000000   0.000000
   42        9.344007      9.344009   0.000000   0.000000
   43        9.652820      9.652826   0.000000   0.000000
   44        9.733166      9.733163   0.000000   0.000000
   45        9.890649      9.890655   0.000000   0.000000
   46       10.167510     10.167526   0.000000   0.000000
 
  0.2857143E+00  0.1666667E+00 -0.9533813E-16  0.2380952E-01
    1      -40.850866    -40.850858   1.000000   1.000000
    2      -40.847944    -40.847918   1.000000   1.000000
    3      -40.843494    -40.843517   1.000000   1.000000
    4      -40.841016    -40.841071   1.000000   1.000000
    5      -40.839558    -40.839615   1.000000   1.000000
    6      -40.838399    -40.838421   1.000000   1.000000
    7      -40.835777    -40.835762   1.000000   1.000000
    8      -40.833103    -40.833098   1.000000   1.000000
    9       -8.441626     -8.441639   1.000000   1.000000
   10       -8.241857     -8.241867   1.000000   1.000000
   11       -6.868944     -6.868950   1.000000   1.000000
   12       -6.830593     -6.830599   1.000000   1.000000
   13       -4.612559     -4.612566   1.000000   1.000000
   14       -4.306730     -4.306732   1.000000   1.000000
   15       -2.688008     -2.688008   1.000000   1.000000
   16       -2.322998     -2.322997   1.000000   1.000000
   17       -0.318324     -0.318350   1.000000   1.000000
   18        0.019318      0.019304   1.000000   1.000000
   19        0.328431      0.328419   1.000000   1.000000
   20        0.607546      0.607526   1.000000   1.000000
   21        0.729659      0.729639   1.000000   1.000000
   22        0.935460      0.935454   1.000000   1.000000
   23        1.563120      1.563116   1.000000   1.000000
   24        1.844400      1.844398   1.000000   1.000000
   25        2.399858      2.399841   1.000000   1.000000
   26        2.703051      2.703037   1.000000   1.000000
   27        3.167069      3.167051   1.000000   1.000000
   28        3.506025      3.506010   1.000000   1.000000
   29        3.565721      3.565710   1.000000   1.000000
   30        3.644633      3.644623   1.000000   1.000000
   31        3.989535      3.989521   1.000000   1.000000
   32        5.004807      5.004793   1.000000   1.000000
   33        6.664850      6.664836   0.000000   0.000000
   34        6.980447      6.980450   0.000000   0.000000
   35        7.296002      7.296005   0.000000   0.000000
   36        7.453524      7.453532   0.000000   0.000000
   37        7.809479      7.809473   0.000000   0.000000
   38        8.103633      8.103629   0.000000   0.000000
   39        8.582217      8.582217   0.000000   0.000000
   40        8.860132      8.860126   0.000000   0.000000
   41        9.111249      9.111244   0.000000   0.000000
   42        9.410187      9.410203   0.000000   0.000000
   43        9.960307      9.960291   0.000000   0.000000
   44       10.050948     10.050964   0.000000   0.000000
   45       10.158381     10.158363   0.000000   0.000000
   46       10.342272     10.342181   0.000000   0.000000
 
  0.4285714E+00  0.1666667E+00 -0.9533813E-16  0.2380952E-01
    1      -40.849123    -40.849106   1.000000   1.000000
    2      -40.847536    -40.847503   1.000000   1.000000
    3      -40.843566    -40.843597   1.000000   1.000000
    4      -40.841413    -40.841440   1.000000   1.000000
    5      -40.840257    -40.840311   1.000000   1.000000
    6      -40.839931    -40.839988   1.000000   1.000000
    7      -40.834552    -40.834541   1.000000   1.000000
    8      -40.833592    -40.833584   1.000000   1.000000
    9       -8.035041     -8.035052   1.000000   1.000000
   10       -7.868659     -7.868668   1.000000   1.000000
   11       -7.483827     -7.483836   1.000000   1.000000
   12       -7.369220     -7.369227   1.000000   1.000000
   13       -4.022513     -4.022519   1.000000   1.000000
   14       -3.688407     -3.688408   1.000000   1.000000
   15       -3.355834     -3.355836   1.000000   1.000000
   16       -3.008842     -3.008842   1.000000   1.000000
   17       -0.211590     -0.211617   1.000000   1.000000
   18        0.116115      0.116093   1.000000   1.000000
   19        0.329333      0.329316   1.000000   1.000000
   20        0.508023      0.508008   1.000000   1.000000
   21        0.796593      0.796582   1.000000   1.000000
   22        1.321668      1.321667   1.000000   1.000000
   23        1.367413      1.367406   1.000000   1.000000
   24        1.576328      1.576328   1.000000   1.000000
   25        2.276226      2.276196   1.000000   1.000000
   26        2.495082      2.495056   1.000000   1.000000
   27        2.953651      2.953642   1.000000   1.000000
   28        3.236959      3.236952   1.000000   1.000000
   29        3.594344      3.594327   1.000000   1.000000
   30        3.688409      3.688392   1.000000   1.000000
   31        4.593708      4.593696   1.000000   1.000000
   32        4.949834      4.949819   1.000000   1.000000
   33        6.995429      6.995416   0.000000   0.000000
   34        7.221864      7.221861   0.000000   0.000000
   35        7.657343      7.657346   0.000000   0.000000
   36        7.800265      7.800265   0.000000   0.000000
   37        8.151466      8.151451   0.000000   0.000000
   38        8.528201      8.528193   0.000000   0.000000
   39        8.751164      8.751164   0.000000   0.000000
   40        8.970500      8.970500   0.000000   0.000000
   41        9.155511      9.155508   0.000000   0.000000
   42        9.304124      9.304129   0.000000   0.000000
   43        9.554471      9.554490   0.000000   0.000000
   44       10.106218     10.106230   0.000000   0.000000
   45       10.413852     10.413846   0.000000   0.000000
   46       10.815790     10.816312   0.000000   0.000000
 
  0.0000000E+00  0.3333333E+00 -0.1747337E-15  0.1190476E-01
    1      -40.850246    -40.850237   1.000000   1.000000
    2      -40.848927    -40.848915   1.000000   1.000000
    3      -40.844107    -40.844122   1.000000   1.000000
    4      -40.841909    -40.841915   1.000000   1.000000
    5      -40.840745    -40.840796   1.000000   1.000000
    6      -40.838818    -40.838873   1.000000   1.000000
    7      -40.833436    -40.833429   1.000000   1.000000
    8      -40.832355    -40.832358   1.000000   1.000000
    9       -8.681115     -8.681130   1.000000   1.000000
   10       -8.589973     -8.589984   1.000000   1.000000
   11       -5.893868     -5.893878   1.000000   1.000000
   12       -5.868050     -5.868055   1.000000   1.000000
   13       -5.600167     -5.600170   1.000000   1.000000
   14       -5.413841     -5.413845   1.000000   1.000000
   15       -1.765926     -1.765929   1.000000   1.000000
   16       -1.111432     -1.111429   1.000000   1.000000
   17       -0.727030     -0.727041   1.000000   1.000000
   18       -0.439541     -0.439544   1.000000   1.000000
   19        0.304331      0.304310   1.000000   1.000000
   20        0.606786      0.606757   1.000000   1.000000
   21        1.019273      1.019259   1.000000   1.000000
   22        1.162773      1.162761   1.000000   1.000000
   23        1.682227      1.682212   1.000000   1.000000
   24        1.692636      1.692623   1.000000   1.000000
   25        2.069952      2.069942   1.000000   1.000000
   26        2.871156      2.871150   1.000000   1.000000
   27        3.385704      3.385701   1.000000   1.000000
   28        3.410822      3.410824   1.000000   1.000000
   29        3.782119      3.782118   1.000000   1.000000
   30        4.091595      4.091582   1.000000   1.000000
   31        4.255744      4.255737   1.000000   1.000000
   32        4.566170      4.566170   1.000000   1.000000
   33        6.544642      6.544641   0.000000   0.000000
   34        6.639745      6.639744   0.000000   0.000000
   35        6.697384      6.697375   0.000000   0.000000
   36        6.838905      6.838906   0.000000   0.000000
   37        7.735002      7.734992   0.000000   0.000000
   38        8.199128      8.199110   0.000000   0.000000
   39        8.552521      8.552487   0.000000   0.000000
   40        8.589677      8.589651   0.000000   0.000000
   41        9.001199      9.001204   0.000000   0.000000
   42        9.086706      9.086699   0.000000   0.000000
   43        9.481550      9.481574   0.000000   0.000000
   44        9.767481      9.767485   0.000000   0.000000
   45        9.862633      9.862641   0.000000   0.000000
   46       10.009505     10.009597   0.000000   0.000000
 
  0.1428571E+00  0.3333333E+00 -0.1747337E-15  0.2380952E-01
    1      -40.850427    -40.850418   1.000000   1.000000
    2      -40.848035    -40.848015   1.000000   1.000000
    3      -40.844734    -40.844755   1.000000   1.000000
    4      -40.840933    -40.840952   1.000000   1.000000
    5      -40.840684    -40.840732   1.000000   1.000000
    6      -40.838866    -40.838916   1.000000   1.000000
    7      -40.834189    -40.834183   1.000000   1.000000
    8      -40.832468    -40.832468   1.000000   1.000000
    9       -8.596068     -8.596082   1.000000   1.000000
   10       -8.508678     -8.508689   1.000000   1.000000
   11       -6.400567     -6.400573   1.000000   1.000000
   12       -6.137174     -6.137178   1.000000   1.000000
   13       -5.354259     -5.354267   1.000000   1.000000
   14       -4.908470     -4.908473   1.000000   1.000000
   15       -2.017894     -2.017895   1.000000   1.000000
   16       -1.723291     -1.723290   1.000000   1.000000
   17       -0.529719     -0.529733   1.000000   1.000000
   18       -0.169054     -0.169081   1.000000   1.000000
   19        0.162849      0.162845   1.000000   1.000000
   20        0.623934      0.623914   1.000000   1.000000
   21        1.013959      1.013947   1.000000   1.000000
   22        1.121030      1.121015   1.000000   1.000000
   23        1.445129      1.445120   1.000000   1.000000
   24        1.875610      1.875600   1.000000   1.000000
   25        2.424852      2.424842   1.000000   1.000000
   26        2.828889      2.828874   1.000000   1.000000
   27        3.424497      3.424492   1.000000   1.000000
   28        3.558754      3.558746   1.000000   1.000000
   29        3.765841      3.765832   1.000000   1.000000
   30        3.854952      3.854945   1.000000   1.000000
   31        4.248440      4.248432   1.000000   1.000000
   32        4.694685      4.694682   1.000000   1.000000
   33        6.607314      6.607316   0.000000   0.000000
   34        6.742756      6.742753   0.000000   0.000000
   35        6.960074      6.960069   0.000000   0.000000
   36        7.092131      7.092127   0.000000   0.000000
   37        7.639413      7.639409   0.000000   0.000000
   38        8.185536      8.185522   0.000000   0.000000
   39        8.413261      8.413250   0.000000   0.000000
   40        8.628247      8.628242   0.000000   0.000000
   41        9.087247      9.087248   0.000000   0.000000
   42        9.199636      9.199644   0.000000   0.000000
   43        9.286982      9.286983   0.000000   0.000000
   44        9.816803      9.816797   0.000000   0.000000
   45        9.943389      9.943332   0.000000   0.000000
   46       10.451426     10.401346   0.000000   0.000000
 
  0.2857143E+00  0.3333333E+00 -0.1747337E-15  0.2380952E-01
    1      -40.850204    -40.850192   1.000000   1.000000
    2      -40.847416    -40.847382   1.000000   1.000000
    3      -40.844446    -40.844480   1.000000   1.000000
    4      -40.840569    -40.840624   1.000000   1.000000
    5      -40.839781    -40.839831   1.000000   1.000000
    6      -40.838516    -40.838543   1.000000   1.000000
    7      -40.835990    -40.835973   1.000000   1.000000
    8      -40.833195    -40.833191   1.000000   1.000000
    9       -8.347350     -8.347362   1.000000   1.000000
   10       -8.270213     -8.270223   1.000000   1.000000
   11       -6.933107     -6.933113   1.000000   1.000000
   12       -6.768138     -6.768143   1.000000   1.000000
   13       -4.788719     -4.788728   1.000000   1.000000
   14       -4.333261     -4.333262   1.000000   1.000000
   15       -2.591248     -2.591250   1.000000   1.000000
   16       -2.526531     -2.526530   1.000000   1.000000
   17       -0.486450     -0.486483   1.000000   1.000000
   18       -0.099979     -0.099996   1.000000   1.000000
   19        0.339867      0.339852   1.000000   1.000000
   20        0.512168      0.512145   1.000000   1.000000
   21        0.837484      0.837482   1.000000   1.000000
   22        0.932090      0.932081   1.000000   1.000000
   23        1.659885      1.659882   1.000000   1.000000
   24        2.015811      2.015807   1.000000   1.000000
   25        2.674931      2.674904   1.000000   1.000000
   26        2.921888      2.921877   1.000000   1.000000
   27        3.238595      3.238574   1.000000   1.000000
   28        3.369631      3.369623   1.000000   1.000000
   29        3.809324      3.809319   1.000000   1.000000
   30        4.014773      4.014763   1.000000   1.000000
   31        4.357436      4.357427   1.000000   1.000000
   32        5.057916      5.057906   1.000000   1.000000
   33        6.712071      6.712073   0.000000   0.000000
   34        6.996952      6.996943   0.000000   0.000000
   35        7.319838      7.319842   0.000000   0.000000
   36        7.591004      7.590992   0.000000   0.000000
   37        7.902449      7.902448   0.000000   0.000000
   38        8.244504      8.244508   0.000000   0.000000
   39        8.340825      8.340823   0.000000   0.000000
   40        8.714229      8.714242   0.000000   0.000000
   41        8.847903      8.847924   0.000000   0.000000