 running on   12 total cores
 distrk:  each k-point on   12 cores,    1 groups
 distr:  one band on    6 cores,    2 groups
 using from now: INCAR     
 vasp.6.1.2 22Jul20 (build Mar 20 2021 11:25:07) complex                        
  
 POSCAR found type information on POSCAR LiP 
 POSCAR found :  2 types and      16 ions
 scaLAPACK will be used
 LDA part: xc-table for Pade appr. of Perdew
 generate k-points for:    7    6    4
 POSCAR, INCAR and KPOINTS ok, starting setup
 FFT: planning ...
 WAVECAR not read
 entering main loop
       N       E                     dE             d eps       ncg     rms          rms(c)
DAV:   1     0.406192144489E+03    0.40619E+03   -0.26155E+04 10304   0.138E+03
DAV:   2    -0.257847896493E+01   -0.40877E+03   -0.37522E+03 11518   0.332E+02
DAV:   3    -0.551462673006E+02   -0.52568E+02   -0.51885E+02 14668   0.918E+01
DAV:   4    -0.630490769360E+02   -0.79028E+01   -0.78307E+01 18106   0.345E+01
DAV:   5    -0.637339058132E+02   -0.68483E+00   -0.68451E+00 14712   0.783E+00    0.218E+01
DAV:   6    -0.650369243043E+02   -0.13030E+01   -0.27852E+00 13764   0.676E+00    0.117E+01
DAV:   7    -0.663244919016E+02   -0.12876E+01   -0.76020E-01 12502   0.431E+00    0.639E+00
DAV:   8    -0.665497672807E+02   -0.22528E+00   -0.65447E-01 13416   0.308E+00    0.130E+00
DAV:   9    -0.665829665497E+02   -0.33199E-01   -0.78739E-02 15448   0.115E+00    0.532E-01
DAV:  10    -0.665872034208E+02   -0.42369E-02   -0.63933E-03 13576   0.375E-01    0.217E-01
DAV:  11    -0.665887125710E+02   -0.15092E-02   -0.20867E-03 12520   0.211E-01    0.924E-02
DAV:  12    -0.665889614490E+02   -0.24888E-03   -0.60791E-04 13152   0.110E-01    0.395E-02
DAV:  13    -0.665890019375E+02   -0.40488E-04   -0.92030E-05 13088   0.513E-02    0.206E-02
DAV:  14    -0.665890122800E+02   -0.10342E-04   -0.18502E-05  8936   0.250E-02    0.685E-03
DAV:  15    -0.665890140356E+02   -0.17556E-05   -0.41874E-06  7168   0.120E-02
   1 F= -.66589014E+02 E0= -.66589014E+02  d E =0.000000E+00  mag=    -0.0002
