       N       E                     dE             d eps       ncg     rms          rms(c)
DAV:   1     0.241068731718E+03    0.24107E+03   -0.16664E+04  6144   0.119E+03
DAV:   2    -0.149862132462E+02   -0.25605E+03   -0.24398E+03  7320   0.310E+02
DAV:   3    -0.376128842121E+02   -0.22627E+02   -0.22322E+02 10032   0.747E+01
DAV:   4    -0.391627456182E+02   -0.15499E+01   -0.15444E+01  8704   0.185E+01
DAV:   5    -0.391959068454E+02   -0.33161E-01   -0.33160E-01  8744   0.247E+00    0.177E+01
RMM:   6    -0.381629702590E+02    0.10329E+01   -0.36555E+00  6856   0.894E+00    0.779E+00
RMM:   7    -0.387441643731E+02   -0.58119E+00   -0.43135E-01  7356   0.383E+00    0.387E+00
RMM:   8    -0.388111861928E+02   -0.67022E-01   -0.19176E-01  8290   0.247E+00    0.153E+00
RMM:   9    -0.388188524408E+02   -0.76662E-02   -0.63624E-02  8873   0.162E+00    0.366E-01
RMM:  10    -0.388251881702E+02   -0.63357E-02   -0.23519E-02  9884   0.790E-01    0.170E-01
RMM:  11    -0.388279580457E+02   -0.27699E-02   -0.96216E-03 10158   0.444E-01    0.966E-02
RMM:  12    -0.388287349102E+02   -0.77686E-03   -0.36599E-03 10543   0.259E-01    0.629E-02
RMM:  13    -0.388289609729E+02   -0.22606E-03   -0.14507E-03 10299   0.173E-01    0.246E-02
RMM:  14    -0.388290809044E+02   -0.11993E-03   -0.62446E-04 10148   0.114E-01    0.840E-03
RMM:  15    -0.388291198549E+02   -0.38950E-04   -0.27610E-04  9767   0.693E-02    0.692E-03
RMM:  16    -0.388291320020E+02   -0.12147E-04   -0.11343E-04  9092   0.450E-02    0.352E-03
RMM:  17    -0.388291384445E+02   -0.64425E-05   -0.42870E-05  8021   0.314E-02
   1 F= -.38829138E+02 E0= -.38829138E+02  d E =0.000000E+00  mag=     0.0000
