    9    9    1    2
  0.1129649E+02  0.5056006E-09  0.5032930E-09  0.5114195E-09  0.5000000E-15
  1.000000000000000E-004
  CAR 
 unknown system                          
     51    197     34
 
  0.0000000E+00  0.0000000E+00  0.0000000E+00  0.2551020E-02
    1      -44.322645    -44.322452   1.000000   1.000000
    2      -25.720547    -25.719850   1.000000   1.000000
    3      -24.644365    -24.645054   1.000000   1.000000
    4      -24.522166    -24.522555   1.000000   1.000000
    5      -23.950127    -23.946089   1.000000   1.000000
    6      -14.631300    -14.631151   1.000000   1.000000
    7      -13.866105    -13.867287   1.000000   1.000000
    8      -13.748132    -13.742866   1.000000   1.000000
    9      -12.902644    -12.901971   1.000000   1.000000
   10       -8.136747     -8.136709   1.000000   1.000000
   11       -7.709464     -7.708332   1.000000   1.000000
   12       -7.627226     -7.627181   1.000000   1.000000
   13       -7.105903     -7.106148   1.000000   1.000000
   14       -6.493031     -6.491679   1.000000   1.000000
   15       -6.205699     -6.202168   1.000000   1.000000
   16       -6.017347     -6.016115   1.000000   1.000000
   17       -5.973051     -5.973309   1.000000   1.000000
   18       -4.014813     -4.013115   1.000000   1.000000
   19       -3.914991     -3.911887   1.000000   1.000000
   20       -3.778825     -3.777174   1.000000   1.000000
   21       -3.621865     -3.622165   1.000000   1.000000
   22       -1.642914     -1.643051   1.000000   1.000000
   23       -1.505179     -1.502949   1.000000   1.000000
   24       -0.910611     -0.911163   1.000000   1.000000
   25       -0.117907     -0.113972   1.000000   1.000000
   26        1.529640      1.535678   0.000000   0.000000
   27        1.644100      1.646240   0.000000   0.000000
   28        1.686017      1.685729   0.000000   0.000000
   29        1.958152      1.957477   0.000000   0.000000
   30        7.319113      7.316635   0.000000   0.000000
   31        7.526521      7.531254   0.000000   0.000000
   32        8.885142      8.885565   0.000000   0.000000
   33        8.984100      8.981382   0.000000   0.000000
   34        9.257512      9.260524   0.000000   0.000000
 
  0.1250000E+00  0.1505999E-16 -0.3729865E-14  0.5102041E-02
    1      -44.322639    -44.322446   1.000000   1.000000
    2      -25.718098    -25.717399   1.000000   1.000000
    3      -24.646023    -24.646746   1.000000   1.000000
    4      -24.523660    -24.524006   1.000000   1.000000
    5      -23.950459    -23.946433   1.000000   1.000000
    6      -14.684541    -14.684336   1.000000   1.000000
    7      -13.835415    -13.836490   1.000000   1.000000
    8      -13.724370    -13.719296   1.000000   1.000000
    9      -12.901435    -12.900729   1.000000   1.000000
   10       -8.107152     -8.107154   1.000000   1.000000
   11       -7.725992     -7.724830   1.000000   1.000000
   12       -7.539250     -7.539245   1.000000   1.000000
   13       -7.108154     -7.108330   1.000000   1.000000
   14       -6.531571     -6.530660   1.000000   1.000000
   15       -6.302544     -6.299173   1.000000   1.000000
   16       -5.995518     -5.995210   1.000000   1.000000
   17       -5.961865     -5.960618   1.000000   1.000000
   18       -4.013872     -4.012115   1.000000   1.000000
   19       -3.912603     -3.909591   1.000000   1.000000
   20       -3.776761     -3.775105   1.000000   1.000000
   21       -3.619209     -3.619492   1.000000   1.000000
   22       -1.638190     -1.638332   1.000000   1.000000
   23       -1.477551     -1.475361   1.000000   1.000000
   24       -0.916098     -0.916596   1.000000   1.000000
   25       -0.152925     -0.149046   1.000000   1.000000
   26        1.525921      1.531953   0.000000   0.000000
   27        1.635808      1.637862   0.000000   0.000000
   28        1.689159      1.689015   0.000000   0.000000
   29        1.954215      1.953551   0.000000   0.000000
   30        7.545767      7.543562   0.000000   0.000000
   31        7.624088      7.628892   0.000000   0.000000
   32        7.918193      7.917660   0.000000   0.000000
   33        9.215066      9.214941   0.000000   0.000000
   34        9.745227      9.746558   0.000000   0.000000
 
  0.2500000E+00  0.1136201E-16 -0.9704547E-17  0.5102041E-02
    1      -44.322589    -44.322396   1.000000   1.000000
    2      -25.712085    -25.711379   1.000000   1.000000
    3      -24.649767    -24.650574   1.000000   1.000000
    4      -24.526990    -24.527233   1.000000   1.000000
    5      -23.951153    -23.947153   1.000000   1.000000
    6      -14.808177    -14.807876   1.000000   1.000000
    7      -13.758245    -13.759174   1.000000   1.000000
    8      -13.663122    -13.658308   1.000000   1.000000
    9      -12.903579    -12.902845   1.000000   1.000000
   10       -8.071592     -8.071650   1.000000   1.000000
   11       -7.763255     -7.762101   1.000000   1.000000
   12       -7.307829     -7.308073   1.000000   1.000000
   13       -7.078479     -7.078314   1.000000   1.000000
   14       -6.646268     -6.646232   1.000000   1.000000
   15       -6.460989     -6.457531   1.000000   1.000000
   16       -6.017591     -6.016480   1.000000   1.000000
   17       -5.940781     -5.939578   1.000000   1.000000
   18       -4.010985     -4.009075   1.000000   1.000000
   19       -3.906604     -3.903833   1.000000   1.000000
   20       -3.771743     -3.770060   1.000000   1.000000
   21       -3.612924     -3.613168   1.000000   1.000000
   22       -1.620114     -1.620249   1.000000   1.000000
   23       -1.397506     -1.395457   1.000000   1.000000
   24       -0.926165     -0.926531   1.000000   1.000000
   25       -0.235844     -0.232058   1.000000   1.000000
   26        1.518292      1.524339   0.000000   0.000000
   27        1.622405      1.624544   0.000000   0.000000
   28        1.690317      1.690187   0.000000   0.000000
   29        1.944245      1.943593   0.000000   0.000000
   30        6.705615      6.706398   0.000000   0.000000
   31        8.036051      8.039314   0.000000   0.000000
   32        8.119028      8.116639   0.000000   0.000000
   33        9.447678      9.448591   0.000000   0.000000
   34        9.886376      9.885344   0.000000   0.000000
 
  0.3750000E+00  0.2601879E-16  0.3382077E-14  0.5102041E-02
    1      -44.322551    -44.322358   1.000000   1.000000
    2      -25.706057    -25.705344   1.000000   1.000000
    3      -24.653623    -24.654514   1.000000   1.000000
    4      -24.530158    -24.530299   1.000000   1.000000
    5      -23.951902    -23.947927   1.000000   1.000000
    6      -14.925617    -14.925253   1.000000   1.000000
    7      -13.676612    -13.677740   1.000000   1.000000
    8      -13.595403    -13.590360   1.000000   1.000000
    9      -12.915074    -12.914423   1.000000   1.000000
   10       -8.055665     -8.055755   1.000000   1.000000
   11       -7.791076     -7.789944   1.000000   1.000000
   12       -7.186695     -7.187113   1.000000   1.000000
   13       -6.895318     -6.895025   1.000000   1.000000
   14       -6.788528     -6.789003   1.000000   1.000000
   15       -6.591661     -6.588037   1.000000   1.000000
   16       -6.027260     -6.025487   1.000000   1.000000
   17       -5.969051     -5.968064   1.000000   1.000000
   18       -4.007417     -4.005341   1.000000   1.000000
   19       -3.900152     -3.897646   1.000000   1.000000
   20       -3.766719     -3.764988   1.000000   1.000000
   21       -3.606833     -3.607041   1.000000   1.000000
   22       -1.594044     -1.594155   1.000000   1.000000
   23       -1.301329     -1.299492   1.000000   1.000000
   24       -0.932115     -0.932339   1.000000   1.000000
   25       -0.316257     -0.312497   1.000000   1.000000
   26        1.512834      1.518976   0.000000   0.000000
   27        1.613152      1.615406   0.000000   0.000000
   28        1.686941      1.686723   0.000000   0.000000
   29        1.933242      1.932571   0.000000   0.000000
   30        5.854284      5.854860   0.000000   0.000000
   31        8.484551      8.487908   0.000000   0.000000
   32        8.671978      8.669360   0.000000   0.000000
   33        9.463973      9.465389   0.000000   0.000000
   34        9.867880      9.867754   0.000000   0.000000
 
  0.5000000E+00  0.4761974E-16 -0.3572690E-15  0.2551020E-02
    1      -44.322529    -44.322336   1.000000   1.000000
    2      -25.703630    -25.702914   1.000000   1.000000
    3      -24.655287    -24.656215   1.000000   1.000000
    4      -24.531486    -24.531583   1.000000   1.000000
    5      -23.952276    -23.948312   1.000000   1.000000
    6      -14.972650    -14.972267   1.000000   1.000000
    7      -13.641228    -13.642645   1.000000   1.000000
    8      -13.564719    -13.559314   1.000000   1.000000
    9      -12.923394    -12.922831   1.000000   1.000000
   10       -8.050128     -8.050230   1.000000   1.000000
   11       -7.798807     -7.797685   1.000000   1.000000
   12       -7.169470     -7.169812   1.000000   1.000000
   13       -6.862942     -6.863571   1.000000   1.000000
   14       -6.771326     -6.771304   1.000000   1.000000
   15       -6.641084     -6.637205   1.000000   1.000000
   16       -6.027270     -6.025288   1.000000   1.000000
   17       -5.991445     -5.990552   1.000000   1.000000
   18       -4.005802     -4.003653   1.000000   1.000000
   19       -3.897325     -3.894935   1.000000   1.000000
   20       -3.764641     -3.762887   1.000000   1.000000
   21       -3.604355     -3.604547   1.000000   1.000000
   22       -1.581183     -1.581282   1.000000   1.000000
   23       -1.257513     -1.255791   1.000000   1.000000
   24       -0.933628     -0.933790   1.000000   1.000000
   25       -0.348629     -0.344858   1.000000   1.000000
   26        1.511365      1.517579   0.000000   0.000000
   27        1.610046      1.612325   0.000000   0.000000
   28        1.684731      1.684475   0.000000   0.000000
   29        1.928440      1.927750   0.000000   0.000000
   30        5.538038      5.538572   0.000000   0.000000
   31        8.782161      8.785246   0.000000   0.000000
   32        8.887907      8.886073   0.000000   0.000000
   33        9.255726      9.256120   0.000000   0.000000
   34        9.919663      9.921184   0.000000   0.000000
 
  0.4182018E-18  0.1428571E+00 -0.3549575E-14  0.5102041E-02
    1      -44.322634    -44.322441   1.000000   1.000000
    2      -25.705702    -25.704980   1.000000   1.000000
    3      -24.650051    -24.651323   1.000000   1.000000
    4      -24.526736    -24.526528   1.000000   1.000000
    5      -23.961369    -23.957371   1.000000   1.000000
    6      -14.616181    -14.616083   1.000000   1.000000
    7      -13.867785    -13.869158   1.000000   1.000000
    8      -13.759522    -13.753955   1.000000   1.000000
    9      -12.916108    -12.915501   1.000000   1.000000
   10       -8.093370     -8.093305   1.000000   1.000000
   11       -7.678844     -7.677806   1.000000   1.000000
   12       -7.556393     -7.556392   1.000000   1.000000
   13       -7.029093     -7.029302   1.000000   1.000000
   14       -6.528066     -6.526505   1.000000   1.000000
   15       -6.229533     -6.226520   1.000000   1.000000
   16       -6.003271     -6.003651   1.000000   1.000000
   17       -5.998980     -5.997409   1.000000   1.000000
   18       -4.075834     -4.071260   1.000000   1.000000
   19       -3.989434     -3.989081   1.000000   1.000000
   20       -3.823231     -3.821944   1.000000   1.000000
   21       -3.677864     -3.677773   1.000000   1.000000
   22       -1.586222     -1.586095   1.000000   1.000000
   23       -1.428999     -1.427226   1.000000   1.000000
   24       -0.832113     -0.832609   1.000000   1.000000
   25       -0.173733     -0.169989   1.000000   1.000000
   26        1.457271      1.464104   0.000000   0.000000
   27        1.567316      1.568799   0.000000   0.000000
   28        1.685609      1.685348   0.000000   0.000000
   29        1.908745      1.908268   0.000000   0.000000
   30        7.364541      7.362171   0.000000   0.000000
   31        7.503178      7.507849   0.000000   0.000000
   32        8.643897      8.643360   0.000000   0.000000
   33        9.049436      9.048876   0.000000   0.000000
   34        9.502119      9.503929   0.000000   0.000000
 
  0.1250000E+00  0.1428571E+00  0.1595936E-15  0.5102041E-02
    1      -44.322629    -44.322436   1.000000   1.000000
    2      -25.705072    -25.704351   1.000000   1.000000
    3      -24.650725    -24.651962   1.000000   1.000000
    4      -24.526283    -24.526109   1.000000   1.000000
    5      -23.962151    -23.958154   1.000000   1.000000
    6      -14.627762    -14.627605   1.000000   1.000000
    7      -13.862095    -13.865015   1.000000   1.000000
    8      -13.761868    -13.754783   1.000000   1.000000
    9      -12.908112    -12.907524   1.000000   1.000000
   10       -8.082495     -8.082456   1.000000   1.000000
   11       -7.675013     -7.673981   1.000000   1.000000
   12       -7.539479     -7.539437   1.000000   1.000000
   13       -7.057358     -7.057531   1.000000   1.000000
   14       -6.520807     -6.519171   1.000000   1.000000
   15       -6.237337     -6.234357   1.000000   1.000000
   16       -6.020134     -6.020297   1.000000   1.000000
   17       -5.980770     -5.979528   1.000000   1.000000
   18       -4.073533     -4.068672   1.000000   1.000000
   19       -3.988317     -3.988349   1.000000   1.000000
   20       -3.825692     -3.824259   1.000000   1.000000
   21       -3.677803     -3.677740   1.000000   1.000000
   22       -1.573576     -1.573455   1.000000   1.000000
   23       -1.420360     -1.418564   1.000000   1.000000
   24       -0.841229     -0.841661   1.000000   1.000000
   25       -0.180391     -0.176576   1.000000   1.000000
   26        1.462199      1.469038   0.000000   0.000000
   27        1.551295      1.552387   0.000000   0.000000
   28        1.692268      1.692125   0.000000   0.000000
   29        1.907533      1.907097   0.000000   0.000000
   30        7.282739      7.281259   0.000000   0.000000
   31        7.603225      7.607092   0.000000   0.000000
   32        8.382060      8.381797   0.000000   0.000000
   33        9.204686      9.204681   0.000000   0.000000
   34        9.612333      9.613506   0.000000   0.000000
 
  0.2500000E+00  0.1428571E+00  0.3532173E-14  0.5102041E-02
    1      -44.322587    -44.322394   1.000000   1.000000
    2      -25.700315    -25.699588   1.000000   1.000000
    3      -24.653459    -24.654736   1.000000   1.000000
    4      -24.528698    -24.528470   1.000000   1.000000
    5      -23.963153    -23.959176   1.000000   1.000000
    6      -14.726672    -14.726396   1.000000   1.000000
    7      -13.815101    -13.818246   1.000000   1.000000
    8      -13.707517    -13.700304   1.000000   1.000000
    9      -12.904826    -12.904245   1.000000   1.000000
   10       -8.031806     -8.031832   1.000000   1.000000
   11       -7.698731     -7.697704   1.000000   1.000000
   12       -7.364848     -7.364870   1.000000   1.000000
   13       -7.076728     -7.076660   1.000000   1.000000
   14       -6.588282     -6.587381   1.000000   1.000000
   15       -6.362888     -6.359862   1.000000   1.000000
   16       -6.040560     -6.040408   1.000000   1.000000
   17       -5.956027     -5.954543   1.000000   1.000000
   18       -4.072188     -4.067137   1.000000   1.000000
   19       -3.983837     -3.984190   1.000000   1.000000
   20       -3.820931     -3.819358   1.000000   1.000000
   21       -3.673112     -3.673058   1.000000   1.000000
   22       -1.546253     -1.546247   1.000000   1.000000
   23       -1.368375     -1.366572   1.000000   1.000000
   24       -0.854157     -0.854434   1.000000   1.000000
   25       -0.245107     -0.241305   1.000000   1.000000
   26        1.460076      1.466915   0.000000   0.000000
   27        1.532367      1.533314   0.000000   0.000000
   28        1.694308      1.694203   0.000000   0.000000
   29        1.900181      1.899795   0.000000   0.000000
   30        7.201989      7.202935   0.000000   0.000000
   31        7.557807      7.557309   0.000000   0.000000
   32        8.048373      8.050112   0.000000   0.000000
   33        9.401566      9.401860   0.000000   0.000000
   34       10.027128     10.024856   0.000000   0.000000
 
  0.3750000E+00  0.1428571E+00 -0.2108817E-15  0.5102041E-02
    1      -44.322545    -44.322352   1.000000   1.000000
    2      -25.694247    -25.693512   1.000000   1.000000
    3      -24.656728    -24.658098   1.000000   1.000000
    4      -24.532466    -24.532126   1.000000   1.000000
    5      -23.963800    -23.959851   1.000000   1.000000
    6      -14.850574    -14.850224   1.000000   1.000000
    7      -13.741651    -13.744480   1.000000   1.000000
    8      -13.630430    -13.623507   1.000000   1.000000
    9      -12.915266    -12.914772   1.000000   1.000000
   10       -8.005026     -8.005088   1.000000   1.000000
   11       -7.733431     -7.732422   1.000000   1.000000
   12       -7.187894     -7.188201   1.000000   1.000000
   13       -6.959355     -6.958871   1.000000   1.000000
   14       -6.717703     -6.717646   1.000000   1.000000
   15       -6.501199     -6.498108   1.000000   1.000000
   16       -6.065301     -6.063995   1.000000   1.000000
   17       -5.968231     -5.967201   1.000000   1.000000
   18       -4.071342     -4.066271   1.000000   1.000000
   19       -3.978700     -3.979152   1.000000   1.000000
   20       -3.811884     -3.810264   1.000000   1.000000
   21       -3.666832     -3.666762   1.000000   1.000000
   22       -1.515437     -1.515479   1.000000   1.000000
   23       -1.284991     -1.283362   1.000000   1.000000
   24       -0.857874     -0.857998   1.000000   1.000000
   25       -0.328635     -0.324838   1.000000   1.000000
   26        1.455835      1.462803   0.000000   0.000000
   27        1.519247      1.520232   0.000000   0.000000
   28        1.689853      1.689685   0.000000   0.000000
   29        1.889032      1.888649   0.000000   0.000000
   30        6.219573      6.220169   0.000000   0.000000
   31        8.054403      8.054659   0.000000   0.000000
   32        8.567508      8.568578   0.000000   0.000000
   33        9.500444      9.501700   0.000000   0.000000
   34       10.024781     10.025005   0.000000   0.000000
 
  0.5000000E+00  0.1428571E+00 -0.3929411E-14  0.5102041E-02
    1      -44.322532    -44.322338   1.000000   1.000000
    2      -25.690562    -25.689821   1.000000   1.000000
    3      -24.658770    -24.660231   1.000000   1.000000
    4      -24.535452    -24.535009   1.000000   1.000000
    5      -23.963805    -23.959873   1.000000   1.000000
    6      -14.928200    -14.927832   1.000000   1.000000
    7      -13.680348    -13.682799   1.000000   1.000000
    8      -13.581817    -13.575192   1.000000   1.000000
    9      -12.930858    -12.930463   1.000000   1.000000
   10       -7.998409     -7.998489   1.000000   1.000000
   11       -7.761178     -7.760175   1.000000   1.000000
   12       -7.133128     -7.133350   1.000000   1.000000
   13       -6.839835     -6.840188   1.000000   1.000000
   14       -6.760370     -6.760087   1.000000   1.000000
   15       -6.600789     -6.597508   1.000000   1.000000
   16       -6.081721     -6.079814   1.000000   1.000000
   17       -5.977201     -5.976394   1.000000   1.000000
   18       -4.070776     -4.065790   1.000000   1.000000
   19       -3.976473     -3.976835   1.000000   1.000000
   20       -3.804440     -3.802879   1.000000   1.000000
   21       -3.662887     -3.662784   1.000000   1.000000
   22       -1.501048     -1.501091   1.000000   1.000000
   23       -1.224212     -1.222793   1.000000   1.000000
   24       -0.850529     -0.850582   1.000000   1.000000
   25       -0.382386     -0.378575   1.000000   1.000000
   26        1.453435      1.460824   0.000000   0.000000
   27        1.517624      1.518541   0.000000   0.000000
   28        1.681739      1.681447   0.000000   0.000000
   29        1.879880      1.879448   0.000000   0.000000
   30        5.673763      5.674311   0.000000   0.000000
   31        8.612241      8.612342   0.000000   0.000000
   32        8.818823      8.820438   0.000000   0.000000
   33        9.301038      9.301486   0.000000   0.000000
   34       10.074459     10.078263   0.000000   0.000000
 
 -0.3750000E+00  0.1428571E+00  0.1931201E-15  0.5102041E-02
    1      -44.322537    -44.322344   1.000000   1.000000
    2      -25.691184    -25.690444   1.000000   1.000000
    3      -24.658212    -24.659706   1.000000   1.000000
    4      -24.535910    -24.535435   1.000000   1.000000
    5      -23.963036    -23.959103   1.000000   1.000000
    6      -14.918523    -14.918181   1.000000   1.000000
    7      -13.684190    -13.684952   1.000000   1.000000
    8      -13.584856    -13.580017   1.000000   1.000000
    9      -12.933246    -12.932741   1.000000   1.000000
   10       -8.007550     -8.007611   1.000000   1.000000
   11       -7.773131     -7.772133   1.000000   1.000000
   12       -7.103943     -7.104294   1.000000   1.000000
   13       -6.841778     -6.842122   1.000000   1.000000
   14       -6.778578     -6.778317   1.000000   1.000000
   15       -6.610174     -6.606822   1.000000   1.000000
   16       -6.083010     -6.081032   1.000000   1.000000
   17       -5.956925     -5.956108   1.000000   1.000000
   18       -4.071857     -4.067046   1.000000   1.000000
   19       -3.978425     -3.978532   1.000000   1.000000
   20       -3.802895     -3.801462   1.000000   1.000000
   21       -3.663291     -3.663159   1.000000   1.000000
   22       -1.516257     -1.516305   1.000000   1.000000
   23       -1.235697     -1.234267   1.000000   1.000000
   24       -0.841497     -0.841604   1.000000   1.000000
   25       -0.376917     -0.373171   1.000000   1.000000
   26        1.449612      1.457016   0.000000   0.000000
   27        1.532023      1.533260   0.000000   0.000000
   28        1.675382      1.674969   0.000000   0.000000
   29        1.880216      1.879744   0.000000   0.000000
   30        5.729227      5.729799   0.000000   0.000000
   31        8.490749      8.493085   0.000000   0.000000
   32        8.917937      8.916218   0.000000   0.000000
   33        9.400838      9.399793   0.000000   0.000000
   34       10.287267     10.076894   0.000000   0.000000
 
 -0.2500000E+00  0.1428571E+00  0.3562230E-14  0.5102041E-02
    1      -44.322579    -44.322386   1.000000   1.000000
    2      -25.695913    -25.695179   1.000000   1.000000
    3      -24.655428    -24.656880   1.000000   1.000000
    4      -24.533625    -24.533205   1.000000   1.000000
    5      -23.962013    -23.958060   1.000000   1.000000
    6      -14.826171    -14.825895   1.000000   1.000000
    7      -13.752329    -13.751757   1.000000   1.000000
    8      -13.632956    -13.629558   1.000000   1.000000
    9      -12.926100    -12.925438   1.000000   1.000000
   10       -8.024448     -8.024467   1.000000   1.000000
   11       -7.756933     -7.755924   1.000000   1.000000
   12       -7.166694     -7.167131   1.000000   1.000000
   13       -6.958065     -6.957689   1.000000   1.000000
   14       -6.724847     -6.724884   1.000000   1.000000
   15       -6.518556     -6.515298   1.000000   1.000000
   16       -6.066838     -6.065310   1.000000   1.000000
   17       -5.927951     -5.926960   1.000000   1.000000
   18       -4.074769     -4.070190   1.000000   1.000000
   19       -3.982938     -3.982694   1.000000   1.000000
   20       -3.807493     -3.806193   1.000000   1.000000
   21       -3.667561     -3.667421   1.000000   1.000000
   22       -1.550287     -1.550331   1.000000   1.000000
   23       -1.311477     -1.309855   1.000000   1.000000
   24       -0.836172     -0.836436   1.000000   1.000000
   25       -0.314420     -0.310779   1.000000   1.000000
   26        1.447131      1.454298   0.000000   0.000000
   27        1.553591      1.555228   0.000000   0.000000
   28        1.674176      1.673716   0.000000   0.000000
   29        1.890446      1.889961   0.000000   0.000000
   30        6.368297      6.369014   0.000000   0.000000
   31        8.020945      8.023215   0.000000   0.000000
   32        8.614371      8.612301   0.000000   0.000000
   33        9.471032      9.470562   0.000000   0.000000
   34       10.076925     10.051249   0.000000   0.000000
 
 -0.1250000E+00  0.1428571E+00 -0.1412541E-15  0.5102041E-02
    1      -44.322627    -44.322434   1.000000   1.000000
    2      -25.701968    -25.701242   1.000000   1.000000
    3      -24.652090    -24.653451   1.000000   1.000000
    4      -24.529872    -24.529562   1.000000   1.000000
    5      -23.961381    -23.957402   1.000000   1.000000
    6      -14.700391    -14.700220   1.000000   1.000000
    7      -13.827408    -13.827224   1.000000   1.000000
    8      -13.705196    -13.701319   1.000000   1.000000
    9      -12.921114    -12.920447   1.000000   1.000000
   10       -8.051999     -8.051973   1.000000   1.000000
   11       -7.714975     -7.713942   1.000000   1.000000
   12       -7.404840     -7.404908   1.000000   1.000000
   13       -7.013398     -7.013479   1.000000   1.000000
   14       -6.602531     -6.601758   1.000000   1.000000
   15       -6.365843     -6.362690   1.000000   1.000000
   16       -6.036594     -6.036046   1.000000   1.000000
   17       -5.937585     -5.936294   1.000000   1.000000
   18       -4.076827     -4.072377   1.000000   1.000000
   19       -3.987242     -3.986772   1.000000   1.000000
   20       -3.815621     -3.814386   1.000000   1.000000
   21       -3.673505     -3.673383   1.000000   1.000000
   22       -1.578655     -1.578634   1.000000   1.000000
   23       -1.391835     -1.390076   1.000000   1.000000
   24       -0.832397     -0.832824   1.000000   1.000000
   25       -0.229773     -0.226133   1.000000   1.000000
   26        1.450022      1.456976   0.000000   0.000000
   27        1.568512      1.570244   0.000000   0.000000
   28        1.678377      1.677984   0.000000   0.000000
   29        1.902395      1.901908   0.000000   0.000000
   30        7.366416      7.368707   0.000000   0.000000
   31        7.645678      7.645922   0.000000   0.000000
   32        8.009539      8.008575   0.000000   0.000000
   33        9.228926      9.229350   0.000000   0.000000
   34        9.999591     10.000471   0.000000   0.000000
 
  0.7433948E-19  0.2857143E+00 -0.3099397E-16  0.5102041E-02
    1      -44.322621    -44.322428   1.000000   1.000000
    2      -25.670317    -25.669528   1.000000   1.000000
    3      -24.673104    -24.675439   1.000000   1.000000
    4      -24.527712    -24.526423   1.000000   1.000000
    5      -23.987601    -23.983692   1.000000   1.000000
    6      -14.579073    -14.579118   1.000000   1.000000
    7      -13.890143    -13.890949   1.000000   1.000000
    8      -13.768695    -13.763407   1.000000   1.000000
    9      -12.947487    -12.947040   1.000000   1.000000
   10       -7.988462     -7.988325   1.000000   1.000000
   11       -7.622277     -7.621606   1.000000   1.000000
   12       -7.347003     -7.346938   1.000000   1.000000
   13       -6.887599     -6.887443   1.000000   1.000000
   14       -6.602586     -6.600924   1.000000   1.000000
   15       -6.287688     -6.285921   1.000000   1.000000
   16       -6.038801     -6.039172   1.000000   1.000000
   17       -5.931238     -5.929116   1.000000   1.000000
   18       -4.439365     -4.435337   1.000000   1.000000
   19       -4.109129     -4.107713   1.000000   1.000000
   20       -3.923347     -3.922894   1.000000   1.000000
   21       -3.693726     -3.692890   1.000000   1.000000
   22       -1.494499     -1.493846   1.000000   1.000000
   23       -1.153518     -1.152859   1.000000   1.000000
   24       -0.711351     -0.711108   1.000000   1.000000
   25       -0.236252     -0.233613   1.000000   1.000000
   26        1.098369      1.103723  -0.020247  -0.024852
   27        1.504556      1.507922   0.000000   0.000000
   28        1.651048      1.651189   0.000000   0.000000
   29        1.842746      1.842500   0.000000   0.000000
   30        7.444920      7.448316   0.000000   0.000000
   31        7.481263      7.480409   0.000000   0.000000
   32        8.359692      8.358644   0.000000   0.000000
   33        9.057295      9.057246   0.000000   0.000000
   34       10.005734     10.005009   0.000000   0.000000
 
  0.1250000E+00  0.2857143E+00  0.3685027E-14  0.5102041E-02
    1      -44.322604    -44.322411   1.000000   1.000000
    2      -25.670850    -25.670062   1.000000   1.000000
    3      -24.672086    -24.674371   1.000000   1.000000
    4      -24.526889    -24.525651   1.000000   1.000000
    5      -23.988551    -23.984639   1.000000   1.000000
    6      -14.562969    -14.562960   1.000000   1.000000
    7      -13.925324    -13.926856   1.000000   1.000000
    8      -13.760871    -13.754839   1.000000   1.000000
    9      -12.936259    -12.935870   1.000000   1.000000
   10       -8.008818     -8.008706   1.000000   1.000000
   11       -7.613856     -7.613215   1.000000   1.000000
   12       -7.360612     -7.360436   1.000000   1.000000
   13       -6.927714     -6.927695   1.000000   1.000000
   14       -6.571233     -6.568894   1.000000   1.000000
   15       -6.227001     -6.225896   1.000000   1.000000
   16       -6.022600     -6.023497   1.000000   1.000000
   17       -5.962795     -5.960143   1.000000   1.000000
   18       -4.452404     -4.448333   1.000000   1.000000
   19       -4.099674     -4.098311   1.000000   1.000000
   20       -3.920779     -3.920269   1.000000   1.000000
   21       -3.698676     -3.697827   1.000000   1.000000