       N       E                     dE             d eps       ncg     rms          rms(c)
DAV:   1     0.362587895839E+03    0.36259E+03   -0.28044E+04 26792   0.147E+03
DAV:   2    -0.180656402550E+02   -0.38065E+03   -0.36732E+03 35176   0.350E+02
DAV:   3    -0.434046183945E+02   -0.25339E+02   -0.25048E+02 39664   0.909E+01
DAV:   4    -0.443048668471E+02   -0.90025E+00   -0.89623E+00 44472   0.126E+01
DAV:   5    -0.443806477379E+02   -0.75781E-01   -0.75776E-01 36034   0.176E+00    0.145E+01
RMM:   6    -0.446559814374E+02   -0.27533E+00   -0.29953E+00 30793   0.895E+00    0.998E+00
RMM:   7    -0.442423686234E+02    0.41361E+00   -0.10663E+00 29801   0.563E+00    0.551E+00
RMM:   8    -0.439990932156E+02    0.24328E+00   -0.46927E-01 30591   0.397E+00    0.316E+00
RMM:   9    -0.440109446086E+02   -0.11851E-01   -0.16946E-01 31920   0.237E+00    0.256E+00
RMM:  10    -0.439810672391E+02    0.29877E-01   -0.58675E-02 32806   0.136E+00    0.997E-01
RMM:  11    -0.439800790015E+02    0.98824E-03   -0.13673E-02 35879   0.691E-01    0.671E-01
RMM:  12    -0.439787817707E+02    0.12972E-02   -0.57758E-03 37006   0.455E-01    0.319E-01
RMM:  13    -0.439786882808E+02    0.93490E-04   -0.29117E-03 38445   0.328E-01    0.949E-02
RMM:  14    -0.439789562136E+02   -0.26793E-03   -0.11012E-03 46108   0.171E-01    0.417E-02
RMM:  15    -0.439790694972E+02   -0.11328E-03   -0.50703E-04 45713   0.111E-01    0.226E-02
RMM:  16    -0.439791039808E+02   -0.34484E-04   -0.25380E-04 44603   0.735E-02    0.133E-02
RMM:  17    -0.439791198254E+02   -0.15845E-04   -0.11354E-04 37097   0.493E-02    0.921E-03
RMM:  18    -0.439791300772E+02   -0.10252E-04   -0.51940E-05 32493   0.404E-02    0.522E-03
RMM:  19    -0.439791326566E+02   -0.25795E-05   -0.21449E-05 27214   0.320E-02
   1 F= -.43979133E+02 E0= -.43979133E+02  d E =0.000000E+00  mag=     0.0046
