 running on    8 total cores
 distrk:  each k-point on    8 cores,    1 groups
 distr:  one band on    1 cores,    8 groups
 using from now: INCAR     
 vasp.6.1.2 22Jul20 (build Mar 20 2021 11:25:07) complex                        
  
 POSCAR found type information on POSCAR P O 
 POSCAR found :  2 types and      14 ions
 scaLAPACK will be used
 -----------------------------------------------------------------------------
|                                                                             |
|           W    W    AA    RRRRR   N    N  II  N    N   GGGG   !!!           |
|           W    W   A  A   R    R  NN   N  II  NN   N  G    G  !!!           |
|           W    W  A    A  R    R  N N  N  II  N N  N  G       !!!           |
|           W WW W  AAAAAA  RRRRR   N  N N  II  N  N N  G  GGG   !            |
|           WW  WW  A    A  R   R   N   NN  II  N   NN  G    G                |
|           W    W  A    A  R    R  N    N  II  N    N   GGGG   !!!           |
|                                                                             |
|     The value NCORE = 6 specified in the INCAR file was overwritten,        |
|     because it was not compatible with the 8 processes available:           |
|     NCORE = 1                                                               |
|     was used instead, please check that this makes sense for your           |
|     machine.                                                                |
|                                                                             |
 -----------------------------------------------------------------------------

 -----------------------------------------------------------------------------
|                                                                             |
|           W    W    AA    RRRRR   N    N  II  N    N   GGGG   !!!           |
|           W    W   A  A   R    R  NN   N  II  NN   N  G    G  !!!           |
|           W    W  A    A  R    R  N N  N  II  N N  N  G       !!!           |
|           W WW W  AAAAAA  RRRRR   N  N N  II  N  N N  G  GGG   !            |
|           WW  WW  A    A  R   R   N   NN  II  N   NN  G    G                |
|           W    W  A    A  R    R  N    N  II  N    N   GGGG   !!!           |
|                                                                             |
|     For optimal performance we recommend to set                             |
|       NCORE = 4 - approx SQRT(number of cores).                             |
|     NCORE specifies how many cores store one orbital (NPAR=cpu/NCORE).      |
|     This setting can greatly improve the performance of VASP for DFT.       |
|     The default, NCORE=1 might be grossly inefficient on modern             |
|     multi-core architectures or massively parallel machines. Do your        |
|     own testing!!!!                                                         |
|     Unfortunately you need to use the default for GW and RPA                |
|     calculations (for HF NCORE is supported but not extensively tested      |
|     yet).                                                                   |
|                                                                             |
 -----------------------------------------------------------------------------

 LDA part: xc-table for Pade appr. of Perdew
 -----------------------------------------------------------------------------
|                                                                             |
|           W    W    AA    RRRRR   N    N  II  N    N   GGGG   !!!           |
|           W    W   A  A   R    R  NN   N  II  NN   N  G    G  !!!           |
|           W    W  A    A  R    R  N N  N  II  N N  N  G       !!!           |
|           W WW W  AAAAAA  RRRRR   N  N N  II  N  N N  G  GGG   !            |
|           WW  WW  A    A  R   R   N   NN  II  N   NN  G    G                |
|           W    W  A    A  R    R  N    N  II  N    N   GGGG   !!!           |
|                                                                             |
|     The determination of the symmetry of your systems shows a strong        |
|     dependence on the tolerance parameter SYMPREC. This is often the        |
|     result of "noise" in the structural parameters (lattice vectors         |
|     and/or ionic positions). Set NWRITE=3 for more details.                 |
|                                                                             |
 -----------------------------------------------------------------------------

 generate k-points for:    7    7    7
 POSCAR, INCAR and KPOINTS ok, starting setup
 FFT: planning ...
 WAVECAR not read
 entering main loop
       N       E                     dE             d eps       ncg     rms          rms(c)
DAV:   1     0.518889552432E+03    0.51889E+03   -0.43413E+04 14400   0.134E+03
DAV:   2    -0.775203386877E+02   -0.59641E+03   -0.57974E+03 17840   0.324E+02
DAV:   3    -0.110088397311E+03   -0.32568E+02   -0.32362E+02 17552   0.789E+01
DAV:   4    -0.110489886786E+03   -0.40149E+00   -0.40042E+00 17544   0.963E+00
DAV:   5    -0.110496538783E+03   -0.66520E-02   -0.66504E-02 17192   0.120E+00    0.486E+01
DAV:   6    -0.943014975453E+02    0.16195E+02   -0.48105E+01 16568   0.326E+01    0.247E+01
DAV:   7    -0.974457483364E+02   -0.31443E+01   -0.79982E+00 16408   0.109E+01    0.714E+00
DAV:   8    -0.976775748382E+02   -0.23183E+00   -0.78710E-01 16920   0.410E+00    0.329E+00
DAV:   9    -0.976796839229E+02   -0.21091E-02   -0.42129E-02 17096   0.132E+00    0.140E+00
DAV:  10    -0.976791174903E+02    0.56643E-03   -0.20745E-02 17640   0.899E-01    0.410E-01
DAV:  11    -0.976810825428E+02   -0.19651E-02   -0.38593E-03 17072   0.307E-01    0.252E-01
DAV:  12    -0.976813623853E+02   -0.27984E-03   -0.96921E-04 17032   0.180E-01    0.102E-01
DAV:  13    -0.976814463075E+02   -0.83922E-04   -0.12056E-04 16728   0.595E-02    0.387E-02
DAV:  14    -0.976814636167E+02   -0.17309E-04   -0.49110E-05 15856   0.427E-02    0.153E-02
DAV:  15    -0.976814685201E+02   -0.49033E-05   -0.78159E-06 11080   0.153E-02
   1 F= -.97681469E+02 E0= -.97681469E+02  d E =0.000000E+00  mag=    -0.0004
