Automatically generated mesh
     362
Reciprocal lattice
    0.00000000000000    0.00000000000000    0.00000000000000             1
    0.11111111111111    0.00000000000000   -0.00000000000000             2
    0.22222222222222    0.00000000000000   -0.00000000000000             2
    0.33333333333334    0.00000000000000   -0.00000000000000             2
    0.44444444444444    0.00000000000000   -0.00000000000000             2
    0.00000000000000    0.12500000000000   -0.00000000000000             2
    0.11111111111111    0.12500000000000   -0.00000000000000             2
    0.22222222222222    0.12500000000000   -0.00000000000000             2
    0.33333333333334    0.12500000000000    0.00000000000000             2
    0.44444444444444    0.12500000000000   -0.00000000000000             2
   -0.44444444444444    0.12500000000000   -0.00000000000000             2
   -0.33333333333334    0.12500000000000   -0.00000000000000             2
   -0.22222222222222    0.12500000000000   -0.00000000000000             2
   -0.11111111111111    0.12500000000000   -0.00000000000000             2
    0.00000000000000    0.25000000000000   -0.00000000000000             2
    0.11111111111111    0.25000000000000   -0.00000000000000             2
    0.22222222222222    0.25000000000000   -0.00000000000000             2
    0.33333333333334    0.25000000000000   -0.00000000000000             2
    0.44444444444444    0.25000000000000   -0.00000000000000             2
   -0.44444444444444    0.25000000000000   -0.00000000000000             2
   -0.33333333333334    0.25000000000000   -0.00000000000000             2
   -0.22222222222222    0.25000000000000   -0.00000000000000             2
   -0.11111111111111    0.25000000000000   -0.00000000000000             2
    0.00000000000000    0.37500000000000   -0.00000000000000             2
    0.11111111111111    0.37500000000000   -0.00000000000000             2
    0.22222222222222    0.37500000000000   -0.00000000000000             2
    0.33333333333334    0.37500000000000   -0.00000000000000             2
    0.44444444444444    0.37500000000000   -0.00000000000000             2
   -0.44444444444444    0.37500000000000   -0.00000000000000             2
   -0.33333333333334    0.37500000000000   -0.00000000000000             2
   -0.22222222222222    0.37500000000000   -0.00000000000000             2
   -0.11111111111111    0.37500000000000   -0.00000000000000             2
    0.00000000000000    0.50000000000000   -0.00000000000000             1
    0.11111111111111    0.50000000000000   -0.00000000000000             2
    0.22222222222222    0.50000000000000   -0.00000000000000             2
    0.33333333333334    0.50000000000000   -0.00000000000000             2
    0.44444444444444    0.50000000000000   -0.00000000000000             2
    0.00000000000000    0.00000000000000    0.10000000000000             2
    0.11111111111111   -0.00000000000000    0.10000000000000             2
    0.22222222222222    0.00000000000000    0.10000000000000             2
    0.33333333333334    0.00000000000000    0.10000000000000             2
    0.44444444444444    0.00000000000000    0.10000000000000             2
   -0.44444444444444   -0.00000000000000    0.10000000000000             2
   -0.33333333333334   -0.00000000000000    0.10000000000000             2
   -0.22222222222222   -0.00000000000000    0.10000000000000             2
   -0.11111111111111   -0.00000000000000    0.10000000000000             2
    0.00000000000000    0.12500000000000    0.10000000000000             2
    0.11111111111111    0.12500000000000    0.10000000000000             2
    0.22222222222222    0.12500000000000    0.10000000000000             2
    0.33333333333334    0.12500000000000    0.10000000000000             2
    0.44444444444444    0.12500000000000    0.10000000000000             2
   -0.44444444444444    0.12500000000000    0.10000000000000             2
   -0.33333333333334    0.12500000000000    0.10000000000000             2
   -0.22222222222222    0.12500000000000    0.10000000000000             2
   -0.11111111111111    0.12500000000000    0.10000000000000             2
    0.00000000000000    0.25000000000000    0.10000000000000             2
    0.11111111111111    0.25000000000000    0.10000000000000             2
    0.22222222222222    0.25000000000000    0.10000000000000             2
    0.33333333333334    0.25000000000000    0.10000000000000             2
    0.44444444444444    0.25000000000000    0.10000000000000             2
   -0.44444444444444    0.25000000000000    0.10000000000000             2
   -0.33333333333334    0.25000000000000    0.10000000000000             2
   -0.22222222222222    0.25000000000000    0.10000000000000             2
   -0.11111111111111    0.25000000000000    0.10000000000000             2
    0.00000000000000    0.37500000000000    0.10000000000000             2
    0.11111111111111    0.37500000000000    0.10000000000000             2
    0.22222222222222    0.37500000000000    0.10000000000000             2
    0.33333333333334    0.37500000000000    0.10000000000000             2
    0.44444444444444    0.37500000000000    0.10000000000000             2
   -0.44444444444444    0.37500000000000    0.10000000000000             2
   -0.33333333333334    0.37500000000000    0.10000000000000             2
   -0.22222222222222    0.37500000000000    0.10000000000000             2
   -0.11111111111111    0.37500000000000    0.10000000000000             2
    0.00000000000000    0.50000000000000    0.10000000000000             2
    0.11111111111111    0.50000000000000    0.10000000000000             2
    0.22222222222222    0.50000000000000    0.10000000000000             2
    0.33333333333334    0.50000000000000    0.10000000000000             2
    0.44444444444444    0.50000000000000    0.10000000000000             2
   -0.44444444444444    0.50000000000000    0.10000000000000             2
   -0.33333333333334    0.50000000000000    0.10000000000000             2
   -0.22222222222222    0.50000000000000    0.10000000000000             2
   -0.11111111111111    0.50000000000000    0.10000000000000             2
   -0.00000000000000   -0.37500000000000    0.10000000000000             2
    0.11111111111111   -0.37500000000000    0.10000000000000             2
    0.22222222222222   -0.37500000000000    0.10000000000000             2
    0.33333333333334   -0.37500000000000    0.10000000000000             2
    0.44444444444444   -0.37500000000000    0.10000000000000             2
   -0.44444444444444   -0.37500000000000    0.10000000000000             2
   -0.33333333333334   -0.37500000000000    0.10000000000000             2
   -0.22222222222222   -0.37500000000000    0.10000000000000             2
   -0.11111111111111   -0.37500000000000    0.10000000000000             2
   -0.00000000000000   -0.25000000000000    0.10000000000000             2
    0.11111111111111   -0.25000000000000    0.10000000000000             2
    0.22222222222222   -0.25000000000000    0.10000000000000             2
    0.33333333333334   -0.25000000000000    0.10000000000000             2
    0.44444444444444   -0.25000000000000    0.10000000000000             2
   -0.44444444444444   -0.25000000000000    0.10000000000000             2
   -0.33333333333334   -0.25000000000000    0.10000000000000             2
   -0.22222222222222   -0.25000000000000    0.10000000000000             2
   -0.11111111111111   -0.25000000000000    0.10000000000000             2
   -0.00000000000000   -0.12500000000000    0.10000000000000             2
    0.11111111111111   -0.12500000000000    0.10000000000000             2
    0.22222222222222   -0.12500000000000    0.10000000000000             2
    0.33333333333334   -0.12500000000000    0.10000000000000             2
    0.44444444444444   -0.12500000000000    0.10000000000000             2
   -0.44444444444444   -0.12500000000000    0.10000000000000             2
   -0.33333333333334   -0.12500000000000    0.10000000000000             2
   -0.22222222222222   -0.12500000000000    0.10000000000000             2
   -0.11111111111111   -0.12500000000000    0.10000000000000             2
   -0.00000000000000    0.00000000000000    0.20000000000000             2
    0.11111111111111    0.00000000000000    0.20000000000000             2
    0.22222222222222    0.00000000000000    0.20000000000000             2
    0.33333333333334   -0.00000000000000    0.20000000000000             2
    0.44444444444444    0.00000000000000    0.20000000000000             2
   -0.44444444444444   -0.00000000000000    0.20000000000000             2
   -0.33333333333334    0.00000000000000    0.20000000000000             2
   -0.22222222222222    0.00000000000000    0.20000000000000             2
   -0.11111111111111    0.00000000000000    0.20000000000000             2
    0.00000000000000    0.12500000000000    0.20000000000000             2
    0.11111111111111    0.12500000000000    0.20000000000000             2
    0.22222222222222    0.12500000000000    0.20000000000000             2
    0.33333333333334    0.12500000000000    0.20000000000000             2
    0.44444444444444    0.12500000000000    0.20000000000000             2
   -0.44444444444444    0.12500000000000    0.20000000000000             2
   -0.33333333333334    0.12500000000000    0.20000000000000             2
   -0.22222222222222    0.12500000000000    0.20000000000000             2
   -0.11111111111111    0.12500000000000    0.20000000000000             2
    0.00000000000000    0.25000000000000    0.20000000000000             2
    0.11111111111111    0.25000000000000    0.20000000000000             2
    0.22222222222222    0.25000000000000    0.20000000000000             2
    0.33333333333334    0.25000000000000    0.20000000000000             2
    0.44444444444444    0.25000000000000    0.20000000000000             2
   -0.44444444444444    0.25000000000000    0.20000000000000             2
   -0.33333333333334    0.25000000000000    0.20000000000000             2
   -0.22222222222222    0.25000000000000    0.20000000000000             2
   -0.11111111111111    0.25000000000000    0.20000000000000             2
    0.00000000000000    0.37500000000000    0.20000000000000             2
    0.11111111111111    0.37500000000000    0.20000000000000             2
    0.22222222222222    0.37500000000000    0.20000000000000             2
    0.33333333333334    0.37500000000000    0.20000000000000             2
    0.44444444444444    0.37500000000000    0.20000000000000             2
   -0.44444444444444    0.37500000000000    0.20000000000000             2
   -0.33333333333334    0.37500000000000    0.20000000000000             2
   -0.22222222222222    0.37500000000000    0.20000000000000             2
   -0.11111111111111    0.37500000000000    0.20000000000000             2
    0.00000000000000    0.50000000000000    0.20000000000000             2
    0.11111111111111    0.50000000000000    0.20000000000000             2
    0.22222222222222    0.50000000000000    0.20000000000000             2
    0.33333333333334    0.50000000000000    0.20000000000000             2
    0.44444444444444    0.50000000000000    0.20000000000000             2
   -0.44444444444444    0.50000000000000    0.20000000000000             2
   -0.33333333333334    0.50000000000000    0.20000000000000             2
   -0.22222222222222    0.50000000000000    0.20000000000000             2
   -0.11111111111111    0.50000000000000    0.20000000000000             2
   -0.00000000000000   -0.37500000000000    0.20000000000000             2
    0.11111111111111   -0.37500000000000    0.20000000000000             2
    0.22222222222222   -0.37500000000000    0.20000000000000             2
    0.33333333333334   -0.37500000000000    0.20000000000000             2
    0.44444444444444   -0.37500000000000    0.20000000000000             2
   -0.44444444444444   -0.37500000000000    0.20000000000000             2
   -0.33333333333334   -0.37500000000000    0.20000000000000             2
   -0.22222222222222   -0.37500000000000    0.20000000000000             2
   -0.11111111111111   -0.37500000000000    0.20000000000000             2
   -0.00000000000000   -0.25000000000000    0.20000000000000             2
    0.11111111111111   -0.25000000000000    0.20000000000000             2
    0.22222222222222   -0.25000000000000    0.20000000000000             2
    0.33333333333334   -0.25000000000000    0.20000000000000             2
    0.44444444444444   -0.25000000000000    0.20000000000000             2
   -0.44444444444444   -0.25000000000000    0.20000000000000             2
   -0.33333333333334   -0.25000000000000    0.20000000000000             2
   -0.22222222222222   -0.25000000000000    0.20000000000000             2
   -0.11111111111111   -0.25000000000000    0.20000000000000             2
   -0.00000000000000   -0.12500000000000    0.20000000000000             2
    0.11111111111111   -0.12500000000000    0.20000000000000             2
    0.22222222222222   -0.12500000000000    0.20000000000000             2
    0.33333333333334   -0.12500000000000    0.20000000000000             2
    0.44444444444444   -0.12500000000000    0.20000000000000             2
   -0.44444444444444   -0.12500000000000    0.20000000000000             2
   -0.33333333333334   -0.12500000000000    0.20000000000000             2
   -0.22222222222222   -0.12500000000000    0.20000000000000             2
   -0.11111111111111   -0.12500000000000    0.20000000000000             2
   -0.00000000000000    0.00000000000000    0.30000000000000             2
    0.11111111111111    0.00000000000000    0.30000000000000             2
    0.22222222222222   -0.00000000000000    0.30000000000000             2
    0.33333333333334    0.00000000000000    0.30000000000000             2
    0.44444444444444    0.00000000000000    0.30000000000000             2
   -0.44444444444444    0.00000000000000    0.30000000000000             2
   -0.33333333333334   -0.00000000000000    0.30000000000000             2
   -0.22222222222222    0.00000000000000    0.30000000000000             2
   -0.11111111111111    0.00000000000000    0.30000000000000             2
    0.00000000000000    0.12500000000000    0.30000000000000             2
    0.11111111111111    0.12500000000000    0.30000000000000             2
    0.22222222222222    0.12500000000000    0.30000000000000             2
    0.33333333333334    0.12500000000000    0.30000000000000             2
    0.44444444444444    0.12500000000000    0.30000000000000             2
   -0.44444444444444    0.12500000000000    0.30000000000000             2
   -0.33333333333334    0.12500000000000    0.30000000000000             2
   -0.22222222222222    0.12500000000000    0.30000000000000             2
   -0.11111111111111    0.12500000000000    0.30000000000000             2
    0.00000000000000    0.25000000000000    0.30000000000000             2
    0.11111111111111    0.25000000000000    0.30000000000000             2
    0.22222222222222    0.25000000000000    0.30000000000000             2
    0.33333333333334    0.25000000000000    0.30000000000000             2
    0.44444444444444    0.25000000000000    0.30000000000000             2
   -0.44444444444444    0.25000000000000    0.30000000000000             2
   -0.33333333333334    0.25000000000000    0.30000000000000             2
   -0.22222222222222    0.25000000000000    0.30000000000000             2
   -0.11111111111111    0.25000000000000    0.30000000000000             2
    0.00000000000000    0.37500000000000    0.30000000000000             2
    0.11111111111111    0.37500000000000    0.30000000000000             2
    0.22222222222222    0.37500000000000    0.30000000000000             2
    0.33333333333334    0.37500000000000    0.30000000000000             2
    0.44444444444444    0.37500000000000    0.30000000000000             2
   -0.44444444444444    0.37500000000000    0.30000000000000             2
   -0.33333333333334    0.37500000000000    0.30000000000000             2
   -0.22222222222222    0.37500000000000    0.30000000000000             2
   -0.11111111111111    0.37500000000000    0.30000000000000             2
    0.00000000000000    0.50000000000000    0.30000000000000             2
    0.11111111111111    0.50000000000000    0.30000000000000             2
    0.22222222222222    0.50000000000000    0.30000000000000             2
    0.33333333333334    0.50000000000000    0.30000000000000             2
    0.44444444444444    0.50000000000000    0.30000000000000             2
   -0.44444444444444    0.50000000000000    0.30000000000000             2
   -0.33333333333334    0.50000000000000    0.30000000000000             2
   -0.22222222222222    0.50000000000000    0.30000000000000             2
   -0.11111111111111    0.50000000000000    0.30000000000000             2
   -0.00000000000000   -0.37500000000000    0.30000000000000             2
    0.11111111111111   -0.37500000000000    0.30000000000000             2
    0.22222222222222   -0.37500000000000    0.30000000000000             2
    0.33333333333334   -0.37500000000000    0.30000000000000             2
    0.44444444444444   -0.37500000000000    0.30000000000000             2
   -0.44444444444444   -0.37500000000000    0.30000000000000             2
   -0.33333333333334   -0.37500000000000    0.30000000000000             2
   -0.22222222222222   -0.37500000000000    0.30000000000000             2
   -0.11111111111111   -0.37500000000000    0.30000000000000             2
   -0.00000000000000   -0.25000000000000    0.30000000000000             2
    0.11111111111111   -0.25000000000000    0.30000000000000             2
    0.22222222222222   -0.25000000000000    0.30000000000000             2
    0.33333333333334   -0.25000000000000    0.30000000000000             2
    0.44444444444444   -0.25000000000000    0.30000000000000             2
   -0.44444444444444   -0.25000000000000    0.30000000000000             2
   -0.33333333333334   -0.25000000000000    0.30000000000000             2
   -0.22222222222222   -0.25000000000000    0.30000000000000             2
   -0.11111111111111   -0.25000000000000    0.30000000000000             2
   -0.00000000000000   -0.12500000000000    0.30000000000000             2
    0.11111111111111   -0.12500000000000    0.30000000000000             2
    0.22222222222222   -0.12500000000000    0.30000000000000             2
    0.33333333333334   -0.12500000000000    0.30000000000000             2
    0.44444444444444   -0.12500000000000    0.30000000000000             2
   -0.44444444444444   -0.12500000000000    0.30000000000000             2
   -0.33333333333334   -0.12500000000000    0.30000000000000             2
   -0.22222222222222   -0.12500000000000    0.30000000000000             2
   -0.11111111111111   -0.12500000000000    0.30000000000000             2
   -0.00000000000000    0.00000000000000    0.40000000000000             2
    0.11111111111111    0.00000000000000    0.40000000000000             2
    0.22222222222222    0.00000000000000    0.40000000000000             2
    0.33333333333334    0.00000000000000    0.40000000000000             2
    0.44444444444444    0.00000000000000    0.40000000000000             2
   -0.44444444444444    0.00000000000000    0.40000000000000             2
   -0.33333333333334    0.00000000000000    0.40000000000000             2
   -0.22222222222222    0.00000000000000    0.40000000000000             2
   -0.11111111111111    0.00000000000000    0.40000000000000             2
   -0.00000000000000    0.12500000000000    0.40000000000000             2
    0.11111111111111    0.12500000000000    0.40000000000000             2
    0.22222222222222    0.12500000000000    0.40000000000000             2
    0.33333333333334    0.12500000000000    0.40000000000000             2
    0.44444444444444    0.12500000000000    0.40000000000000             2
   -0.44444444444444    0.12500000000000    0.40000000000000             2
   -0.33333333333334    0.12500000000000    0.40000000000000             2
   -0.22222222222222    0.12500000000000    0.40000000000000             2
   -0.11111111111111    0.12500000000000    0.40000000000000             2
    0.00000000000000    0.25000000000000    0.40000000000000             2
    0.11111111111111    0.25000000000000    0.40000000000000             2
    0.22222222222222    0.25000000000000    0.40000000000000             2
    0.33333333333334    0.25000000000000    0.40000000000000             2
    0.44444444444444    0.25000000000000    0.40000000000000             2
   -0.44444444444444    0.25000000000000    0.40000000000000             2
   -0.33333333333334    0.25000000000000    0.40000000000000             2
   -0.22222222222222    0.25000000000000    0.40000000000000             2
   -0.11111111111111    0.25000000000000    0.40000000000000             2
    0.00000000000000    0.37500000000000    0.40000000000000             2
    0.11111111111111    0.37500000000000    0.40000000000000             2
    0.22222222222222    0.37500000000000    0.40000000000000             2
    0.33333333333334    0.37500000000000    0.40000000000000             2
    0.44444444444444    0.37500000000000    0.40000000000000             2
   -0.44444444444444    0.37500000000000    0.40000000000000             2
   -0.33333333333334    0.37500000000000    0.40000000000000             2
   -0.22222222222222    0.37500000000000    0.40000000000000             2
   -0.11111111111111    0.37500000000000    0.40000000000000             2
    0.00000000000000    0.50000000000000    0.40000000000000             2
    0.11111111111111    0.50000000000000    0.40000000000000             2
    0.22222222222222    0.50000000000000    0.40000000000000             2
    0.33333333333334    0.50000000000000    0.40000000000000             2
    0.44444444444444    0.50000000000000    0.40000000000000             2
   -0.44444444444444    0.50000000000000    0.40000000000000             2
   -0.33333333333334    0.50000000000000    0.40000000000000             2
   -0.22222222222222    0.50000000000000    0.40000000000000             2
   -0.11111111111111    0.50000000000000    0.40000000000000             2
   -0.00000000000000   -0.37500000000000    0.40000000000000             2
    0.11111111111111   -0.37500000000000    0.40000000000000             2
    0.22222222222222   -0.37500000000000    0.40000000000000             2
    0.33333333333334   -0.37500000000000    0.40000000000000             2
    0.44444444444444   -0.37500000000000    0.40000000000000             2
   -0.44444444444444   -0.37500000000000    0.40000000000000             2
   -0.33333333333334   -0.37500000000000    0.40000000000000             2
   -0.22222222222222   -0.37500000000000    0.40000000000000             2
   -0.11111111111111   -0.37500000000000    0.40000000000000             2
   -0.00000000000000   -0.25000000000000    0.40000000000000             2
    0.11111111111111   -0.25000000000000    0.40000000000000             2
    0.22222222222222   -0.25000000000000    0.40000000000000             2
    0.33333333333334   -0.25000000000000    0.40000000000000             2
    0.44444444444444   -0.25000000000000    0.40000000000000             2
   -0.44444444444444   -0.25000000000000    0.40000000000000             2
   -0.33333333333334   -0.25000000000000    0.40000000000000             2
   -0.22222222222222   -0.25000000000000    0.40000000000000             2
   -0.11111111111111   -0.25000000000000    0.40000000000000             2
   -0.00000000000000   -0.12500000000000    0.40000000000000             2
    0.11111111111111   -0.12500000000000    0.40000000000000             2
    0.22222222222222   -0.12500000000000    0.40000000000000             2
    0.33333333333334   -0.12500000000000    0.40000000000000             2
    0.44444444444444   -0.12500000000000    0.40000000000000             2
   -0.44444444444444   -0.12500000000000    0.40000000000000             2
   -0.33333333333334   -0.12500000000000    0.40000000000000             2
   -0.22222222222222   -0.12500000000000    0.40000000000000             2
   -0.11111111111111   -0.12500000000000    0.40000000000000             2
   -0.00000000000000    0.00000000000000    0.50000000000000             1
    0.11111111111111    0.00000000000000    0.50000000000000             2
    0.22222222222222    0.00000000000000    0.50000000000000             2
    0.33333333333334    0.00000000000000    0.50000000000000             2
    0.44444444444444    0.00000000000000    0.50000000000000             2
    0.00000000000000    0.12500000000000    0.50000000000000             2
    0.11111111111111    0.12500000000000    0.50000000000000             2
    0.22222222222222    0.12500000000000    0.50000000000000             2
    0.33333333333334    0.12500000000000    0.50000000000000             2
    0.44444444444444    0.12500000000000    0.50000000000000             2
   -0.44444444444444    0.12500000000000    0.50000000000000             2
   -0.33333333333334    0.12500000000000    0.50000000000000             2
   -0.22222222222222    0.12500000000000    0.50000000000000             2
   -0.11111111111111    0.12500000000000    0.50000000000000             2
    0.00000000000000    0.25000000000000    0.50000000000000             2
    0.11111111111111    0.25000000000000    0.50000000000000             2
    0.22222222222222    0.25000000000000    0.50000000000000             2
    0.33333333333334    0.25000000000000    0.50000000000000             2
    0.44444444444444    0.25000000000000    0.50000000000000             2
   -0.44444444444444    0.25000000000000    0.50000000000000             2
   -0.33333333333334    0.25000000000000    0.50000000000000             2
   -0.22222222222222    0.25000000000000    0.50000000000000             2
   -0.11111111111111    0.25000000000000    0.50000000000000             2
    0.00000000000000    0.37500000000000    0.50000000000000             2
    0.11111111111111    0.37500000000000    0.50000000000000             2
    0.22222222222222    0.37500000000000    0.50000000000000             2
    0.33333333333334    0.37500000000000    0.50000000000000             2
    0.44444444444444    0.37500000000000    0.50000000000000             2
   -0.44444444444444    0.37500000000000    0.50000000000000             2
   -0.33333333333334    0.37500000000000    0.50000000000000             2
   -0.22222222222222    0.37500000000000    0.50000000000000             2
   -0.11111111111111    0.37500000000000    0.50000000000000             2
    0.00000000000000    0.50000000000000    0.50000000000000             1
    0.11111111111111    0.50000000000000    0.50000000000000             2
    0.22222222222222    0.50000000000000    0.50000000000000             2
    0.33333333333334    0.50000000000000    0.50000000000000             2
    0.44444444444444    0.50000000000000    0.50000000000000             2
Tetrahedra
      2160    0.00023148148148
         2         1         2         7        38
         2         1         6         7        38
         2         6         7        38        47
         2         2         7        38        39
         2         7        38        39        48
         2         7        38        47        48
         2         2         3         8        39
         2         2         7         8        39
         2         7         8        39        48
         2         3         8        39        40
         2         8        39        40        49
         2         8        39        48        49
         2         3         4         9        40
         2         3         8         9        40
         2         8         9        40        49
         2         4         9        40        41
         2         9        40        41        50
         2         9        40        49        50
         2         4         5        10        41
         2         4         9        10        41
         2         9        10        41        50
         2         5        10        41        42
         2        10        41        42        51
         2        10        41        50        51
         2         5         5        11        42
         2         5        10        11        42
         2        10        11        42        51
         2         5        11        42        43
         2        11        42        43        52
         2        11        42        51        52
         2         4         5        12        43
         2         5        11        12        43
         2        11        12        43        52
         2         4        12        43        44
         2        12        43        44        53
         2        12        43        52        53
         2         3         4        13        44
         2         4        12        13        44
         2        12        13        44        53
         2         3        13        44        45
         2        13        44        45        54
         2        13        44        53        54
         2         2         3        14        45
         2         3        13        14        45
         2        13        14        45        54
         2         2        14        45        46
         2        14        45        46        55
         2        14        45        54        55
         2         1         2         6        46
         2         2         6        14        46
         2         6        14        46        55
         2         1         6        38        46
         2         6        38        46        47