 running on   12 total cores
 distrk:  each k-point on   12 cores,    1 groups
 distr:  one band on    6 cores,    2 groups
 using from now: INCAR     
 vasp.6.1.2 22Jul20 (build Mar 20 2021 11:25:07) complex                        
  
 POSCAR found type information on POSCAR LiP N 
 POSCAR found :  3 types and       8 ions
 scaLAPACK will be used
 -----------------------------------------------------------------------------
|                                                                             |
|               ----> ADVICE to this user running VASP <----                  |
|                                                                             |
|     You have a (more or less) 'small supercell' and for smaller cells       |
|     it is recommended to use the reciprocal-space projection scheme!        |
|     The real-space optimization is not efficient for small cells and it     |
|     is also less accurate ...                                               |
|     Therefore, set LREAL=.FALSE. in the INCAR file.                         |
|                                                                             |
 -----------------------------------------------------------------------------

 LDA part: xc-table for Pade appr. of Perdew
 generate k-points for:    9    8   10
 POSCAR, INCAR and KPOINTS ok, starting setup
 FFT: planning ...
 WAVECAR not read
 entering main loop
       N       E                     dE             d eps       ncg     rms          rms(c)
DAV:   1     0.212656575744E+03    0.21266E+03   -0.17930E+04 37648   0.139E+03
DAV:   2    -0.412592352840E+02   -0.25392E+03   -0.24586E+03 46066   0.336E+02
DAV:   3    -0.586837268271E+02   -0.17424E+02   -0.17342E+02 62158   0.810E+01
DAV:   4    -0.597130831743E+02   -0.10294E+01   -0.10265E+01 56072   0.162E+01
DAV:   5    -0.597515062010E+02   -0.38423E-01   -0.38420E-01 56418   0.263E+00    0.303E+01
RMM:   6    -0.530519295747E+02    0.66996E+01   -0.20338E+01 41224   0.228E+01    0.139E+01
RMM:   7    -0.532943563717E+02   -0.24243E+00   -0.61253E+00 55072   0.135E+01    0.659E+00
RMM:   8    -0.533935508515E+02   -0.99194E-01   -0.59959E-01 60324   0.544E+00    0.347E+00
RMM:   9    -0.533988267363E+02   -0.52759E-02   -0.25428E-01 59379   0.341E+00    0.112E+00
RMM:  10    -0.534113781670E+02   -0.12551E-01   -0.12628E-01 66993   0.207E+00    0.377E-01
RMM:  11    -0.534160112153E+02   -0.46330E-02   -0.60858E-02 70357   0.117E+00    0.247E-01
RMM:  12    -0.534188201708E+02   -0.28090E-02   -0.24216E-02 72874   0.718E-01    0.201E-01
RMM:  13    -0.534198752966E+02   -0.10551E-02   -0.91926E-03 72322   0.436E-01    0.651E-02
RMM:  14    -0.534202757544E+02   -0.40046E-03   -0.33820E-03 71061   0.287E-01    0.417E-02
RMM:  15    -0.534204527303E+02   -0.17698E-03   -0.15506E-03 71346   0.187E-01    0.284E-02
RMM:  16    -0.534205177368E+02   -0.65007E-04   -0.61318E-04 69921   0.122E-01    0.156E-02
RMM:  17    -0.534205436281E+02   -0.25891E-04   -0.29685E-04 67485   0.862E-02    0.851E-03
RMM:  18    -0.534205602724E+02   -0.16644E-04   -0.12081E-04 57863   0.611E-02    0.526E-03
RMM:  19    -0.534205639897E+02   -0.37173E-05   -0.43648E-05 48164   0.483E-02
   1 F= -.53420564E+02 E0= -.53420564E+02  d E =0.000000E+00  mag=    -0.0000
