 running on   24 total cores
 distrk:  each k-point on   24 cores,    1 groups
 distr:  one band on    6 cores,    4 groups
 using from now: INCAR     
 vasp.6.1.2 22Jul20 (build Mar 31 2021 18:09:49) complex                        
  
 POSCAR found type information on POSCAR LiO 
 POSCAR found :  2 types and       3 ions
 scaLAPACK will be used
 -----------------------------------------------------------------------------
|                                                                             |
|               ----> ADVICE to this user running VASP <----                  |
|                                                                             |
|     You have a (more or less) 'small supercell' and for smaller cells       |
|     it is recommended to use the reciprocal-space projection scheme!        |
|     The real-space optimization is not efficient for small cells and it     |
|     is also less accurate ...                                               |
|     Therefore, set LREAL=.FALSE. in the INCAR file.                         |
|                                                                             |
 -----------------------------------------------------------------------------

 LDA part: xc-table for Pade appr. of Perdew
 generate k-points for:   12   12   12
 POSCAR, INCAR and KPOINTS ok, starting setup
 FFT: planning ...
 WAVECAR not read
 entering main loop
       N       E                     dE             d eps       ncg     rms          rms(c)
DAV:   1     0.446592536597E+02    0.44659E+02   -0.56141E+03 22952   0.103E+03
DAV:   2    -0.967953575721E+01   -0.54339E+02   -0.52418E+02 27536   0.227E+02
DAV:   3    -0.152737793762E+02   -0.55942E+01   -0.55510E+01 43028   0.532E+01
DAV:   4    -0.153234330490E+02   -0.49654E-01   -0.49648E-01 26480   0.650E+00
DAV:   5    -0.153238501779E+02   -0.41713E-03   -0.41712E-03 31652   0.457E-01    0.116E+01
RMM:   6    -0.141969911779E+02    0.11269E+01   -0.35471E+00 24996   0.125E+01    0.500E+00
RMM:   7    -0.143015357383E+02   -0.10454E+00   -0.12426E-01 28366   0.290E+00    0.208E+00
RMM:   8    -0.143047705528E+02   -0.32348E-02   -0.51246E-02 32291   0.223E+00    0.116E+00
RMM:   9    -0.143173098827E+02   -0.12539E-01   -0.31021E-02 32574   0.198E+00    0.248E-01
RMM:  10    -0.143183576940E+02   -0.10478E-02   -0.91650E-03 37502   0.728E-01    0.143E-01
RMM:  11    -0.143193645104E+02   -0.10068E-02   -0.57038E-03 35616   0.592E-01    0.177E-01
RMM:  12    -0.143191670763E+02    0.19743E-03   -0.16554E-03 36480   0.332E-01    0.801E-02
RMM:  13    -0.143191655123E+02    0.15640E-05   -0.80577E-04 36662   0.228E-01    0.204E-02
WARNING in EDDRMM: call to ZHEGV failed, returncode =   6  3      3
RMM:  14    -0.143192067874E+02   -0.41275E-04   -0.32806E-04 35883   0.126E-01    0.295E-02
RMM:  15    -0.143192247880E+02   -0.18001E-04   -0.12529E-04 32969   0.809E-02    0.297E-02
RMM:  16    -0.143192273752E+02   -0.25872E-05   -0.57129E-05 30295   0.581E-02
   1 F= -.14319227E+02 E0= -.14319227E+02  d E =0.000000E+00  mag=    -0.0000
