 running on   24 total cores
 distrk:  each k-point on   24 cores,    1 groups
 distr:  one band on    6 cores,    4 groups
 using from now: INCAR     
 vasp.6.1.2 22Jul20 (build Mar 31 2021 18:09:49) complex                        
  
 POSCAR found type information on POSCAR LiP 
 POSCAR found :  2 types and       8 ions
 scaLAPACK will be used
 -----------------------------------------------------------------------------
|                                                                             |
|               ----> ADVICE to this user running VASP <----                  |
|                                                                             |
|     You have a (more or less) 'small supercell' and for smaller cells       |
|     it is recommended to use the reciprocal-space projection scheme!        |
|     The real-space optimization is not efficient for small cells and it     |
|     is also less accurate ...                                               |
|     Therefore, set LREAL=.FALSE. in the INCAR file.                         |
|                                                                             |
 -----------------------------------------------------------------------------

 LDA part: xc-table for Pade appr. of Perdew
 generate k-points for:    9    9    4
 POSCAR, INCAR and KPOINTS ok, starting setup
 FFT: planning ...
 WAVECAR not read
 entering main loop
       N       E                     dE             d eps       ncg     rms          rms(c)
DAV:   1     0.158199076559E+03    0.15820E+03   -0.11796E+04  9120   0.118E+03
DAV:   2     0.193104289324E+01   -0.15627E+03   -0.14730E+03  9912   0.299E+02
DAV:   3    -0.235058867288E+02   -0.25437E+02   -0.25194E+02 16376   0.697E+01
DAV:   4    -0.262406362882E+02   -0.27347E+01   -0.27143E+01 13512   0.309E+01
DAV:   5    -0.264427582717E+02   -0.20212E+00   -0.20211E+00 14416   0.666E+00    0.149E+01
RMM:   6    -0.269058215140E+02   -0.46306E+00   -0.16347E+00 11152   0.633E+00    0.755E+00
RMM:   7    -0.276082986610E+02   -0.70248E+00   -0.50164E-01 12689   0.430E+00    0.284E+00
RMM:   8    -0.276773122394E+02   -0.69014E-01   -0.38044E-01 14439   0.285E+00    0.118E+00
RMM:   9    -0.276860803033E+02   -0.87681E-02   -0.97963E-02 15203   0.170E+00    0.514E-01
RMM:  10    -0.276944915160E+02   -0.84112E-02   -0.43473E-02 15910   0.103E+00    0.265E-01
RMM:  11    -0.276967341504E+02   -0.22426E-02   -0.16573E-02 16276   0.605E-01    0.196E-01
RMM:  12    -0.276975625004E+02   -0.82835E-03   -0.65012E-03 15946   0.458E-01    0.532E-02
RMM:  13    -0.276981761293E+02   -0.61363E-03   -0.36229E-03 16347   0.283E-01    0.181E-02
RMM:  14    -0.276984128962E+02   -0.23677E-03   -0.19536E-03 15994   0.188E-01    0.225E-02
RMM:  15    -0.276985200535E+02   -0.10716E-03   -0.92624E-04 14328   0.127E-01    0.202E-02
RMM:  16    -0.276985779681E+02   -0.57915E-04   -0.51559E-04 14227   0.938E-02    0.293E-02
RMM:  17    -0.276986000550E+02   -0.22087E-04   -0.29460E-04 13776   0.783E-02    0.147E-02
RMM:  18    -0.276986207382E+02   -0.20683E-04   -0.19230E-04 13415   0.584E-02    0.128E-02
RMM:  19    -0.276986317594E+02   -0.11021E-04   -0.11789E-04 11735   0.466E-02    0.976E-03
RMM:  20    -0.276986384545E+02   -0.66951E-05   -0.70753E-05 10870   0.396E-02
   1 F= -.27698638E+02 E0= -.27698638E+02  d E =0.000000E+00  mag=    -0.0001
