       N       E                     dE             d eps       ncg     rms          rms(c)
DAV:   1     0.184720366494E+00    0.18472E+00   -0.70744E+02  2736   0.258E+02
DAV:   2    -0.157208140832E+01   -0.17568E+01   -0.17106E+01  3928   0.349E+01
DAV:   3    -0.159754559551E+01   -0.25464E-01   -0.25234E-01  3024   0.318E+00
DAV:   4    -0.159779835393E+01   -0.25276E-03   -0.25251E-03  3960   0.278E-01
DAV:   5    -0.159779991319E+01   -0.15593E-05   -0.15582E-05  3160   0.143E-02    0.545E+00
RMM:   6    -0.182849392576E+01   -0.23069E+00   -0.52850E-02  3240   0.169E+00    0.258E+00
RMM:   7    -0.189881839118E+01   -0.70324E-01   -0.16045E-02  2865   0.981E-01    0.157E-01
RMM:   8    -0.189985589014E+01   -0.10375E-02   -0.43972E-03  3184   0.561E-01    0.922E-02
RMM:   9    -0.190016458792E+01   -0.30870E-03   -0.17090E-03  3748   0.327E-01    0.341E-02
RMM:  10    -0.190046616689E+01   -0.30158E-03   -0.14020E-03  3503   0.283E-01    0.287E-02
RMM:  11    -0.190051490696E+01   -0.48740E-04   -0.19924E-04  3815   0.115E-01    0.228E-02
RMM:  12    -0.190053939408E+01   -0.24487E-04   -0.14233E-04  3590   0.885E-02    0.797E-03
RMM:  13    -0.190054744726E+01   -0.80532E-05   -0.30730E-05  3448   0.446E-02
   1 F= -.19005474E+01 E0= -.19005474E+01  d E =0.000000E+00  mag=    -0.0000
