       N       E                     dE             d eps       ncg     rms          rms(c)
DAV:   1     0.889888500219E+02    0.88989E+02   -0.83620E+03 23760   0.118E+03
DAV:   2    -0.225461788454E+02   -0.11154E+03   -0.10801E+03 31414   0.268E+02
DAV:   3    -0.283795196618E+02   -0.58333E+01   -0.58097E+01 32574   0.667E+01
DAV:   4    -0.286171735186E+02   -0.23765E+00   -0.23751E+00 37108   0.114E+01
DAV:   5    -0.286201342172E+02   -0.29607E-02   -0.29604E-02 32334   0.133E+00    0.127E+01
RMM:   6    -0.274850756360E+02    0.11351E+01   -0.38608E+00 25691   0.136E+01    0.586E+00
RMM:   7    -0.274352489924E+02    0.49827E-01   -0.69455E-01 30696   0.756E+00    0.336E+00
RMM:   8    -0.274230695011E+02    0.12179E-01   -0.28137E-01 34037   0.420E+00    0.167E+00
RMM:   9    -0.274365361395E+02   -0.13467E-01   -0.74262E-02 36449   0.230E+00    0.642E-01
RMM:  10    -0.274376936962E+02   -0.11576E-02   -0.23810E-02 38377   0.123E+00    0.149E-01
RMM:  11    -0.274391037140E+02   -0.14100E-02   -0.95681E-03 41012   0.692E-01    0.895E-02
RMM:  12    -0.274397501923E+02   -0.64648E-03   -0.43743E-03 43316   0.433E-01    0.509E-02
RMM:  13    -0.274399893543E+02   -0.23916E-03   -0.18532E-03 42766   0.278E-01    0.178E-02
RMM:  14    -0.274401028054E+02   -0.11345E-03   -0.88078E-04 41944   0.194E-01    0.138E-02
RMM:  15    -0.274401531203E+02   -0.50315E-04   -0.41023E-04 39106   0.126E-01    0.818E-03
RMM:  16    -0.274401758249E+02   -0.22705E-04   -0.19051E-04 35739   0.883E-02    0.220E-03
RMM:  17    -0.274401868686E+02   -0.11044E-04   -0.87351E-05 30901   0.659E-02    0.210E-03
RMM:  18    -0.274401912043E+02   -0.43357E-05   -0.42505E-05 27917   0.539E-02
   1 F= -.27440191E+02 E0= -.27440191E+02  d E =0.000000E+00  mag=    -0.0000
