       N       E                     dE             d eps       ncg     rms          rms(c)
DAV:   1     0.244483102491E+03    0.24448E+03   -0.17146E+04  7296   0.121E+03
DAV:   2    -0.157343723508E+02   -0.26022E+03   -0.24857E+03  8648   0.321E+02
DAV:   3    -0.381871587828E+02   -0.22453E+02   -0.22169E+02 12536   0.747E+01
DAV:   4    -0.392237196338E+02   -0.10366E+01   -0.10339E+01  9920   0.157E+01
DAV:   5    -0.392406609582E+02   -0.16941E-01   -0.16941E-01 10592   0.186E+00    0.179E+01
RMM:   6    -0.381191739973E+02    0.11215E+01   -0.35858E+00  8099   0.926E+00    0.779E+00
RMM:   7    -0.387059926446E+02   -0.58682E+00   -0.51968E-01  8585   0.422E+00    0.387E+00
RMM:   8    -0.387705854206E+02   -0.64593E-01   -0.20126E-01  9977   0.252E+00    0.156E+00
RMM:   9    -0.387772044243E+02   -0.66190E-02   -0.68009E-02 10630   0.159E+00    0.402E-01
RMM:  10    -0.387838645647E+02   -0.66601E-02   -0.29437E-02 11638   0.882E-01    0.183E-01
RMM:  11    -0.387866534628E+02   -0.27889E-02   -0.11237E-02 12133   0.480E-01    0.114E-01
RMM:  12    -0.387874132640E+02   -0.75980E-03   -0.41961E-03 12607   0.280E-01    0.766E-02
RMM:  13    -0.387876402201E+02   -0.22696E-03   -0.15839E-03 12052   0.189E-01    0.248E-02
RMM:  14    -0.387877822270E+02   -0.14201E-03   -0.73151E-04 12118   0.127E-01    0.815E-03
RMM:  15    -0.387878205787E+02   -0.38352E-04   -0.29727E-04 11723   0.740E-02    0.725E-03
RMM:  16    -0.387878347937E+02   -0.14215E-04   -0.12020E-04 10951   0.479E-02    0.333E-03
RMM:  17    -0.387878402170E+02   -0.54233E-05   -0.46320E-05  9748   0.331E-02
   1 F= -.38787840E+02 E0= -.38787840E+02  d E =0.000000E+00  mag=    -0.0000
