 running on    8 total cores
 distrk:  each k-point on    8 cores,    1 groups
 distr:  one band on    1 cores,    8 groups
 using from now: INCAR     
 vasp.6.1.2 22Jul20 (build Mar 20 2021 11:25:07) complex                        
  
 POSCAR found type information on POSCAR LiP 
 POSCAR found :  2 types and      40 ions
 scaLAPACK will be used
 -----------------------------------------------------------------------------
|                                                                             |
|           W    W    AA    RRRRR   N    N  II  N    N   GGGG   !!!           |
|           W    W   A  A   R    R  NN   N  II  NN   N  G    G  !!!           |
|           W    W  A    A  R    R  N N  N  II  N N  N  G       !!!           |
|           W WW W  AAAAAA  RRRRR   N  N N  II  N  N N  G  GGG   !            |
|           WW  WW  A    A  R   R   N   NN  II  N   NN  G    G                |
|           W    W  A    A  R    R  N    N  II  N    N   GGGG   !!!           |
|                                                                             |
|     The value NCORE = 6 specified in the INCAR file was overwritten,        |
|     because it was not compatible with the 8 processes available:           |
|     NCORE = 1                                                               |
|     was used instead, please check that this makes sense for your           |
|     machine.                                                                |
|                                                                             |
 -----------------------------------------------------------------------------

 -----------------------------------------------------------------------------
|                                                                             |
|           W    W    AA    RRRRR   N    N  II  N    N   GGGG   !!!           |
|           W    W   A  A   R    R  NN   N  II  NN   N  G    G  !!!           |
|           W    W  A    A  R    R  N N  N  II  N N  N  G       !!!           |
|           W WW W  AAAAAA  RRRRR   N  N N  II  N  N N  G  GGG   !            |
|           WW  WW  A    A  R   R   N   NN  II  N   NN  G    G                |
|           W    W  A    A  R    R  N    N  II  N    N   GGGG   !!!           |
|                                                                             |
|     For optimal performance we recommend to set                             |
|       NCORE = 4 - approx SQRT(number of cores).                             |
|     NCORE specifies how many cores store one orbital (NPAR=cpu/NCORE).      |
|     This setting can greatly improve the performance of VASP for DFT.       |
|     The default, NCORE=1 might be grossly inefficient on modern             |
|     multi-core architectures or massively parallel machines. Do your        |
|     own testing!!!!                                                         |
|     Unfortunately you need to use the default for GW and RPA                |
|     calculations (for HF NCORE is supported but not extensively tested      |
|     yet).                                                                   |
|                                                                             |
 -----------------------------------------------------------------------------

 LDA part: xc-table for Pade appr. of Perdew
 generate k-points for:    4    3    3
 POSCAR, INCAR and KPOINTS ok, starting setup
 FFT: planning ...
 WAVECAR not read
 entering main loop
       N       E                     dE             d eps       ncg     rms          rms(c)
DAV:   1     0.106204523554E+04    0.10620E+04   -0.68920E+04  6144   0.128E+03
DAV:   2    -0.317807468997E+02   -0.10938E+04   -0.10024E+04  7248   0.283E+02
DAV:   3    -0.166249231630E+03   -0.13447E+03   -0.13263E+03  8312   0.941E+01
DAV:   4    -0.182279532577E+03   -0.16030E+02   -0.15907E+02 11160   0.278E+01
DAV:   5    -0.184966562586E+03   -0.26870E+01   -0.26856E+01  9800   0.774E+00    0.364E+01
DAV:   6    -0.185044115854E+03   -0.77553E-01   -0.87888E+00  7968   0.684E+00    0.202E+01
DAV:   7    -0.187245755121E+03   -0.22016E+01   -0.33543E+00  7576   0.439E+00    0.122E+01
DAV:   8    -0.188049149064E+03   -0.80339E+00   -0.14645E+00  7408   0.307E+00    0.252E+00
DAV:   9    -0.188110574579E+03   -0.61426E-01   -0.20928E-01  8512   0.132E+00    0.128E+00
DAV:  10    -0.188120113035E+03   -0.95385E-02   -0.40601E-02  7880   0.501E-01    0.469E-01
DAV:  11    -0.188123929273E+03   -0.38162E-02   -0.64893E-03  7504   0.250E-01    0.212E-01
DAV:  12    -0.188125586334E+03   -0.16571E-02   -0.22347E-03  8448   0.128E-01    0.106E-01
DAV:  13    -0.188126341900E+03   -0.75557E-03   -0.55910E-04  7664   0.587E-02    0.447E-02
DAV:  14    -0.188126624641E+03   -0.28274E-03   -0.26047E-04  7296   0.393E-02    0.230E-02
DAV:  15    -0.188126698732E+03   -0.74091E-04   -0.76744E-05  6672   0.223E-02    0.116E-02
DAV:  16    -0.188126714896E+03   -0.16164E-04   -0.15563E-05  5720   0.112E-02    0.526E-03
DAV:  17    -0.188126719024E+03   -0.41281E-05   -0.48078E-06  4768   0.611E-03
   1 F= -.18812672E+03 E0= -.18812672E+03  d E =0.000000E+00  mag=    -0.0001
