    6    6    1    2
  0.1376375E+02  0.4946490E-09  0.4946490E-09  0.4946490E-09  0.5000000E-15
  1.000000000000000E-004
  CAR 
 unknown system                          
     32    290     24
 
  0.0000000E+00  0.0000000E+00  0.0000000E+00  0.1736111E-02
    1      -19.946685    -19.946594   1.000000   1.000000
    2      -17.883610    -17.883442   1.000000   1.000000
    3      -14.213731    -14.213704   1.000000   1.000000
    4      -12.777855    -12.777862   1.000000   1.000000
    5      -11.772733    -11.772771   1.000000   1.000000
    6       -6.959288     -6.959273   1.000000   1.000000
    7       -5.845938     -5.845986   1.000000   1.000000
    8       -5.801685     -5.801699   1.000000   1.000000
    9       -2.816540     -2.816396   1.000000   1.000000
   10       -2.104034     -2.103905   1.000000   1.000000
   11       -1.098050     -1.097874   1.000000   1.000000
   12       -1.070276     -1.070140   1.000000   1.000000
   13       -0.099944     -0.099927   1.000000   1.000000
   14        0.222841      0.222880   1.000000   1.000000
   15        0.846795      0.846839   1.000000   1.000000
   16        1.548512      1.548606   1.000000   1.000000
   17        6.283660      6.283699   0.000003   0.000003
   18        6.959169      6.959151   0.000000   0.000000
   19        8.026312      8.026310   0.000000   0.000000
   20        9.631801      9.632014   0.000000   0.000000
   21        9.686038      9.685967   0.000000   0.000000
   22       10.965319     10.965270   0.000000   0.000000
   23       12.758000     12.789577   0.000000   0.000000
   24       12.979189     12.978877   0.000000   0.000000
 
  0.1250000E+00 -0.6115521E-17  0.6115521E-17  0.3472222E-02
    1      -19.924288    -19.924196   1.000000   1.000000
    2      -17.887407    -17.887238   1.000000   1.000000
    3      -14.280934    -14.280914   1.000000   1.000000
    4      -13.097919    -13.097930   1.000000   1.000000
    5      -11.319649    -11.319679   1.000000   1.000000
    6       -6.931177     -6.931162   1.000000   1.000000
    7       -5.896853     -5.896894   1.000000   1.000000
    8       -5.770130     -5.770151   1.000000   1.000000
    9       -2.789319     -2.789177   1.000000   1.000000
   10       -2.132245     -2.132117   1.000000   1.000000
   11       -1.281950     -1.281816   1.000000   1.000000
   12       -1.050315     -1.050146   1.000000   1.000000
   13       -0.047015     -0.046985   1.000000   1.000000
   14        0.154332      0.154371   1.000000   1.000000
   15        0.806833      0.806879   1.000000   1.000000
   16        1.544650      1.544740   1.000000   1.000000
   17        6.455918      6.455948  -0.000000  -0.000000
   18        7.028263      7.028239   0.000000   0.000000
   19        7.938965      7.938985   0.000000   0.000000
   20        9.627343      9.627301   0.000000   0.000000
   21        9.834731      9.834910   0.000000   0.000000
   22       10.831169     10.831123   0.000000   0.000000
   23       12.776280     12.796958   0.000000   0.000000
   24       12.953301     12.949462   0.000000   0.000000
 
  0.2500000E+00 -0.1223104E-16  0.1223104E-16  0.3472222E-02
    1      -19.868193    -19.868098   1.000000   1.000000
    2      -17.897112    -17.896944   1.000000   1.000000
    3      -14.479631    -14.479628   1.000000   1.000000
    4      -13.458067    -13.458069   1.000000   1.000000
    5      -10.580233    -10.580258   1.000000   1.000000
    6       -6.860559     -6.860542   1.000000   1.000000
    7       -6.055140     -6.055175   1.000000   1.000000
    8       -5.670824     -5.670849   1.000000   1.000000
    9       -2.718841     -2.718699   1.000000   1.000000
   10       -2.258774     -2.258648   1.000000   1.000000
   11       -1.648277     -1.648153   1.000000   1.000000
   12       -0.977097     -0.976928   1.000000   1.000000
   13       -0.031593     -0.031549   1.000000   1.000000
   14        0.060807      0.060851   1.000000   1.000000
   15        0.734233      0.734273   1.000000   1.000000
   16        1.502191      1.502277   1.000000   1.000000
   17        6.804740      6.804757   0.000000   0.000000
   18        7.050422      7.050388   0.000000   0.000000
   19        8.191793      8.191832   0.000000   0.000000
   20        9.445084      9.445090   0.000000   0.000000
   21       10.043546     10.043559   0.000000   0.000000
   22       10.775166     10.775408   0.000000   0.000000
   23       12.324929     12.340225   0.000000   0.000000
   24       12.657593     12.671261   0.000000   0.000000
 
  0.3750000E+00 -0.2666324E-16  0.2666324E-16  0.3472222E-02
    1      -19.809068    -19.808970   1.000000   1.000000
    2      -17.907467    -17.907299   1.000000   1.000000
    3      -14.709750    -14.709763   1.000000   1.000000
    4      -13.629893    -13.629885   1.000000   1.000000
    5       -9.954989     -9.955012   1.000000   1.000000
    6       -6.788934     -6.788918   1.000000   1.000000
    7       -6.235908     -6.235940   1.000000   1.000000
    8       -5.575745     -5.575770   1.000000   1.000000
    9       -2.650514     -2.650370   1.000000   1.000000
   10       -2.514258     -2.514131   1.000000   1.000000
   11       -1.852425     -1.852307   1.000000   1.000000
   12       -0.842568     -0.842392   1.000000   1.000000
   13       -0.218172     -0.218131   1.000000   1.000000
   14        0.011242      0.011290   1.000000   1.000000
   15        0.796198      0.796229   1.000000   1.000000
   16        1.376254      1.376340   1.000000   1.000000
   17        6.965361      6.965362   0.000000   0.000000
   18        7.226840      7.226822   0.000000   0.000000
   19        8.697262      8.697253   0.000000   0.000000
   20        9.324889      9.324936   0.000000   0.000000
   21        9.978170      9.978089   0.000000   0.000000
   22       10.957769     10.957972   0.000000   0.000000
   23       11.855503     11.854223   0.000000   0.000000
   24       12.144230     12.143203   0.000000   0.000000
 
  0.5000000E+00 -0.2446208E-16  0.2446208E-16  0.1736111E-02
    1      -19.783581    -19.783481   1.000000   1.000000
    2      -17.911956    -17.911789   1.000000   1.000000
    3      -14.807970    -14.807989   1.000000   1.000000
    4      -13.676459    -13.676447   1.000000   1.000000
    5       -9.699128     -9.699150   1.000000   1.000000
    6       -6.761970     -6.761956   1.000000   1.000000
    7       -6.319686     -6.319715   1.000000   1.000000
    8       -5.538325     -5.538351   1.000000   1.000000
    9       -2.710214     -2.710081   1.000000   1.000000
   10       -2.562239     -2.562097   1.000000   1.000000
   11       -1.899277     -1.899161   1.000000   1.000000
   12       -0.712426     -0.712209   1.000000   1.000000
   13       -0.402038     -0.402040   1.000000   1.000000
   14       -0.005144     -0.005095   1.000000   1.000000
   15        0.891832      0.891856   1.000000   1.000000
   16        1.267275      1.267366   1.000000   1.000000
   17        7.078190      7.078197   0.000000   0.000000
   18        7.283177      7.283163   0.000000   0.000000
   19        8.736798      8.736751   0.000000   0.000000
   20        9.682687      9.682733   0.000000   0.000000
   21        9.869410      9.869351   0.000000   0.000000
   22       10.744604     10.744797   0.000000   0.000000
   23       11.801695     11.801664   0.000000   0.000000
   24       12.057745     12.056940   0.000000   0.000000
 
 -0.6115521E-17  0.1250000E+00  0.6115521E-17  0.3472222E-02
    1      -19.882865    -19.882772   1.000000   1.000000
    2      -17.978088    -17.977924   1.000000   1.000000
    3      -14.328849    -14.328826   1.000000   1.000000
    4      -12.789704    -12.789711   1.000000   1.000000
    5      -11.533497    -11.533528   1.000000   1.000000
    6       -6.993817     -6.993802   1.000000   1.000000
    7       -5.917166     -5.917195   1.000000   1.000000
    8       -5.679609     -5.679641   1.000000   1.000000
    9       -2.845643     -2.845505   1.000000   1.000000
   10       -2.115170     -2.115040   1.000000   1.000000
   11       -1.202993     -1.202831   1.000000   1.000000
   12       -1.075230     -1.075082   1.000000   1.000000
   13       -0.059741     -0.059724   1.000000   1.000000
   14        0.143217      0.143259   1.000000   1.000000
   15        0.753654      0.753708   1.000000   1.000000
   16        1.549654      1.549743   1.000000   1.000000
   17        6.524674      6.524699  -0.000000  -0.000000
   18        7.107183      7.107168   0.000000   0.000000
   19        8.098785      8.098783   0.000000   0.000000
   20        9.432538      9.432602   0.000000   0.000000
   21        9.784621      9.784668   0.000000   0.000000
   22       11.060379     11.060337   0.000000   0.000000
   23       12.323112     12.329269   0.000000   0.000000
   24       13.170444     13.166176   0.000000   0.000000
 
  0.1250000E+00  0.1250000E+00  0.2610883E-16  0.3472222E-02
    1      -19.843666    -19.843571   1.000000   1.000000
    2      -17.988594    -17.988431   1.000000   1.000000
    3      -14.507320    -14.507306   1.000000   1.000000
    4      -13.032031    -13.032039   1.000000   1.000000
    5      -10.998063    -10.998088   1.000000   1.000000
    6       -6.971478     -6.971463   1.000000   1.000000
    7       -5.953241     -5.953262   1.000000   1.000000
    8       -5.664154     -5.664191   1.000000   1.000000
    9       -2.787827     -2.787688   1.000000   1.000000
   10       -2.205246     -2.205119   1.000000   1.000000
   11       -1.403071     -1.402932   1.000000   1.000000
   12       -1.074713     -1.074553   1.000000   1.000000
   13       -0.061391     -0.061353   1.000000   1.000000
   14        0.088129      0.088167   1.000000   1.000000
   15        0.659593      0.659645   1.000000   1.000000
   16        1.572364      1.572447   1.000000   1.000000
   17        6.746680      6.746697  -0.000000  -0.000000
   18        7.228765      7.228742   0.000000   0.000000
   19        8.137196      8.137219   0.000000   0.000000
   20        9.538177      9.538159   0.000000   0.000000
   21        9.810300      9.810395   0.000000   0.000000
   22       10.829592     10.829544   0.000000   0.000000
   23       12.275048     12.278885   0.000000   0.000000
   24       13.028459     13.012167   0.000000   0.000000
 
  0.2500000E+00  0.1250000E+00  0.2666324E-16  0.3472222E-02
    1      -19.782255    -19.782157   1.000000   1.000000
    2      -18.004640    -18.004477   1.000000   1.000000
    3      -14.696982    -14.696981   1.000000   1.000000
    4      -13.348356    -13.348357   1.000000   1.000000
    5      -10.271128    -10.271150   1.000000   1.000000
    6       -6.982367     -6.982355   1.000000   1.000000
    7       -6.044722     -6.044741   1.000000   1.000000
    8       -5.579965     -5.580000   1.000000   1.000000
    9       -2.715934     -2.715793   1.000000   1.000000
   10       -2.393000     -2.392875   1.000000   1.000000
   11       -1.717697     -1.717571   1.000000   1.000000
   12       -0.984872     -0.984708   1.000000   1.000000
   13       -0.100934     -0.100874   1.000000   1.000000
   14        0.031757      0.031798   1.000000   1.000000
   15        0.598004      0.598045   1.000000   1.000000
   16        1.546021      1.546097   1.000000   1.000000
   17        6.968683      6.968686   0.000000   0.000000
   18        7.344225      7.344198   0.000000   0.000000
   19        8.431751      8.431781   0.000000   0.000000
   20        9.476138      9.476159   0.000000   0.000000
   21        9.873358      9.873301   0.000000   0.000000
   22       10.809902     10.810022   0.000000   0.000000
   23       11.958852     11.958895   0.000000   0.000000
   24       12.664232     12.666701   0.000000   0.000000
 
  0.3750000E+00  0.1250000E+00  0.5221766E-16  0.3472222E-02
    1      -19.734195    -19.734094   1.000000   1.000000
    2      -18.017105    -18.016944   1.000000   1.000000
    3      -14.800027    -14.800037   1.000000   1.000000
    4      -13.572836    -13.572829   1.000000   1.000000
    5       -9.715981     -9.716002   1.000000   1.000000
    6       -7.056554     -7.056549   1.000000   1.000000
    7       -6.112583     -6.112598   1.000000   1.000000
    8       -5.493256     -5.493285   1.000000   1.000000
    9       -2.721761     -2.721630   1.000000   1.000000
   10       -2.556541     -2.556405   1.000000   1.000000
   11       -1.888773     -1.888653   1.000000   1.000000
   12       -0.811673     -0.811485   1.000000   1.000000
   13       -0.272757     -0.272719   1.000000   1.000000
   14       -0.018034     -0.017987   1.000000   1.000000
   15        0.720950      0.720988   1.000000   1.000000
   16        1.413238      1.413312   1.000000   1.000000
   17        7.127400      7.127398   0.000000   0.000000
   18        7.358227      7.358212   0.000000   0.000000
   19        8.659946      8.659917   0.000000   0.000000
   20        9.608024      9.608049   0.000000   0.000000
   21        9.892442      9.892378   0.000000   0.000000
   22       10.900066     10.900350   0.000000   0.000000
   23       11.735665     11.735567   0.000000   0.000000
   24       12.224187     12.222456   0.000000   0.000000
 
  0.5000000E+00  0.1250000E+00 -0.2739080E-17  0.3472222E-02
    1      -19.730893    -19.730792   1.000000   1.000000
    2      -18.017379    -18.017218   1.000000   1.000000
    3      -14.731152    -14.731166   1.000000   1.000000
    4      -13.709558    -13.709547   1.000000   1.000000
    5       -9.604667     -9.604688   1.000000   1.000000
    6       -7.093393     -7.093391   1.000000   1.000000
    7       -6.118567     -6.118586   1.000000   1.000000
    8       -5.463144     -5.463168   1.000000   1.000000
    9       -2.714629     -2.714500   1.000000   1.000000
   10       -2.604734     -2.604599   1.000000   1.000000
   11       -1.926181     -1.926062   1.000000   1.000000
   12       -0.763332     -0.763121   1.000000   1.000000
   13       -0.302775     -0.302756   1.000000   1.000000
   14       -0.000671     -0.000624   1.000000   1.000000
   15        0.908201      0.908234   1.000000   1.000000
   16        1.248140      1.248220   1.000000   1.000000
   17        7.000782      7.000779   0.000000   0.000000
   18        7.362855      7.362839   0.000000   0.000000
   19        8.674217      8.674184   0.000000   0.000000
   20        9.867637      9.867604   0.000000   0.000000
   21        9.941283      9.941265   0.000000   0.000000
   22       10.750208     10.750445   0.000000   0.000000
   23       11.776457     11.776792   0.000000   0.000000
   24       12.103205     12.096320   0.000000   0.000000
 
 -0.3750000E+00  0.1250000E+00 -0.1223104E-16  0.3472222E-02
    1      -19.774547    -19.774448   1.000000   1.000000
    2      -18.005164    -18.005002   1.000000   1.000000
    3      -14.485165    -14.485173   1.000000   1.000000
    4      -13.755458    -13.755449   1.000000   1.000000
    5       -9.996439     -9.996461   1.000000   1.000000
    6       -7.043230     -7.043224   1.000000   1.000000
    7       -6.064959     -6.064988   1.000000   1.000000
    8       -5.506462     -5.506482   1.000000   1.000000
    9       -2.734357     -2.734221   1.000000   1.000000
   10       -2.428492     -2.428369   1.000000   1.000000
   11       -1.858671     -1.858548   1.000000   1.000000
   12       -0.922176     -0.921993   1.000000   1.000000
   13       -0.108064     -0.108022   1.000000   1.000000
   14        0.065295      0.065344   1.000000   1.000000
   15        0.898280      0.898318   1.000000   1.000000
   16        1.316950      1.317032   1.000000   1.000000
   17        6.764485      6.764482   0.000000   0.000000
   18        7.236440      7.236413   0.000000   0.000000
   19        8.663705      8.663714   0.000000   0.000000
   20        9.403163      9.403201   0.000000   0.000000
   21       10.152208     10.152117   0.000000   0.000000
   22       10.998859     10.998748   0.000000   0.000000
   23       11.716273     11.715962   0.000000   0.000000
   24       12.166897     12.168656   0.000000   0.000000
 
 -0.2500000E+00  0.1250000E+00 -0.5544134E-18  0.3472222E-02
    1      -19.836195    -19.836100   1.000000   1.000000
    2      -17.989035    -17.988872   1.000000   1.000000
    3      -14.239142    -14.239128   1.000000   1.000000
    4      -13.588332    -13.588340   1.000000   1.000000
    5      -10.650934    -10.650959   1.000000   1.000000
    6       -7.012366     -7.012354   1.000000   1.000000
    7       -5.972122     -5.972160   1.000000   1.000000
    8       -5.595323     -5.595341   1.000000   1.000000
    9       -2.819861     -2.819728   1.000000   1.000000
   10       -2.160814     -2.160687   1.000000   1.000000
   11       -1.618711     -1.618589   1.000000   1.000000
   12       -1.054058     -1.053880   1.000000   1.000000
   13       -0.006733     -0.006693   1.000000   1.000000
   14        0.123656      0.123702   1.000000   1.000000
   15        0.852279      0.852327   1.000000   1.000000
   16        1.454970      1.455055   1.000000   1.000000
   17        6.702019      6.702033   0.000000   0.000000
   18        7.004419      7.004380   0.000000   0.000000
   19        8.212057      8.212096   0.000000   0.000000
   20        9.468433      9.468416   0.000000   0.000000
   21       10.150071     10.150126   0.000000   0.000000
   22       10.820813     10.820815   0.000000   0.000000
   23       12.162784     12.163259   0.000000   0.000000
   24       12.534000     12.525743   0.000000   0.000000
 
 -0.1250000E+00  0.1250000E+00  0.1761475E-17  0.3472222E-02
    1      -19.879833    -19.879740   1.000000   1.000000
    2      -17.978218    -17.978054   1.000000   1.000000
    3      -14.219220    -14.219195   1.000000   1.000000
    4      -13.109596    -13.109608   1.000000   1.000000
    5      -11.302647    -11.302676   1.000000   1.000000
    6       -7.007866     -7.007852   1.000000   1.000000
    7       -5.917038     -5.917077   1.000000   1.000000
    8       -5.659235     -5.659257   1.000000   1.000000
    9       -2.859338     -2.859202   1.000000   1.000000
   10       -2.090592     -2.090461   1.000000   1.000000
   11       -1.255679     -1.255550   1.000000   1.000000
   12       -1.129357     -1.129181   1.000000   1.000000
   13       -0.013572     -0.013541   1.000000   1.000000
   14        0.153076      0.153112   1.000000   1.000000
   15        0.819512      0.819565   1.000000   1.000000
   16        1.520412      1.520503   1.000000   1.000000
   17        6.530355      6.530376   0.000000   0.000000
   18        7.053607      7.053581   0.000000   0.000000
   19        7.993147      7.993169   0.000000   0.000000
   20        9.536540      9.536521   0.000000   0.000000
   21        9.851609      9.851742   0.000000   0.000000
   22       10.997986     10.997908   0.000000   0.000000
   23       12.300678     12.323714   0.000000   0.000000
   24       13.047987     13.074110   0.000000   0.000000
 
 -0.1223104E-16  0.2500000E+00  0.1223104E-16  0.3472222E-02
    1      -19.697035    -19.696937   1.000000   1.000000
    2      -18.238538    -18.238386   1.000000   1.000000
    3      -14.544592    -14.544572   1.000000   1.000000
    4      -12.821159    -12.821167   1.000000   1.000000
    5      -10.985186    -10.985208   1.000000   1.000000
    6       -7.121487     -7.121471   1.000000   1.000000
    7       -5.914987     -5.915009   1.000000   1.000000
    8       -5.535224     -5.535259   1.000000   1.000000
    9       -2.913454     -2.913327   1.000000   1.000000
   10       -2.163087     -2.162960   1.000000   1.000000
   11       -1.355742     -1.355583   1.000000   1.000000
   12       -1.248567     -1.248418   1.000000   1.000000
   13       -0.131372     -0.131321   1.000000   1.000000
   14        0.164122      0.164149   1.000000   1.000000
   15        0.634109      0.634174   1.000000   1.000000
   16        1.537072      1.537149   1.000000   1.000000
   17        6.948068      6.948067   0.000000   0.000000
   18        7.481201      7.481182   0.000000   0.000000
   19        8.373650      8.373650   0.000000   0.000000
   20        9.369476      9.369460   0.000000   0.000000
   21        9.837770      9.837864   0.000000   0.000000
   22       10.903943     10.903869   0.000000   0.000000
   23       11.997388     11.996752   0.000000   0.000000
   24       12.621887     12.624388   0.000000   0.000000
 
  0.1250000E+00  0.2500000E+00  0.2666324E-16  0.3472222E-02
    1      -19.646693    -19.646593   1.000000   1.000000
    2      -18.263054    -18.262905   1.000000   1.000000
    3      -14.696424    -14.696410   1.000000   1.000000
    4      -13.005980    -13.005987   1.000000   1.000000
    5      -10.487465    -10.487483   1.000000   1.000000
    6       -7.178228     -7.178214   1.000000   1.000000
    7       -5.919304     -5.919318   1.000000   1.000000
    8       -5.509372     -5.509412   1.000000   1.000000
    9       -2.856304     -2.856176   1.000000   1.000000
   10       -2.301169     -2.301048   1.000000   1.000000
   11       -1.537859     -1.537719   1.000000   1.000000
   12       -1.235881     -1.235718   1.000000   1.000000
   13       -0.167675     -0.167606   1.000000   1.000000
   14        0.167415      0.167445   1.000000   1.000000
   15        0.549879      0.549936   1.000000   1.000000
   16        1.574139      1.574207   1.000000   1.000000
   17        7.046813      7.046816   0.000000   0.000000
   18        7.600362      7.600330   0.000000   0.000000
   19        8.588495      8.588509   0.000000   0.000000
   20        9.409051      9.408984   0.000000   0.000000
   21        9.913837      9.913932   0.000000   0.000000
   22       10.638820     10.638824   0.000000   0.000000
   23       12.019270     12.019456   0.000000   0.000000
   24       12.590053     12.578028   0.000000   0.000000
 
  0.2500000E+00  0.2500000E+00  0.5221766E-16  0.3472222E-02
    1      -19.588112    -19.588008   1.000000   1.000000
    2      -18.289861    -18.289714   1.000000   1.000000
    3      -14.783544    -14.783538   1.000000   1.000000
    4      -13.307900    -13.307902   1.000000   1.000000
    5       -9.824229     -9.824246   1.000000   1.000000
    6       -7.371269     -7.371262   1.000000   1.000000
    7       -5.908368     -5.908378   1.000000   1.000000
    8       -5.433837     -5.433873   1.000000   1.000000
    9       -2.853052     -2.852928   1.000000   1.000000
   10       -2.446416     -2.446292   1.000000   1.000000
   11       -1.795028     -1.794898   1.000000   1.000000
   12       -1.066664     -1.066487   1.000000   1.000000
   13       -0.132194     -0.132115   1.000000   1.000000
   14        0.030459      0.030491   1.000000   1.000000
   15        0.531228      0.531274   1.000000   1.000000
   16        1.569002      1.569061   1.000000   1.000000
   17        7.120194      7.120193   0.000000   0.000000
   18        7.697560      7.697526   0.000000   0.000000
   19        8.657411      8.657406   0.000000   0.000000
   20        9.521225      9.521136   0.000000   0.000000
   21        9.848349      9.848414   0.000000   0.000000
   22       10.936047     10.936114   0.000000   0.000000
   23       11.845342     11.845418   0.000000   0.000000
   24       12.513837     12.512740   0.000000   0.000000
 
  0.3750000E+00  0.2500000E+00  0.5277207E-16  0.3472222E-02
    1      -19.557551    -19.557445   1.000000   1.000000
    2      -18.301891    -18.301745   1.000000   1.000000
    3      -14.745633    -14.745634   1.000000   1.000000
    4      -13.580347    -13.580342   1.000000   1.000000
    5       -9.329771     -9.329787   1.000000   1.000000
    6       -7.618248     -7.618249   1.000000   1.000000
    7       -5.877574     -5.877585   1.000000   1.000000
    8       -5.362101     -5.362130   1.000000   1.000000
    9       -2.860845     -2.860729   1.000000   1.000000
   10       -2.549829     -2.549698   1.000000   1.000000
   11       -1.954895     -1.954768   1.000000   1.000000
   12       -0.904322     -0.904120   1.000000   1.000000
   13       -0.220111     -0.220077   1.000000   1.000000
   14        0.021049      0.021109   1.000000   1.000000
   15        0.683007      0.683055   1.000000   1.000000
   16        1.440827      1.440881   1.000000   1.000000
   17        7.221867      7.221857   0.000000   0.000000
   18        7.515787      7.515765   0.000000   0.000000
   19        8.624661      8.624631   0.000000   0.000000
   20        9.546120      9.546032   0.000000   0.000000
   21       10.265549     10.265652   0.000000   0.000000
   22       11.066120     11.066148   0.000000   0.000000
   23       11.676837     11.676933   0.000000   0.000000
   24       12.325872     12.314965   0.000000   0.000000
 
  0.5000000E+00  0.2500000E+00  0.5332648E-16  0.3472222E-02
    1      -19.576026    -19.575921   1.000000   1.000000
    2      -18.289965    -18.289817   1.000000   1.000000
    3      -14.544202    -14.544207   1.000000   1.000000
    4      -13.794163    -13.794153   1.000000   1.000000
    5       -9.357434     -9.357450   1.000000   1.000000
    6       -7.632791     -7.632795   1.000000   1.000000
    7       -5.842296     -5.842313   1.000000   1.000000
    8       -5.343661     -5.343684   1.000000   1.000000
    9       -2.769751     -2.769636   1.000000   1.000000
   10       -2.639186     -2.639059   1.000000   1.000000
   11       -1.977967     -1.977837   1.000000   1.000000
   12       -0.973539     -0.973353   1.000000   1.000000
   13       -0.161994     -0.161952   1.000000   1.000000
   14        0.108557      0.108627   1.000000   1.000000
   15        0.930014      0.930065   1.000000   1.000000
   16        1.257087      1.257141   1.000000   1.000000
   17        6.932609      6.932597   0.000000   0.000000
   18        7.544108      7.544074   0.000000   0.000000
   19        8.575010      8.574992   0.000000   0.000000
   20        9.830216      9.830151   0.000000   0.000000
   21       10.341501     10.341505   0.000000   0.000000
   22       10.971635     10.971742   0.000000   0.000000
   23       11.447121     11.447130   0.000000   0.000000
   24       12.066380     12.057703   0.000000   0.000000
 
 -0.3750000E+00  0.2500000E+00 -0.4737734E-17  0.3472222E-02
    1      -19.630310    -19.630209   1.000000   1.000000
    2      -18.262969    -18.262819   1.000000   1.000000
    3      -14.236034    -14.236032   1.000000   1.000000
    4      -13.899581    -13.899575   1.000000   1.000000
    5       -9.850854     -9.850872   1.000000   1.000000
    6       -7.439475     -7.439475   1.000000   1.000000
    7       -5.819466     -5.819491   1.000000   1.000000
    8       -5.393096     -5.393115   1.000000   1.000000
    9       -2.884107     -2.883987   1.000000   1.000000
   10       -2.349219     -2.349096   1.000000   1.000000
   11       -1.899826     -1.899696   1.000000   1.000000
   12       -1.119081     -1.118906   1.000000   1.000000
   13       -0.107461     -0.107423   1.000000   1.000000
   14        0.221076      0.221155   1.000000   1.000000
   15        0.951414      0.951462   1.000000   1.000000
   16        1.322639      1.322709   1.000000   1.000000
   17        6.740093      6.740088   0.000000   0.000000
   18        7.370463      7.370414   0.000000   0.000000
   19        8.707824      8.707831   0.000000   0.000000
   20        9.586912      9.586925   0.000000   0.000000
   21       10.328162     10.328097   0.000000   0.000000
   22       10.983245     10.983509   0.000000   0.000000
   23       11.357625     11.357491   0.000000   0.000000
   24       11.936141     11.935748   0.000000   0.000000
 
 -0.2500000E+00  0.2500000E+00  0.3522949E-17  0.3472222E-02
    1      -19.685919    -19.685821   1.000000   1.000000
    2      -18.238344    -18.238193   1.000000   1.000000
    3      -14.230497    -14.230476   1.000000   1.000000
    4      -13.553279    -13.553288   1.000000   1.000000
    5      -10.459364    -10.459385   1.000000   1.000000
    6       -7.270823     -7.270816   1.000000   1.000000
    7       -5.829420     -5.829451   1.000000   1.000000
    8       -5.471013     -5.471033   1.000000   1.000000
    9       -2.962873     -2.962751   1.000000   1.000000
   10       -2.109692     -2.109561   1.000000   1.000000
   11       -1.654256     -1.654133   1.000000   1.000000
   12       -1.218858     -1.218681   1.000000   1.000000
   13       -0.058111     -0.058080   1.000000   1.000000
   14        0.202769      0.202836   1.000000   1.000000
   15        0.836245      0.836302   1.000000   1.000000
   16        1.467737      1.467815   1.000000   1.000000
   17        6.825174      6.825181   0.000000   0.000000
   18        7.172148      7.172095   0.000000   0.000000
   19        8.493555      8.493586   0.000000   0.000000
   20        9.510541      9.510508   0.000000   0.000000
   21       10.082992     10.083078   0.000000   0.000000
   22       11.004627     11.004571   0.000000   0.000000
   23       11.511301     11.511209   0.000000   0.000000
   24       12.438177     12.419782   0.000000   0.000000
 
 -0.1250000E+00  0.2500000E+00  0.6856557E-16  0.3472222E-02
    1      -19.712517    -19.712420   1.000000   1.000000
    2      -18.228812    -18.228660   1.000000   1.000000
    3      -14.378517    -14.378495   1.000000   1.000000
    4      -13.048335    -13.048343   1.000000   1.000000
    5      -10.943008    -10.943031   1.000000   1.000000
    6       -7.164266     -7.164252   1.000000   1.000000
    7       -5.879350     -5.879380   1.000000   1.000000
    8       -5.518450     -5.518477   1.000000   1.000000
    9       -2.963566     -2.963442   1.000000   1.000000
   10       -2.090498     -2.090368   1.000000   1.000000
   11       -1.389386     -1.389249   1.000000   1.000000