       N       E                     dE             d eps       ncg     rms          rms(c)
DAV:   1     0.175732296160E+03    0.17573E+03   -0.16267E+04 27848   0.120E+03
DAV:   2    -0.380982565022E+02   -0.21383E+03   -0.20548E+03 38416   0.280E+02
DAV:   3    -0.495345878948E+02   -0.11436E+02   -0.11373E+02 37040   0.681E+01
DAV:   4    -0.496678316173E+02   -0.13324E+00   -0.13317E+00 33416   0.829E+00
DAV:   5    -0.496701804818E+02   -0.23489E-02   -0.23481E-02 36976   0.104E+00    0.260E+01
RMM:   6    -0.438542643333E+02    0.58159E+01   -0.17026E+01 28187   0.218E+01    0.104E+01
RMM:   7    -0.440526331894E+02   -0.19837E+00   -0.32234E+00 32780   0.107E+01    0.481E+00
RMM:   8    -0.440449267185E+02    0.77065E-02   -0.32929E-01 32212   0.387E+00    0.283E+00
RMM:   9    -0.440440652292E+02    0.86149E-03   -0.85732E-02 32524   0.206E+00    0.692E-01
RMM:  10    -0.440448248723E+02   -0.75964E-03   -0.22455E-02 35821   0.872E-01    0.220E-01
RMM:  11    -0.440455657433E+02   -0.74087E-03   -0.10832E-02 35007   0.575E-01    0.186E-01
RMM:  12    -0.440455591188E+02    0.66245E-05   -0.13088E-03 35369   0.231E-01    0.104E-01
RMM:  13    -0.440455386431E+02    0.20476E-04   -0.72256E-04 33690   0.177E-01    0.336E-02
RMM:  14    -0.440455426313E+02   -0.39881E-05   -0.77885E-05 35387   0.651E-02
   1 F= -.44045543E+02 E0= -.44045543E+02  d E =0.000000E+00  mag=    -0.0002
