 running on   12 total cores
 distrk:  each k-point on   12 cores,    1 groups
 distr:  one band on    6 cores,    2 groups
 using from now: INCAR     
 vasp.6.1.2 22Jul20 (build Mar 20 2021 11:25:07) complex                        
  
 POSCAR found type information on POSCAR LiN 
 POSCAR found :  2 types and       4 ions
 scaLAPACK will be used
 -----------------------------------------------------------------------------
|                                                                             |
|               ----> ADVICE to this user running VASP <----                  |
|                                                                             |
|     You have a (more or less) 'small supercell' and for smaller cells       |
|     it is recommended to use the reciprocal-space projection scheme!        |
|     The real-space optimization is not efficient for small cells and it     |
|     is also less accurate ...                                               |
|     Therefore, set LREAL=.FALSE. in the INCAR file.                         |
|                                                                             |
 -----------------------------------------------------------------------------

 LDA part: xc-table for Pade appr. of Perdew
 generate k-points for:   11   11    7
 POSCAR, INCAR and KPOINTS ok, starting setup
 FFT: planning ...
 WAVECAR not read
 entering main loop
       N       E                     dE             d eps       ncg     rms          rms(c)
DAV:   1     0.881474043789E+02    0.88147E+02   -0.83713E+03 13112   0.118E+03
DAV:   2    -0.225313308150E+02   -0.11068E+03   -0.10702E+03 17168   0.267E+02
DAV:   3    -0.282785454800E+02   -0.57472E+01   -0.57233E+01 18060   0.666E+01
DAV:   4    -0.285242700565E+02   -0.24572E+00   -0.24559E+00 20468   0.114E+01
DAV:   5    -0.285270845088E+02   -0.28145E-02   -0.28142E-02 17934   0.133E+00    0.126E+01
RMM:   6    -0.274723407387E+02    0.10547E+01   -0.38233E+00 14187   0.134E+01    0.577E+00
RMM:   7    -0.274307148382E+02    0.41626E-01   -0.62185E-01 16748   0.747E+00    0.327E+00
RMM:   8    -0.274140326916E+02    0.16682E-01   -0.28597E-01 18529   0.420E+00    0.161E+00
RMM:   9    -0.274278203405E+02   -0.13788E-01   -0.71716E-02 20043   0.229E+00    0.636E-01
RMM:  10    -0.274287470235E+02   -0.92668E-03   -0.23554E-02 20946   0.121E+00    0.152E-01
RMM:  11    -0.274300395062E+02   -0.12925E-02   -0.96848E-03 22169   0.688E-01    0.893E-02
RMM:  12    -0.274307098624E+02   -0.67036E-03   -0.46104E-03 23638   0.433E-01    0.548E-02
RMM:  13    -0.274309393184E+02   -0.22946E-03   -0.19365E-03 23240   0.276E-01    0.197E-02
RMM:  14    -0.274310577605E+02   -0.11844E-03   -0.90826E-04 22791   0.195E-01    0.141E-02
WARNING in EDDRMM: call to ZHEGV failed, returncode =   6  3      4
RMM:  15    -0.274311077707E+02   -0.50010E-04   -0.42426E-04 21203   0.126E-01    0.854E-03
RMM:  16    -0.274311303320E+02   -0.22561E-04   -0.19242E-04 19343   0.880E-02    0.242E-03
RMM:  17    -0.274311411002E+02   -0.10768E-04   -0.88507E-05 17065   0.656E-02    0.206E-03
RMM:  18    -0.274311450049E+02   -0.39047E-05   -0.38774E-05 15188   0.529E-02
   1 F= -.27431145E+02 E0= -.27431145E+02  d E =0.000000E+00  mag=     0.0000
