 running on   12 total cores
 distrk:  each k-point on   12 cores,    1 groups
 distr:  one band on    6 cores,    2 groups
 using from now: INCAR     
 vasp.6.1.2 22Jul20 (build Mar 20 2021 11:25:07) complex                        
  
 POSCAR found type information on POSCAR LiP 
 POSCAR found :  2 types and      16 ions
 scaLAPACK will be used
 LDA part: xc-table for Pade appr. of Perdew
 generate k-points for:    6    6    4
 POSCAR, INCAR and KPOINTS ok, starting setup
 FFT: planning ...
 WAVECAR not read
 entering main loop
       N       E                     dE             d eps       ncg     rms          rms(c)
DAV:   1     0.396296635105E+03    0.39630E+03   -0.25748E+04 10304   0.135E+03
DAV:   2    -0.379112484024E+01   -0.40009E+03   -0.36850E+03 11740   0.322E+02
DAV:   3    -0.557113525604E+02   -0.51920E+02   -0.51234E+02 14796   0.902E+01
DAV:   4    -0.631372785943E+02   -0.74259E+01   -0.73589E+01 18744   0.339E+01
DAV:   5    -0.639800411137E+02   -0.84276E+00   -0.84248E+00 14954   0.781E+00    0.205E+01
DAV:   6    -0.653220682539E+02   -0.13420E+01   -0.28215E+00 13838   0.633E+00    0.108E+01
DAV:   7    -0.665795161653E+02   -0.12574E+01   -0.71625E-01 12846   0.403E+00    0.553E+00
DAV:   8    -0.668172249844E+02   -0.23771E+00   -0.62759E-01 13218   0.298E+00    0.121E+00
DAV:   9    -0.668454478267E+02   -0.28223E-01   -0.82399E-02 15488   0.112E+00    0.470E-01
DAV:  10    -0.668491018454E+02   -0.36540E-02   -0.68632E-03 13120   0.396E-01    0.196E-01
DAV:  11    -0.668505177840E+02   -0.14159E-02   -0.18958E-03 12848   0.213E-01    0.942E-02
DAV:  12    -0.668508116479E+02   -0.29386E-03   -0.64514E-04 12976   0.105E-01    0.408E-02
DAV:  13    -0.668508607924E+02   -0.49145E-04   -0.96457E-05 11768   0.528E-02    0.208E-02
DAV:  14    -0.668508753408E+02   -0.14548E-04   -0.33811E-05 10368   0.299E-02    0.555E-03
DAV:  15    -0.668508769886E+02   -0.16478E-05   -0.46947E-06  7160   0.137E-02
   1 F= -.66850877E+02 E0= -.66850877E+02  d E =0.000000E+00  mag=    -0.0003
