 running on    8 total cores
 distrk:  each k-point on    8 cores,    1 groups
 distr:  one band on    1 cores,    8 groups
 using from now: INCAR     
 vasp.6.1.2 22Jul20 (build Mar 20 2021 11:25:07) complex                        
  
 POSCAR found type information on POSCAR LiP O 
 POSCAR found :  3 types and      16 ions
 scaLAPACK will be used
 -----------------------------------------------------------------------------
|                                                                             |
|           W    W    AA    RRRRR   N    N  II  N    N   GGGG   !!!           |
|           W    W   A  A   R    R  NN   N  II  NN   N  G    G  !!!           |
|           W    W  A    A  R    R  N N  N  II  N N  N  G       !!!           |
|           W WW W  AAAAAA  RRRRR   N  N N  II  N  N N  G  GGG   !            |
|           WW  WW  A    A  R   R   N   NN  II  N   NN  G    G                |
|           W    W  A    A  R    R  N    N  II  N    N   GGGG   !!!           |
|                                                                             |
|     The value NCORE = 6 specified in the INCAR file was overwritten,        |
|     because it was not compatible with the 8 processes available:           |
|     NCORE = 1                                                               |
|     was used instead, please check that this makes sense for your           |
|     machine.                                                                |
|                                                                             |
 -----------------------------------------------------------------------------

 -----------------------------------------------------------------------------
|                                                                             |
|           W    W    AA    RRRRR   N    N  II  N    N   GGGG   !!!           |
|           W    W   A  A   R    R  NN   N  II  NN   N  G    G  !!!           |
|           W    W  A    A  R    R  N N  N  II  N N  N  G       !!!           |
|           W WW W  AAAAAA  RRRRR   N  N N  II  N  N N  G  GGG   !            |
|           WW  WW  A    A  R   R   N   NN  II  N   NN  G    G                |
|           W    W  A    A  R    R  N    N  II  N    N   GGGG   !!!           |
|                                                                             |
|     For optimal performance we recommend to set                             |
|       NCORE = 4 - approx SQRT(number of cores).                             |
|     NCORE specifies how many cores store one orbital (NPAR=cpu/NCORE).      |
|     This setting can greatly improve the performance of VASP for DFT.       |
|     The default, NCORE=1 might be grossly inefficient on modern             |
|     multi-core architectures or massively parallel machines. Do your        |
|     own testing!!!!                                                         |
|     Unfortunately you need to use the default for GW and RPA                |
|     calculations (for HF NCORE is supported but not extensively tested      |
|     yet).                                                                   |
|                                                                             |
 -----------------------------------------------------------------------------

 LDA part: xc-table for Pade appr. of Perdew
 generate k-points for:    7    6    5
 POSCAR, INCAR and KPOINTS ok, starting setup
 FFT: planning ...
 WAVECAR not read
 entering main loop
       N       E                     dE             d eps       ncg     rms          rms(c)
DAV:   1     0.603609480261E+03    0.60361E+03   -0.36448E+04 14792   0.142E+03
DAV:   2    -0.451258623584E+02   -0.64874E+03   -0.61350E+03 16984   0.373E+02
DAV:   3    -0.103139640617E+03   -0.58014E+02   -0.57681E+02 20528   0.105E+02
DAV:   4    -0.108476558617E+03   -0.53369E+01   -0.53037E+01 25056   0.263E+01
DAV:   5    -0.108963374535E+03   -0.48682E+00   -0.48666E+00 20800   0.552E+00    0.372E+01
RMM:   6    -0.991136755780E+02    0.98497E+01   -0.38183E+01 16136   0.219E+01    0.148E+01
RMM:   7    -0.100163642966E+03   -0.10500E+01   -0.38409E+00 21271   0.752E+00    0.792E+00
RMM:   8    -0.100364970388E+03   -0.20133E+00   -0.87187E-01 23714   0.391E+00    0.397E+00
RMM:   9    -0.100438086916E+03   -0.73117E-01   -0.31697E-01 24002   0.281E+00    0.777E-01
RMM:  10    -0.100466288885E+03   -0.28202E-01   -0.22143E-01 27566   0.161E+00    0.361E-01
RMM:  11    -0.100480209459E+03   -0.13921E-01   -0.97003E-02 28233   0.988E-01    0.281E-01
RMM:  12    -0.100486249104E+03   -0.60396E-02   -0.38985E-02 28649   0.610E-01    0.166E-01
RMM:  13    -0.100488396375E+03   -0.21473E-02   -0.14906E-02 27945   0.410E-01    0.733E-02
RMM:  14    -0.100489319123E+03   -0.92275E-03   -0.75732E-03 28469   0.285E-01    0.309E-02
RMM:  15    -0.100489683385E+03   -0.36426E-03   -0.33008E-03 27887   0.178E-01    0.263E-02
RMM:  16    -0.100489841238E+03   -0.15785E-03   -0.14728E-03 27487   0.117E-01    0.161E-02
RMM:  17    -0.100489909597E+03   -0.68359E-04   -0.59706E-04 26873   0.804E-02    0.111E-02
RMM:  18    -0.100489939595E+03   -0.29997E-04   -0.28886E-04 26175   0.533E-02    0.103E-02
RMM:  19    -0.100489950812E+03   -0.11217E-04   -0.96100E-05 22301   0.366E-02    0.126E-02
RMM:  20    -0.100489955555E+03   -0.47431E-05   -0.37273E-05 20176   0.296E-02
   1 F= -.10048996E+03 E0= -.10048996E+03  d E =0.000000E+00  mag=     0.0000
