   16   16    1    2
  0.1243156E+02  0.4993425E-09  0.5043864E-09  0.9240513E-09  0.5000000E-15
  1.000000000000000E-004
  CAR 
 unknown system                          
     80     99     54
 
  0.0000000E+00  0.0000000E+00  0.0000000E+00  0.5102041E-02
    1      -16.445910    -16.445907   1.000000   1.000000
    2      -15.738239    -15.738239   1.000000   1.000000
    3      -14.596330    -14.596323   1.000000   1.000000
    4      -12.472046    -12.472045   1.000000   1.000000
    5      -12.271324    -12.271331   1.000000   1.000000
    6      -12.059030    -12.059045   1.000000   1.000000
    7      -12.037722    -12.037737   1.000000   1.000000
    8      -11.847899    -11.847902   1.000000   1.000000
    9      -11.794612    -11.794621   1.000000   1.000000
   10      -11.334103    -11.334121   1.000000   1.000000
   11       -8.685805     -8.685789   1.000000   1.000000
   12       -8.531814     -8.531792   1.000000   1.000000
   13       -8.458495     -8.458479   1.000000   1.000000
   14       -5.726740     -5.726727   1.000000   1.000000
   15       -5.607633     -5.607624   1.000000   1.000000
   16       -4.867463     -4.867457   1.000000   1.000000
   17       -4.306483     -4.306479   1.000000   1.000000
   18       -3.714622     -3.714617   1.000000   1.000000
   19       -3.177098     -3.177089   1.000000   1.000000
   20       -3.173357     -3.173349   1.000000   1.000000
   21       -2.344770     -2.344766   1.000000   1.000000
   22       -2.314599     -2.314585   1.000000   1.000000
   23       -2.291780     -2.291770   1.000000   1.000000
   24       -1.775388     -1.775389   1.000000   1.000000
   25        0.111031      0.111029   1.000000   1.000000
   26        0.584988      0.584972   1.000000   1.000000
   27        0.681354      0.681332   1.000000   1.000000
   28        0.720923      0.720911   1.000000   1.000000
   29        0.767036      0.767015   1.000000   1.000000
   30        1.346789      1.346766   1.000000   1.000000
   31        1.347973      1.347963   1.000000   1.000000
   32        1.506267      1.506254   1.000000   1.000000
   33        1.563518      1.563513   1.000000   1.000000
   34        2.109159      2.109153   1.000000   1.000000
   35        2.261641      2.261630   1.000000   1.000000
   36        2.746910      2.746887   1.000000   1.000000
   37        2.881722      2.881703   1.000000   1.000000
   38        3.225304      3.225288   1.000000   1.000000
   39        3.677916      3.677888   1.000000   1.000000
   40        4.067723      4.067700   1.000000   1.000000
   41        8.418813      8.418838   0.000000   0.000000
   42        8.621328      8.621372   0.000000   0.000000
   43        9.229293      9.229292   0.000000   0.000000
   44        9.334315      9.334328   0.000000   0.000000
   45        9.517150      9.517173   0.000000   0.000000
   46        9.542520      9.542598   0.000000   0.000000
   47       10.012108     10.012108   0.000000   0.000000
   48       10.431535     10.431574   0.000000   0.000000
   49       10.516423     10.516461   0.000000   0.000000
   50       10.653254     10.653223   0.000000   0.000000
   51       10.771494     10.771535   0.000000   0.000000
   52       11.655618     11.655652   0.000000   0.000000
   53       11.904023     11.904071   0.000000   0.000000
   54       12.172216     12.174416   0.000000   0.000000
 
  0.1428571E+00 -0.1141440E-16 -0.1144461E-16  0.1020408E-01
    1      -16.383508    -16.383505   1.000000   1.000000
    2      -15.727333    -15.727334   1.000000   1.000000
    3      -14.544049    -14.544042   1.000000   1.000000
    4      -12.879855    -12.879853   1.000000   1.000000
    5      -12.541903    -12.541908   1.000000   1.000000
    6      -12.107030    -12.107041   1.000000   1.000000
    7      -11.981531    -11.981544   1.000000   1.000000
    8      -11.746585    -11.746596   1.000000   1.000000
    9      -11.471831    -11.471840   1.000000   1.000000
   10      -11.318183    -11.318202   1.000000   1.000000
   11       -9.195475     -9.195453   1.000000   1.000000
   12       -8.282598     -8.282583   1.000000   1.000000
   13       -7.813045     -7.813029   1.000000   1.000000
   14       -6.007506     -6.007493   1.000000   1.000000
   15       -5.418267     -5.418257   1.000000   1.000000
   16       -4.849763     -4.849757   1.000000   1.000000
   17       -4.310118     -4.310114   1.000000   1.000000
   18       -3.851186     -3.851181   1.000000   1.000000
   19       -3.208649     -3.208640   1.000000   1.000000
   20       -3.001518     -3.001511   1.000000   1.000000
   21       -2.535733     -2.535722   1.000000   1.000000
   22       -2.311800     -2.311799   1.000000   1.000000
   23       -2.154134     -2.154119   1.000000   1.000000
   24       -1.777953     -1.777955   1.000000   1.000000
   25       -0.017344     -0.017348   1.000000   1.000000
   26        0.327715      0.327699   1.000000   1.000000
   27        0.589311      0.589292   1.000000   1.000000
   28        0.840507      0.840490   1.000000   1.000000
   29        1.044112      1.044093   1.000000   1.000000
   30        1.287409      1.287388   1.000000   1.000000
   31        1.380082      1.380073   1.000000   1.000000
   32        1.531799      1.531791   1.000000   1.000000
   33        1.595220      1.595210   1.000000   1.000000
   34        2.052753      2.052747   1.000000   1.000000
   35        2.383170      2.383158   1.000000   1.000000
   36        2.679531      2.679510   1.000000   1.000000
   37        2.822130      2.822111   1.000000   1.000000
   38        3.157186      3.157172   1.000000   1.000000
   39        3.619448      3.619420   1.000000   1.000000
   40        3.931763      3.931743   1.000000   1.000000
   41        8.490834      8.490870   0.000000   0.000000
   42        8.664060      8.664093   0.000000   0.000000
   43        8.897439      8.897472   0.000000   0.000000
   44        9.427410      9.427434   0.000000   0.000000
   45        9.538307      9.538357   0.000000   0.000000
   46        9.755110      9.755124   0.000000   0.000000
   47       10.056092     10.056123   0.000000   0.000000
   48       10.093461     10.093450   0.000000   0.000000
   49       10.471253     10.471281   0.000000   0.000000
   50       10.936976     10.936979   0.000000   0.000000
   51       11.197836     11.197856   0.000000   0.000000
   52       11.341541     11.341554   0.000000   0.000000
   53       11.589566     11.589568   0.000000   0.000000
   54       12.241409     12.241304   0.000000   0.000000
 
  0.2857143E+00 -0.3474729E-17 -0.1100664E-15  0.1020408E-01
    1      -16.211333    -16.211331   1.000000   1.000000
    2      -15.719543    -15.719544   1.000000   1.000000
    3      -14.427904    -14.427898   1.000000   1.000000
    4      -13.374977    -13.374973   1.000000   1.000000
    5      -12.939710    -12.939712   1.000000   1.000000
    6      -12.254290    -12.254298   1.000000   1.000000
    7      -11.959165    -11.959177   1.000000   1.000000
    8      -11.635439    -11.635454   1.000000   1.000000
    9      -11.302096    -11.302115   1.000000   1.000000
   10      -11.218737    -11.218751   1.000000   1.000000
   11       -9.297994     -9.297969   1.000000   1.000000
   12       -7.871788     -7.871773   1.000000   1.000000
   13       -7.214874     -7.214859   1.000000   1.000000
   14       -6.210382     -6.210370   1.000000   1.000000
   15       -5.257515     -5.257506   1.000000   1.000000
   16       -4.917774     -4.917768   1.000000   1.000000
   17       -4.313351     -4.313345   1.000000   1.000000
   18       -4.026354     -4.026348   1.000000   1.000000
   19       -3.206086     -3.206077   1.000000   1.000000
   20       -2.875714     -2.875708   1.000000   1.000000
   21       -2.562899     -2.562888   1.000000   1.000000
   22       -2.365254     -2.365251   1.000000   1.000000
   23       -2.047518     -2.047502   1.000000   1.000000
   24       -1.841008     -1.841011   1.000000   1.000000
   25       -0.140373     -0.140374   1.000000   1.000000
   26        0.010457      0.010439   1.000000   1.000000
   27        0.446455      0.446431   1.000000   1.000000
   28        0.739617      0.739605   1.000000   1.000000
   29        1.148340      1.148322   1.000000   1.000000
   30        1.364788      1.364771   1.000000   1.000000
   31        1.430319      1.430308   1.000000   1.000000
   32        1.625398      1.625383   1.000000   1.000000
   33        1.830820      1.830812   1.000000   1.000000
   34        2.042311      2.042305   1.000000   1.000000
   35        2.390398      2.390386   1.000000   1.000000
   36        2.585047      2.585028   1.000000   1.000000
   37        2.670909      2.670889   1.000000   1.000000
   38        3.032906      3.032895   1.000000   1.000000
   39        3.493987      3.493962   1.000000   1.000000
   40        3.756310      3.756291   1.000000   1.000000
   41        8.221203      8.221256   0.000000   0.000000
   42        8.576695      8.576732   0.000000   0.000000
   43        9.062769      9.062803   0.000000   0.000000
   44        9.295594      9.295633   0.000000   0.000000
   45        9.651745      9.651773   0.000000   0.000000
   46        9.916552      9.916570   0.000000   0.000000
   47       10.079705     10.079725   0.000000   0.000000
   48       10.501801     10.501771   0.000000   0.000000
   49       10.794940     10.794976   0.000000   0.000000
   50       10.986053     10.986073   0.000000   0.000000
   51       11.225251     11.225278   0.000000   0.000000
   52       11.392019     11.391981   0.000000   0.000000
   53       11.606965     11.606996   0.000000   0.000000
   54       12.026096     12.026124   0.000000   0.000000
 
  0.4285714E+00 -0.1416285E-16 -0.2323313E-16  0.1020408E-01
    1      -15.985078    -15.985076   1.000000   1.000000
    2      -15.784409    -15.784409   1.000000   1.000000
    3      -14.360942    -14.360937   1.000000   1.000000
    4      -13.601494    -13.601492   1.000000   1.000000
    5      -13.225621    -13.225619   1.000000   1.000000
    6      -12.411067    -12.411073   1.000000   1.000000
    7      -11.953392    -11.953404   1.000000   1.000000
    8      -11.527401    -11.527418   1.000000   1.000000
    9      -11.309552    -11.309571   1.000000   1.000000
   10      -11.252077    -11.252092   1.000000   1.000000
   11       -9.038576     -9.038552   1.000000   1.000000
   12       -7.531765     -7.531751   1.000000   1.000000
   13       -7.303850     -7.303835   1.000000   1.000000
   14       -5.791059     -5.791049   1.000000   1.000000
   15       -5.290449     -5.290443   1.000000   1.000000
   16       -5.083906     -5.083897   1.000000   1.000000
   17       -4.351515     -4.351508   1.000000   1.000000
   18       -4.090361     -4.090354   1.000000   1.000000
   19       -3.078956     -3.078948   1.000000   1.000000
   20       -2.894099     -2.894091   1.000000   1.000000
   21       -2.555244     -2.555243   1.000000   1.000000
   22       -2.351267     -2.351253   1.000000   1.000000
   23       -2.011041     -2.011030   1.000000   1.000000
   24       -1.960955     -1.960954   1.000000   1.000000
   25       -0.210755     -0.210767   1.000000   1.000000
   26       -0.136549     -0.136552   1.000000   1.000000
   27        0.150785      0.150762   1.000000   1.000000
   28        0.781082      0.781062   1.000000   1.000000
   29        1.094474      1.094459   1.000000   1.000000
   30        1.404732      1.404726   1.000000   1.000000
   31        1.582882      1.582865   1.000000   1.000000
   32        1.668986      1.668963   1.000000   1.000000
   33        1.958214      1.958200   1.000000   1.000000
   34        2.106277      2.106268   1.000000   1.000000
   35        2.188351      2.188341   1.000000   1.000000
   36        2.452349      2.452336   1.000000   1.000000
   37        2.683159      2.683138   1.000000   1.000000
   38        2.967225      2.967215   1.000000   1.000000
   39        3.368501      3.368483   1.000000   1.000000
   40        3.782286      3.782261   1.000000   1.000000
   41        7.762235      7.762296   0.000000   0.000000
   42        8.571387      8.571424   0.000000   0.000000
   43        9.270024      9.270061   0.000000   0.000000
   44        9.460932      9.460956   0.000000   0.000000
   45        9.786551      9.786573   0.000000   0.000000
   46       10.119034     10.119047   0.000000   0.000000
   47       10.462410     10.462441   0.000000   0.000000
   48       10.636543     10.636596   0.000000   0.000000
   49       10.929793     10.929803   0.000000   0.000000
   50       11.090926     11.090927   0.000000   0.000000
   51       11.138223     11.138250   0.000000   0.000000
   52       11.267653     11.267668   0.000000   0.000000
   53       11.740782     11.740737   0.000000   0.000000
   54       11.764613     11.764615   0.000000   0.000000
 
 -0.1226528E-16  0.1428571E+00  0.3495182E-16  0.1020408E-01
    1      -16.387468    -16.387466   1.000000   1.000000
    2      -15.731581    -15.731582   1.000000   1.000000
    3      -14.550067    -14.550061   1.000000   1.000000
    4      -12.839367    -12.839365   1.000000   1.000000
    5      -12.508657    -12.508663   1.000000   1.000000
    6      -12.130883    -12.130894   1.000000   1.000000
    7      -12.002805    -12.002818   1.000000   1.000000
    8      -11.761358    -11.761369   1.000000   1.000000
    9      -11.456664    -11.456674   1.000000   1.000000
   10      -11.321978    -11.321996   1.000000   1.000000
   11       -9.194976     -9.194953   1.000000   1.000000
   12       -8.284994     -8.284979   1.000000   1.000000
   13       -7.836246     -7.836229   1.000000   1.000000
   14       -5.988612     -5.988600   1.000000   1.000000
   15       -5.420343     -5.420334   1.000000   1.000000
   16       -4.858790     -4.858784   1.000000   1.000000
   17       -4.308581     -4.308577   1.000000   1.000000
   18       -3.853025     -3.853020   1.000000   1.000000
   19       -3.206478     -3.206468   1.000000   1.000000
   20       -2.989862     -2.989855   1.000000   1.000000
   21       -2.532184     -2.532173   1.000000   1.000000
   22       -2.331497     -2.331495   1.000000   1.000000
   23       -2.145622     -2.145607   1.000000   1.000000
   24       -1.785840     -1.785842   1.000000   1.000000
   25       -0.034991     -0.034994   1.000000   1.000000
   26        0.335639      0.335622   1.000000   1.000000
   27        0.602650      0.602630   1.000000   1.000000
   28        0.814951      0.814938   1.000000   1.000000
   29        1.072380      1.072360   1.000000   1.000000
   30        1.267071      1.267050   1.000000   1.000000
   31        1.384781      1.384772   1.000000   1.000000
   32        1.493912      1.493901   1.000000   1.000000
   33        1.641372      1.641364   1.000000   1.000000
   34        2.056447      2.056442   1.000000   1.000000
   35        2.372085      2.372073   1.000000   1.000000
   36        2.680701      2.680681   1.000000   1.000000
   37        2.825454      2.825434   1.000000   1.000000
   38        3.158849      3.158834   1.000000   1.000000
   39        3.616914      3.616886   1.000000   1.000000
   40        3.937564      3.937543   1.000000   1.000000
   41        8.537700      8.537740   0.000000   0.000000
   42        8.613937      8.613964   0.000000   0.000000
   43        8.902151      8.902187   0.000000   0.000000
   44        9.440523      9.440551   0.000000   0.000000
   45        9.556707      9.556755   0.000000   0.000000
   46        9.761053      9.761065   0.000000   0.000000
   47       10.032828     10.032815   0.000000   0.000000
   48       10.100654     10.100689   0.000000   0.000000
   49       10.455698     10.455721   0.000000   0.000000
   50       10.992343     10.992341   0.000000   0.000000
   51       11.185712     11.185730   0.000000   0.000000
   52       11.340229     11.340240   0.000000   0.000000
   53       11.678218     11.678231   0.000000   0.000000
   54       12.247313     12.245302   0.000000   0.000000
 
  0.1428571E+00  0.1428571E+00 -0.4815034E-17  0.1020408E-01
    1      -16.328914    -16.328912   1.000000   1.000000
    2      -15.747725    -15.747725   1.000000   1.000000
    3      -14.436340    -14.436334   1.000000   1.000000
    4      -12.944404    -12.944404   1.000000   1.000000
    5      -12.604549    -12.604553   1.000000   1.000000
    6      -12.561126    -12.561129   1.000000   1.000000
    7      -11.873497    -11.873512   1.000000   1.000000
    8      -11.630434    -11.630446   1.000000   1.000000
    9      -11.531128    -11.531140   1.000000   1.000000
   10      -11.339136    -11.339154   1.000000   1.000000
   11       -8.469677     -8.469661   1.000000   1.000000
   12       -8.239275     -8.239256   1.000000   1.000000
   13       -8.180557     -8.180542   1.000000   1.000000
   14       -6.239708     -6.239695   1.000000   1.000000
   15       -5.074102     -5.074094   1.000000   1.000000
   16       -4.827515     -4.827508   1.000000   1.000000
   17       -4.260829     -4.260825   1.000000   1.000000
   18       -3.793075     -3.793069   1.000000   1.000000
   19       -3.298114     -3.298103   1.000000   1.000000
   20       -3.096017     -3.096013   1.000000   1.000000
   21       -2.476629     -2.476619   1.000000   1.000000
   22       -2.341464     -2.341448   1.000000   1.000000
   23       -2.210414     -2.210411   1.000000   1.000000
   24       -1.801581     -1.801581   1.000000   1.000000
   25       -0.105138     -0.105137   1.000000   1.000000
   26        0.291373      0.291349   1.000000   1.000000
   27        0.387985      0.387964   1.000000   1.000000
   28        0.840207      0.840196   1.000000   1.000000
   29        1.045948      1.045932   1.000000   1.000000
   30        1.340495      1.340478   1.000000   1.000000
   31        1.390692      1.390682   1.000000   1.000000
   32        1.634007      1.633993   1.000000   1.000000
   33        1.658225      1.658214   1.000000   1.000000
   34        2.096986      2.096977   1.000000   1.000000
   35        2.412720      2.412707   1.000000   1.000000
   36        2.643230      2.643210   1.000000   1.000000
   37        2.777182      2.777164   1.000000   1.000000
   38        3.106835      3.106818   1.000000   1.000000
   39        3.505726      3.505700   1.000000   1.000000
   40        3.841892      3.841873   1.000000   1.000000
   41        8.523709      8.523743   0.000000   0.000000
   42        8.794055      8.794100   0.000000   0.000000
   43        8.852420      8.852464   0.000000   0.000000
   44        9.005973      9.006004   0.000000   0.000000
   45        9.731126      9.731143   0.000000   0.000000
   46        9.779746      9.779787   0.000000   0.000000
   47       10.052940     10.052912   0.000000   0.000000
   48       10.251852     10.251868   0.000000   0.000000
   49       10.488205     10.488231   0.000000   0.000000
   50       10.784488     10.784443   0.000000   0.000000
   51       11.196017     11.196062   0.000000   0.000000
   52       11.620297     11.620307   0.000000   0.000000
   53       11.901614     11.901651   0.000000   0.000000
   54       12.079120     12.079193   0.000000   0.000000
 
  0.2857143E+00  0.1428571E+00 -0.6067009E-16  0.1020408E-01
    1      -16.156209    -16.156207   1.000000   1.000000
    2      -15.743689    -15.743689   1.000000   1.000000
    3      -14.279134    -14.279129   1.000000   1.000000
    4      -13.387328    -13.387327   1.000000   1.000000
    5      -13.056965    -13.056965   1.000000   1.000000
    6      -12.635474    -12.635476   1.000000   1.000000
    7      -11.837272    -11.837286   1.000000   1.000000
    8      -11.586547    -11.586560   1.000000   1.000000
    9      -11.401291    -11.401306   1.000000   1.000000
   10      -11.313610    -11.313627   1.000000   1.000000
   11       -8.525741     -8.525722   1.000000   1.000000
   12       -7.881516     -7.881502   1.000000   1.000000
   13       -7.592808     -7.592793   1.000000   1.000000
   14       -6.395257     -6.395244   1.000000   1.000000
   15       -4.895012     -4.895008   1.000000   1.000000
   16       -4.829864     -4.829854   1.000000   1.000000
   17       -4.247239     -4.247234   1.000000   1.000000
   18       -3.919972     -3.919965   1.000000   1.000000
   19       -3.371782     -3.371772   1.000000   1.000000
   20       -3.067944     -3.067941   1.000000   1.000000
   21       -2.529238     -2.529226   1.000000   1.000000
   22       -2.259455     -2.259445   1.000000   1.000000
   23       -2.237422     -2.237414   1.000000   1.000000
   24       -1.818042     -1.818041   1.000000   1.000000
   25       -0.208997     -0.208998   1.000000   1.000000
   26        0.148711      0.148690   1.000000   1.000000
   27        0.252398      0.252375   1.000000   1.000000
   28        0.688505      0.688495   1.000000   1.000000
   29        1.047595      1.047581   1.000000   1.000000
   30        1.258883      1.258870   1.000000   1.000000
   31        1.432910      1.432893   1.000000   1.000000
   32        1.777676      1.777663   1.000000   1.000000
   33        1.908083      1.908071   1.000000   1.000000
   34        2.096629      2.096619   1.000000   1.000000
   35        2.420544      2.420529   1.000000   1.000000
   36        2.551811      2.551795   1.000000   1.000000
   37        2.696989      2.696970   1.000000   1.000000
   38        2.985240      2.985226   1.000000   1.000000
   39        3.381875      3.381851   1.000000   1.000000
   40        3.648504      3.648487   1.000000   1.000000
   41        8.251038      8.251092   0.000000   0.000000
   42        8.744792      8.744833   0.000000   0.000000
   43        8.937700      8.937737   0.000000   0.000000
   44        9.332967      9.332993   0.000000   0.000000
   45        9.479325      9.479358   0.000000   0.000000
   46        9.855317      9.855343   0.000000   0.000000
   47       10.075362     10.075380   0.000000   0.000000
   48       10.493105     10.493082   0.000000   0.000000
   49       10.658465     10.658473   0.000000   0.000000
   50       10.869417     10.869391   0.000000   0.000000
   51       11.448893     11.448893   0.000000   0.000000
   52       11.673211     11.673245   0.000000   0.000000
   53       11.866358     11.866379   0.000000   0.000000
   54       12.087101     12.087105   0.000000   0.000000
 
  0.4285714E+00  0.1428571E+00 -0.5710358E-16  0.1020408E-01
    1      -15.919442    -15.919441   1.000000   1.000000
    2      -15.782829    -15.782830   1.000000   1.000000
    3      -14.249018    -14.249013   1.000000   1.000000
    4      -13.705739    -13.705737   1.000000   1.000000
    5      -13.309531    -13.309528   1.000000   1.000000
    6      -12.630671    -12.630673   1.000000   1.000000
    7      -11.848146    -11.848159   1.000000   1.000000
    8      -11.540324    -11.540339   1.000000   1.000000
    9      -11.397154    -11.397169   1.000000   1.000000
   10      -11.313091    -11.313109   1.000000   1.000000
   11       -8.533188     -8.533168   1.000000   1.000000
   12       -7.546555     -7.546541   1.000000   1.000000
   13       -7.380172     -7.380157   1.000000   1.000000
   14       -5.946253     -5.946242   1.000000   1.000000
   15       -5.254583     -5.254577   1.000000   1.000000
   16       -4.840855     -4.840846   1.000000   1.000000
   17       -4.200130     -4.200122   1.000000   1.000000
   18       -4.147953     -4.147946   1.000000   1.000000
   19       -3.256547     -3.256540   1.000000   1.000000
   20       -2.982944     -2.982936   1.000000   1.000000
   21       -2.614331     -2.614327   1.000000   1.000000
   22       -2.338292     -2.338284   1.000000   1.000000
   23       -2.062653     -2.062640   1.000000   1.000000
   24       -1.858375     -1.858372   1.000000   1.000000
   25       -0.255419     -0.255430   1.000000   1.000000
   26        0.011176      0.011169   1.000000   1.000000
   27        0.142305      0.142280   1.000000   1.000000
   28        0.558412      0.558398   1.000000   1.000000
   29        1.150312      1.150295   1.000000   1.000000
   30        1.347204      1.347188   1.000000   1.000000
   31        1.445424      1.445413   1.000000   1.000000
   32        1.699222      1.699205   1.000000   1.000000
   33        1.981566      1.981555   1.000000   1.000000
   34        2.101624      2.101614   1.000000   1.000000
   35        2.158851      2.158839   1.000000   1.000000
   36        2.493449      2.493436   1.000000   1.000000
   37        2.728863      2.728843   1.000000   1.000000
   38        2.982750      2.982739   1.000000   1.000000
   39        3.291371      3.291351   1.000000   1.000000
   40        3.663873      3.663851   1.000000   1.000000
   41        7.831036      7.831096   0.000000   0.000000
   42        8.872972      8.873015   0.000000   0.000000
   43        9.153176      9.153202   0.000000   0.000000
   44        9.331214      9.331244   0.000000   0.000000
   45        9.712216      9.712242   0.000000   0.000000
   46        9.920648      9.920672   0.000000   0.000000
   47       10.024105     10.024135   0.000000   0.000000
   48       10.731657     10.731679   0.000000   0.000000
   49       10.904342     10.904366   0.000000   0.000000
   50       11.096441     11.096413   0.000000   0.000000
   51       11.443471     11.443461   0.000000   0.000000
   52       11.646975     11.646989   0.000000   0.000000
   53       11.757805     11.757792   0.000000   0.000000
   54       12.093924     12.094329   0.000000   0.000000
 
 -0.4285714E+00  0.1428571E+00  0.1371825E-16  0.1020408E-01
    1      -15.945242    -15.945241   1.000000   1.000000
    2      -15.703345    -15.703346   1.000000   1.000000
    3      -14.347326    -14.347321   1.000000   1.000000
    4      -13.826434    -13.826431   1.000000   1.000000
    5      -13.282447    -13.282445   1.000000   1.000000
    6      -12.372199    -12.372203   1.000000   1.000000
    7      -11.870548    -11.870561   1.000000   1.000000
    8      -11.532894    -11.532909   1.000000   1.000000
    9      -11.443577    -11.443590   1.000000   1.000000
   10      -11.307356    -11.307374   1.000000   1.000000
   11       -8.946160     -8.946138   1.000000   1.000000
   12       -7.291057     -7.291045   1.000000   1.000000
   13       -7.091094     -7.091079   1.000000   1.000000
   14       -5.754317     -5.754310   1.000000   1.000000
   15       -5.407800     -5.407791   1.000000   1.000000
   16       -5.107673     -5.107664   1.000000   1.000000
   17       -4.355755     -4.355749   1.000000   1.000000
   18       -4.217560     -4.217552   1.000000   1.000000
   19       -3.078376     -3.078368   1.000000   1.000000
   20       -2.988881     -2.988873   1.000000   1.000000
   21       -2.628764     -2.628762   1.000000   1.000000
   22       -2.264350     -2.264343   1.000000   1.000000
   23       -2.045898     -2.045890   1.000000   1.000000
   24       -1.810701     -1.810692   1.000000   1.000000
   25       -0.249957     -0.249979   1.000000   1.000000
   26        0.009392      0.009396   1.000000   1.000000
   27        0.151930      0.151907   1.000000   1.000000
   28        0.733502      0.733483   1.000000   1.000000
   29        1.105548      1.105533   1.000000   1.000000
   30        1.383774      1.383763   1.000000   1.000000
   31        1.454022      1.454000   1.000000   1.000000
   32        1.545761      1.545752   1.000000   1.000000
   33        1.841858      1.841850   1.000000   1.000000
   34        2.111326      2.111315   1.000000   1.000000
   35        2.220523      2.220515   1.000000   1.000000
   36        2.512139      2.512121   1.000000   1.000000
   37        2.638197      2.638177   1.000000   1.000000
   38        2.977996      2.977987   1.000000   1.000000
   39        3.332959      3.332939   1.000000   1.000000
   40        3.716636      3.716613   1.000000   1.000000
   41        7.844644      7.844705   0.000000   0.000000
   42        8.634383      8.634419   0.000000   0.000000
   43        9.289295      9.289336   0.000000   0.000000
   44        9.579577      9.579597   0.000000   0.000000
   45        9.714631      9.714654   0.000000   0.000000
   46        9.859601      9.859640   0.000000   0.000000
   47       10.060052     10.060072   0.000000   0.000000
   48       10.879504     10.879520   0.000000   0.000000
   49       10.930259     10.930299   0.000000   0.000000
   50       10.991086     10.991099   0.000000   0.000000
   51       11.484209     11.484212   0.000000   0.000000
   52       11.645586     11.645598   0.000000   0.000000
   53       11.810550     11.810441   0.000000   0.000000
   54       12.045630     12.049304   0.000000   0.000000
 
 -0.2857143E+00  0.1428571E+00  0.5835145E-16  0.1020408E-01
    1      -16.154103    -16.154101   1.000000   1.000000
    2      -15.640391    -15.640392   1.000000   1.000000
    3      -14.469479    -14.469473   1.000000   1.000000
    4      -13.635046    -13.635042   1.000000   1.000000
    5      -13.054092    -13.054093   1.000000   1.000000
    6      -12.028819    -12.028829   1.000000   1.000000
    7      -11.901764    -11.901779   1.000000   1.000000
    8      -11.702630    -11.702644   1.000000   1.000000
    9      -11.300249    -11.300268   1.000000   1.000000
   10      -11.244588    -11.244602   1.000000   1.000000
   11       -9.562907     -9.562879   1.000000   1.000000
   12       -7.507014     -7.507000   1.000000   1.000000
   13       -6.631442     -6.631427   1.000000   1.000000
   14       -6.170270     -6.170261   1.000000   1.000000
   15       -5.717070     -5.717058   1.000000   1.000000
   16       -4.853168     -4.853163   1.000000   1.000000
   17       -4.393630     -4.393624   1.000000   1.000000