       N       E                     dE             d eps       ncg     rms          rms(c)
DAV:   1     0.468547690562E+03    0.46855E+03   -0.40000E+04 21384   0.135E+03
DAV:   2    -0.994125577371E+02   -0.56796E+03   -0.54383E+03 27150   0.306E+02
DAV:   3    -0.137004882176E+03   -0.37592E+02   -0.37278E+02 26576   0.840E+01
DAV:   4    -0.137763739172E+03   -0.75886E+00   -0.75591E+00 28072   0.124E+01
DAV:   5    -0.137782343699E+03   -0.18605E-01   -0.18580E-01 26368   0.186E+00    0.454E+01
DAV:   6    -0.118102580803E+03    0.19680E+02   -0.67538E+01 25036   0.320E+01    0.226E+01
DAV:   7    -0.120488401745E+03   -0.23858E+01   -0.10437E+01 26078   0.116E+01    0.738E+00
DAV:   8    -0.120559276749E+03   -0.70875E-01   -0.59607E-01 25846   0.368E+00    0.447E+00
DAV:   9    -0.120564065001E+03   -0.47883E-02   -0.68995E-02 25630   0.137E+00    0.215E+00
DAV:  10    -0.120562448902E+03    0.16161E-02   -0.26090E-02 27218   0.844E-01    0.468E-01
DAV:  11    -0.120565069277E+03   -0.26204E-02   -0.54822E-03 24852   0.399E-01    0.259E-01
DAV:  12    -0.120565537650E+03   -0.46837E-03   -0.49572E-04 27744   0.128E-01    0.150E-01
DAV:  13    -0.120565812062E+03   -0.27441E-03   -0.28310E-04 26018   0.821E-02    0.592E-02
DAV:  14    -0.120565869810E+03   -0.57748E-04   -0.36363E-05 22000   0.314E-02    0.188E-02
DAV:  15    -0.120565884363E+03   -0.14553E-04   -0.12907E-05 16682   0.182E-02    0.102E-02
DAV:  16    -0.120565888155E+03   -0.37917E-05   -0.46769E-06 15552   0.986E-03
   1 F= -.12056589E+03 E0= -.12056589E+03  d E =0.000000E+00  mag=    -0.0005
