    1    1    1    2
  0.1851103E+02  0.2886362E-09  0.2886362E-09  0.2886362E-09  0.5000000E-15
  1.000000000000000E-004
  CAR 
 unknown system                          
      3    104      8
 
  0.0000000E+00  0.0000000E+00  0.0000000E+00  0.3644315E-03
    1      -45.492231    -45.488832   1.000000   1.000000
    2       -2.786933     -2.786133   1.000000   1.000000
    3       16.472912     16.472577   0.000000   0.000000
    4       16.472912     16.472591   0.000000   0.000000
    5       16.473016     16.472591   0.000000   0.000000
    6       21.435369     21.436338   0.000000   0.000000
    7       21.435369     21.436338   0.000000   0.000000
    8       21.435408     21.436417   0.000000   0.000000
 
  0.7142857E-01  0.2177205E-17 -0.2177205E-17  0.4373178E-02
    1      -45.490701    -45.487301   1.000000   1.000000
    2       -2.687054     -2.686265   1.000000   1.000000
    3       15.763103     15.763018   0.000000   0.000000
    4       15.954457     15.954233   0.000000   0.000000
    5       16.287090     16.286767   0.000000   0.000000
    6       19.979290     19.979751   0.000000   0.000000
    7       20.198536     20.199478   0.000000   0.000000
    8       21.567545     21.567825   0.000000   0.000000
 
  0.1428571E+00  0.1562851E-17 -0.1562851E-17  0.4373178E-02
    1      -45.486857    -45.483455   1.000000   1.000000
    2       -2.388413     -2.387648   1.000000   1.000000
    3       13.780376     13.780743   0.000000   0.000000
    4       14.929257     14.929195   0.000000   0.000000
    5       15.774227     15.773918   0.000000   0.000000
    6       18.734139     18.735074   0.000000   0.000000
    7       18.971430     18.971900   0.000000   0.000000
    8       21.219850     21.220183   0.000000   0.000000
 
  0.2142857E+00 -0.4356100E-17  0.4356100E-17  0.4373178E-02
    1      -45.481271    -45.477867   1.000000   1.000000
    2       -1.890037     -1.889310   1.000000   1.000000
    3       11.351761     11.352185   0.000000   0.000000
    4       13.908920     13.908949   0.000000   0.000000
    5       15.094787     15.094509   0.000000   0.000000
    6       17.509405     17.510339   0.000000   0.000000
    7       18.691207     18.692054   0.000000   0.000000
    8       21.461990     21.462347   0.000000   0.000000
 
  0.2857143E+00 -0.5646004E-17  0.5646004E-17  0.4373178E-02
    1      -45.475102    -45.471697   1.000000   1.000000
    2       -1.196832     -1.196158   1.000000   1.000000
    3        9.001442      9.001933   0.000000   0.000000
    4       13.059209     13.059289   0.000000   0.000000
    5       14.434948     14.434701   0.000000   0.000000
    6       16.551185     16.552117   0.000000   0.000000
    7       18.728788     18.729250   0.000000   0.000000
    8       22.141373     22.141736   0.000000   0.000000
 
  0.3571429E+00  0.2312832E-17 -0.2312832E-17  0.4373178E-02
    1      -45.469550    -45.466143   1.000000   1.000000
    2       -0.333072     -0.332474   1.002278   1.002293
    3        6.908462      6.909050   0.000000   0.000000
    4       12.433782     12.433891   0.000000   0.000000
    5       13.911468     13.911242   0.000000   0.000000
    6       15.865102     15.866034   0.000000   0.000000
    7       18.920351     18.920822   0.000000   0.000000
    8       23.127821     23.128198   0.000000   0.000000
 
  0.4285714E+00 -0.8712201E-17  0.8712201E-17  0.4373178E-02
    1      -45.465734    -45.462325   1.000000   1.000000
    2        0.593423      0.593914   1.022437   1.021899
    3        5.231290      5.231994   0.000000   0.000000
    4       12.053099     12.053223   0.000000   0.000000
    5       13.581202     13.580988   0.000000   0.000000
    6       15.453000     15.453932   0.000000   0.000000
    7       19.129940     19.130541   0.000000   0.000000
    8       24.246669     24.247084   0.000000   0.000000
 
  0.5000000E+00  0.3875683E-17 -0.3875683E-17  0.2186589E-02
    1      -45.464339    -45.460929   1.000000   1.000000
    2        1.111669      1.112069   0.077663   0.077129
    3        4.461302      4.462099   0.000000   0.000000
    4       11.925504     11.925632   0.000000   0.000000
    5       13.468835     13.468625   0.000000   0.000000
    6       15.315586     15.316518   0.000000   0.000000
    7       19.222110     19.222767   0.000000   0.000000
    8       24.898640     24.899105   0.000000   0.000000
 
  0.7142857E-01  0.7142857E-01 -0.5317103E-15  0.8746356E-02
    1      -45.488053    -45.484652   1.000000   1.000000
    2       -2.487857     -2.487086   1.000000   1.000000
    3       14.804035     14.804220   0.000000   0.000000
    4       14.854233     14.854270   0.000000   0.000000
    5       15.709215     15.708999   0.000000   0.000000
    6       19.134361     19.134599   0.000000   0.000000
    7       19.420107     19.420841   0.000000   0.000000
    8       21.305206     21.305816   0.000000   0.000000
 
  0.1428571E+00  0.7142857E-01 -0.5368776E-15  0.1749271E-01
    1      -45.483358    -45.479955   1.000000   1.000000
    2       -2.088837     -2.088096   1.000000   1.000000
    3       12.585132     12.585508   0.000000   0.000000
    4       13.791920     13.792124   0.000000   0.000000
    5       14.907262     14.907144   0.000000   0.000000
    6       18.724765     18.725147   0.000000   0.000000
    7       18.767238     18.767803   0.000000   0.000000
    8       21.367533     21.368172   0.000000   0.000000
 
  0.2142857E+00  0.7142857E-01 -0.4985834E-15  0.1749271E-01
    1      -45.477522    -45.474118   1.000000   1.000000
    2       -1.490818     -1.490121   1.000000   1.000000
    3       10.173469     10.173895   0.000000   0.000000
    4       12.887297     12.887505   0.000000   0.000000
    5       14.103781     14.103735   0.000000   0.000000
    6       18.018664     18.019357   0.000000   0.000000
    7       18.708374     18.708710   0.000000   0.000000
    8       21.826091     21.826906   0.000000   0.000000
 
  0.2857143E+00  0.7142857E-01 -0.5065422E-15  0.1749271E-01
    1      -45.471643    -45.468237   1.000000   1.000000
    2       -0.704143     -0.703508   1.000013   1.000013
    3        7.940182      7.940702   0.000000   0.000000
    4       12.177837     12.178075   0.000000   0.000000
    5       13.433925     13.433923   0.000000   0.000000
    6       17.364500     17.365149   0.000000   0.000000
    7       18.898150     18.898451   0.000000   0.000000
    8       22.622521     22.623254   0.000000   0.000000
 
  0.3571429E+00  0.7142857E-01 -0.5653832E-15  0.1749271E-01
    1      -45.466961    -45.463553   1.000000   1.000000
    2        0.222166      0.222712   1.059961   1.059996
    3        6.023638      6.024260   0.000000   0.000000
    4       11.693643     11.693904   0.000000   0.000000
    5       12.964846     12.964869   0.000000   0.000000
    6       16.897128     16.897764   0.000000   0.000000
    7       19.175696     19.176101   0.000000   0.000000
    8       23.638699     23.639333   0.000000   0.000000
 
  0.4285714E+00  0.7142857E-01 -0.4757205E-15  0.1749271E-01
    1      -45.464379    -45.460969   1.000000   1.000000
    2        1.059116      1.059546   0.209872   0.209211
    3        4.685507      4.686250   0.000000   0.000000
    4       11.448690     11.448963   0.000000   0.000000
    5       12.725036     12.725071   0.000000   0.000000
    6       16.656549     16.657185   0.000000   0.000000
    7       19.383806     19.384312   0.000000   0.000000
    8       24.677998     24.678657   0.000000   0.000000
 
  0.1428571E+00  0.1428571E+00 -0.4582796E-14  0.8746356E-02
    1      -45.478363    -45.474958   1.000000   1.000000
    2       -1.588407     -1.587704   1.000000   1.000000
    3       11.106079     11.106380   0.000000   0.000000
    4       12.058878     12.059269   0.000000   0.000000
    5       14.055180     14.055157   0.000000   0.000000
    6       18.648474     18.648590   0.000000   0.000000
    7       19.139357     19.140216   0.000000   0.000000
    8       21.812549     21.813095   0.000000   0.000000
 
  0.2142857E+00  0.1428571E+00 -0.4590755E-14  0.1749271E-01
    1      -45.472826    -45.469421   1.000000   1.000000
    2       -0.889595     -0.888945   1.000000   1.000000
    3        9.004985      9.005383   0.000000   0.000000
    4       11.056621     11.057068   0.000000   0.000000
    5       13.360662     13.360696   0.000000   0.000000
    6       18.678830     18.679212   0.000000   0.000000
    7       19.250108     19.250536   0.000000   0.000000
    8       22.486781     22.487594   0.000000   0.000000
 
  0.2857143E+00  0.1428571E+00 -0.4654225E-14  0.1749271E-01
    1      -45.467824    -45.464416   1.000000   1.000000
    2       -0.011159     -0.010578   1.033487   1.033537
    3        6.964200      6.964699   0.000000   0.000000
    4       10.425948     10.426417   0.000000   0.000000
    5       12.833114     12.833183   0.000000   0.000000
    6       18.557701     18.558265   0.000000   0.000000
    7       19.521544     19.521700   0.000000   0.000000
    8       23.268141     23.268819   0.000000   0.000000
 
  0.3571429E+00  0.1428571E+00 -0.4555790E-14  0.1749271E-01
    1      -45.464379    -45.460970   1.000000   1.000000
    2        0.952999      0.953484   0.422097   0.421364
    3        5.275361      5.275967   0.000000   0.000000
    4       10.053867     10.054348   0.000000   0.000000
    5       12.504989     12.505079   0.000000   0.000000
    6       18.381431     18.382063   0.000000   0.000000
    7       19.933416     19.933578   0.000000   0.000000
    8       24.018581     24.019364   0.000000   0.000000
 
  0.4285714E+00  0.1428571E+00 -0.4558652E-14  0.8746356E-02
    1      -45.463161    -45.459752   1.000000   1.000000
    2        1.519816      1.520215  -0.026533  -0.026443
    3        4.463730      4.464423   0.000000   0.000000
    4        9.930047      9.930534   0.000000   0.000000
    5       12.393886     12.393984   0.000000   0.000000
    6       18.309589     18.310241   0.000000   0.000000
    7       20.140741     20.140998   0.000000   0.000000
    8       24.489964     24.490153   0.000000   0.000000
 
  0.2142857E+00  0.2142857E+00 -0.5098314E-14  0.8746356E-02
    1      -45.468108    -45.464701   1.000000   1.000000
    2       -0.090272     -0.089677   1.027554   1.027587
    3        7.585992      7.586356   0.000000   0.000000
    4        9.627667      9.628285   0.000000   0.000000
    5       12.847859     12.847949   0.000000   0.000000
    6       19.011289     19.011484   0.000000   0.000000
    7       19.917489     19.918055   0.000000   0.000000
    8       23.509158     23.509609   0.000000   0.000000
 
  0.2857143E+00  0.2142857E+00 -0.5083146E-14  0.1749271E-01
    1      -45.464358    -45.460949   1.000000   1.000000
    2        0.877298      0.877819   0.525130   0.524487
    3        5.947874      5.948299   0.000000   0.000000
    4        8.879536      8.880204   0.000000   0.000000
    5       12.493338     12.493471   0.000000   0.000000
    6       19.319451     19.319805   0.000000   0.000000
    7       20.458717     20.459143   0.000000   0.000000
    8       24.224729     24.225461   0.000000   0.000000
 
  0.3571429E+00  0.2142857E+00 -0.5086476E-14  0.1749271E-01
    1      -45.462283    -45.458874   1.000000   1.000000
    2        1.829179      1.829604  -0.028296  -0.028258
    3        4.595061      4.595589   0.000000   0.000000
    4        8.559955      8.560632   0.000000   0.000000
    5       12.310774     12.310930   0.000000   0.000000
    6       19.448288     19.448823   0.000000   0.000000
    7       21.130256     21.130548   0.000000   0.000000
    8       23.337344     23.337636   0.000000   0.000000
 
  0.2857143E+00  0.2857143E+00  0.5007296E-14  0.8746356E-02
    1      -45.461944    -45.458532   1.000000   1.000000
    2        1.925881      1.926333  -0.031288  -0.031256
    3        4.771667      4.772055   0.000000   0.000000
    4        7.965741      7.966542   0.000000   0.000000
    5       12.290476     12.290653   0.000000   0.000000
    6       20.082666     20.082920   0.000000   0.000000
    7       21.072481     21.073087   0.000000   0.000000
    8       23.241762     23.241982   0.000000   0.000000
 
  0.3571429E+00  0.2857143E+00  0.5031721E-14  0.8746356E-02
    1      -45.461116    -45.457707   1.000000   1.000000
    2        2.742333      2.742726  -0.000036  -0.000035
    3        3.883226      3.883645   0.000000   0.000000
    4        7.685644      7.686484   0.000000   0.000000
    5       12.221760     12.221955   0.000000   0.000000
    6       20.492579     20.492936   0.000000   0.000000
    7       21.849530     21.850011   0.000000   0.000000
    8       21.909380     21.909652   0.000000   0.000000
 
  0.7142857E-01  0.7142857E-01  0.7142857E-01  0.2915452E-02
    1      -45.484548    -45.481146   1.000000   1.000000
    2       -2.189314     -2.188565   1.000000   1.000000
    3       13.826535     13.826668   0.000000   0.000000
    4       13.826535     13.826668   0.000000   0.000000
    5       13.930638     13.930995   0.000000   0.000000
    6       19.320676     19.320925   0.000000   0.000000
    7       19.320677     19.320925   0.000000   0.000000
    8       22.764567     22.764875   0.000000   0.000000
 
  0.1428571E+00  0.7142857E-01  0.7142857E-01  0.8746356E-02
    1      -45.479471    -45.476066   1.000000   1.000000
    2       -1.690268     -1.689558   1.000000   1.000000
    3       11.406911     11.407265   0.000000   0.000000
    4       12.802333     12.802524   0.000000   0.000000
    5       13.092382     13.092651   0.000000   0.000000
    6       19.369691     19.369984   0.000000   0.000000
    7       19.564577     19.564778   0.000000   0.000000
    8       22.563694     22.564153   0.000000   0.000000
 
  0.2142857E+00  0.7142857E-01  0.7142857E-01  0.8746356E-02
    1      -45.473780    -45.470374   1.000000   1.000000
    2       -0.993734     -0.993075   1.000000   1.000000
    3        9.058953      9.059386   0.000000   0.000000
    4       11.948699     11.948922   0.000000   0.000000
    5       12.404256     12.404548   0.000000   0.000000
    6       19.129365     19.129725   0.000000   0.000000
    7       19.765541     19.766027   0.000000   0.000000
    8       22.788616     22.789050   0.000000   0.000000
 
  0.2857143E+00  0.7142857E-01  0.7142857E-01  0.8746356E-02
    1      -45.468698    -45.465291   1.000000   1.000000
    2       -0.120102     -0.119515   1.018431   1.018494
    3        6.961648      6.962175   0.000000   0.000000
    4       11.320081     11.320322   0.000000   0.000000
    5       11.893203     11.893535   0.000000   0.000000
    6       18.761891     18.762297   0.000000   0.000000
    7       19.995843     19.996183   0.000000   0.000000
    8       23.589029     23.589448   0.000000   0.000000
 
  0.3571429E+00  0.7142857E-01  0.7142857E-01  0.8746356E-02
    1      -45.465236    -45.461827   1.000000   1.000000
    2        0.832797      0.833283   0.610260   0.609381
    3        5.261590      5.262228   0.000000   0.000000
    4       10.937379     10.937629   0.000000   0.000000
    5       11.579215     11.579572   0.000000   0.000000
    6       18.481801     18.482228   0.000000   0.000000
    7       20.217581     20.218020   0.000000   0.000000
    8       24.643199     24.643649   0.000000   0.000000
 
  0.4285714E+00  0.7142857E-01  0.7142857E-01  0.4373178E-02
    1      -45.463955    -45.460545   1.000000   1.000000
    2        1.384573      1.384972  -0.034351  -0.034273
    3        4.459211      4.459936   0.000000   0.000000
    4       10.809045     10.809299   0.000000   0.000000
    5       11.473727     11.474094   0.000000   0.000000
    6       18.381029     18.381461   0.000000   0.000000
    7       20.314911     20.315393   0.000000   0.000000
    8       25.284730     25.285227   0.000000   0.000000
 
 -0.7142857E-01  0.7142857E-01  0.7142857E-01  0.2186589E-02
    1      -45.489349    -45.485949   1.000000   1.000000
    2       -2.587308     -2.586527   1.000000   1.000000
    3       15.373531     15.373488   0.000000   0.000000
    4       15.373591     15.373493   0.000000   0.000000
    5       16.026222     16.026125   0.000000   0.000000
    6       19.013903     19.014154   0.000000   0.000000
    7       20.585010     20.585710   0.000000   0.000000
    8       20.585029     20.585728   0.000000   0.000000
 
  0.1428571E+00  0.1428571E+00  0.7142857E-01  0.8746356E-02
    1      -45.474566    -45.471160   1.000000   1.000000
    2       -1.090157     -1.089490   1.000000   1.000000
    3        9.980377      9.980694   0.000000   0.000000
    4       10.950826     10.951190   0.000000   0.000000
    5       12.367411     12.367743   0.000000   0.000000
    6       20.088885     20.089219   0.000000   0.000000
    7       20.185705     20.185756   0.000000   0.000000
    8       23.245640     23.246189   0.000000   0.000000
 
  0.2142857E+00  0.1428571E+00  0.7142857E-01  0.1749271E-01
    1      -45.469693    -45.466287   1.000000   1.000000
    2       -0.294045     -0.293438   1.009316   1.009332
    3        7.975148      7.975548   0.000000   0.000000
    4       10.000094     10.000483   0.000000   0.000000
    5       11.832570     11.832973   0.000000   0.000000
    6       20.376946     20.377329   0.000000   0.000000
    7       20.684733     20.684820   0.000000   0.000000
    8       23.744165     23.744869   0.000000   0.000000
 
  0.2857143E+00  0.1428571E+00  0.7142857E-01  0.1749271E-01
    1      -45.465748    -45.462339   1.000000   1.000000
    2        0.662801      0.663330   0.790358   0.789862
    3        6.083886      6.084381   0.000000   0.000000
    4        9.456754      9.457149   0.000000   0.000000
    5       11.470067     11.470517   0.000000   0.000000
    6       20.335022     20.335403   0.000000   0.000000
    7       21.135462     21.135625   0.000000   0.000000
    8       24.535736     24.536506   0.000000   0.000000
 
  0.3571429E+00  0.1428571E+00  0.7142857E-01  0.1749271E-01
    1      -45.463633    -45.460223   1.000000   1.000000
    2        1.576778      1.577203  -0.039374  -0.039387
    3        4.686953      4.687557   0.000000   0.000000
    4        9.191459      9.191855   0.000000   0.000000
    5       11.286085     11.286562   0.000000   0.000000
    6       20.249024     20.249433   0.000000   0.000000
    7       21.441662     21.441899   0.000000   0.000000
    8       25.461610     25.462333   0.000000   0.000000
 
 -0.1428571E+00  0.1428571E+00  0.7142857E-01  0.8746356E-02
    1      -45.485544    -45.482142   1.000000   1.000000
    2       -2.287361     -2.286603   1.000000   1.000000
    3       13.702953     13.703227   0.000000   0.000000
    4       14.279689     14.279777   0.000000   0.000000
    5       15.621738     15.621568   0.000000   0.000000
    6       17.819994     17.820200   0.000000   0.000000
    7       19.601003     19.601764   0.000000   0.000000
    8       20.752085     20.752803   0.000000   0.000000
 
  0.2142857E+00  0.2142857E+00  0.7142857E-01  0.8746356E-02
    1      -45.465980    -45.462573   1.000000   1.000000
    2        0.601071      0.601614   0.824489   0.824081
    3        6.664271      6.664639   0.000000   0.000000
    4        8.633921      8.634443   0.000000   0.000000
    5       11.447780     11.448260   0.000000   0.000000
    6       21.324551     21.324920   0.000000   0.000000
    7       21.384162     21.384271   0.000000   0.000000
    8       24.743344     24.743847   0.000000   0.000000
 
  0.2857143E+00  0.2142857E+00  0.7142857E-01  0.1749271E-01
    1      -45.463413    -45.460002   1.000000   1.000000
    2        1.634936      1.635402  -0.039230  -0.039324
    3        5.174892      5.175316   0.000000   0.000000
    4        7.996436      7.996993   0.000000   0.000000
    5       11.215976     11.216506   0.000000   0.000000
    6       21.606364     21.606736   0.000000   0.000000
    7       22.240407     22.240533   0.000000   0.000000
    8       25.496273     25.497602   0.000000   0.000000
 
  0.3571429E+00  0.2142857E+00  0.7142857E-01  0.8746356E-02
    1      -45.462527    -45.459118   1.000000   1.000000
    2        2.337780      2.338173  -0.001118  -0.001113
    3        4.287156      4.287653   0.000000   0.000000
    4        7.813565      7.814126   0.000000   0.000000
    5       11.138120     11.138670   0.000000   0.000000
    6       21.655573     21.656002   0.000000   0.000000
    7       22.748161     22.748251   0.000000   0.000000
    8       25.102791     25.103033   0.000000   0.000000
 
 -0.2142857E+00  0.2142857E+00  0.7142857E-01  0.8746356E-02
    1      -45.480130    -45.476726   1.000000   1.000000
    2       -1.787139     -1.786417   1.000000   1.000000
    3       11.369115     11.369518   0.000000   0.000000
    4       13.221083     13.221255   0.000000   0.000000
    5       15.038781     15.038563   0.000000   0.000000
    6       17.555120     17.555298   0.000000   0.000000
    7       18.452632     18.453419   0.000000   0.000000
    8       21.255700     21.256730   0.000000   0.000000
 
 -0.1428571E+00  0.2142857E+00  0.7142857E-01  0.8746356E-02
    1      -45.480987    -45.477583   1.000000   1.000000
    2       -1.885289     -1.884560   1.000000   1.000000
    3       12.349508     12.349759   0.000000   0.000000
    4       12.779638     12.780005   0.000000   0.000000
    5       15.201539     15.201393   0.000000   0.000000
    6       16.937970     16.938172   0.000000   0.000000
    7       19.477788     19.478851   0.000000   0.000000
    8       21.139620     21.140092   0.000000   0.000000
 
  0.2857143E+00  0.2857143E+00  0.7142857E-01  0.8746356E-02
    1      -45.462118    -45.458708   1.000000   1.000000
    2        2.737790      2.738196  -0.000813  -0.000809
    3        4.102142      4.102531   0.000000   0.000000
    4        7.253863      7.254524   0.000000   0.000000
    5       11.090151     11.090727   0.000000   0.000000
    6       22.632400     22.632775   0.000000   0.000000
    7       22.950008     22.950212   0.000000   0.000000
    8       24.417094     24.417292   0.000000   0.000000
 
 -0.2857143E+00  0.2857143E+00  0.7142857E-01  0.8746356E-02
    1      -45.474033    -45.470627   1.000000   1.000000
    2       -1.090510     -1.089840   1.000000   1.000000
    3        9.047285      9.047777   0.000000   0.000000
    4       12.350029     12.350247   0.000000   0.000000
    5       14.417945     14.417756   0.000000   0.000000
    6       17.525328     17.526125   0.000000   0.000000
    7       17.760207     17.760387   0.000000   0.000000
    8       21.962566     21.963336   0.000000   0.000000
 
 -0.2142857E+00  0.2857143E+00  0.7142857E-01  0.1749271E-01
    1      -45.475350    -45.471946   1.000000   1.000000
    2       -1.282502     -1.281815   1.000000   1.000000
    3       10.189711     10.190105   0.000000   0.000000
    4       11.736207     11.736568   0.000000   0.000000
    5       14.650819     14.650667   0.000000   0.000000
    6       16.824331     16.824528   0.000000   0.000000
    7       18.995459     18.996327   0.000000   0.000000
    8       21.795785     21.796602   0.000000   0.000000
 
 -0.3571429E+00  0.3571429E+00  0.7142857E-01  0.8746356E-02
    1      -45.468532    -45.465124   1.000000   1.000000
    2       -0.221020     -0.220422   1.012148   1.012187
    3        6.962239      6.962823   0.000000   0.000000
    4       11.712454     11.712698   0.000000   0.000000
    5       13.914025     13.913863   0.000000   0.000000
    6       16.854858     16.855659   0.000000   0.000000
    7       18.170706     18.170939   0.000000   0.000000
    8       22.783871     22.784597   0.000000   0.000000
 
 -0.2857143E+00  0.3571429E+00  0.7142857E-01  0.1749271E-01
    1      -45.469664    -45.466257   1.000000   1.000000
    2       -0.487926     -0.487299   1.003270   1.003282
    3        8.017291      8.017782   0.000000   0.000000
    4       10.994782     10.995165   0.000000   0.000000
    5       14.079615     14.079512   0.000000   0.000000
    6       17.103939     17.104234   0.000000   0.000000
    7       18.559918     18.560485   0.000000   0.000000
    8       22.486353     22.487083   0.000000   0.000000
 
 -0.2142857E+00  0.3571429E+00  0.7142857E-01  0.8746356E-02
    1      -45.470064    -45.466658   1.000000   1.000000
    2       -0.576893     -0.576256   1.001734   1.001739
    3        8.743607      8.743956   0.000000   0.000000
    4       10.276314     10.276876   0.000000   0.000000
    5       14.275136     14.274993   0.000000   0.000000
    6       16.668216     16.668452   0.000000   0.000000
    7       19.370371     19.371185   0.000000   0.000000
    8       22.740719     22.741102   0.000000   0.000000
 
 -0.4285714E+00  0.4285714E+00  0.7142857E-01  0.8746356E-02
    1      -45.464809    -45.461400   1.000000   1.000000
    2        0.716444      0.716940   0.806816   0.805951
    3        5.279909      5.280604   0.000000   0.000000
    4       11.325427     11.325684   0.000000   0.000000
    5       13.593813     13.593666   0.000000   0.000000
    6       16.450465     16.451269   0.000000   0.000000
    7       18.588533     18.588869   0.000000   0.000000
    8       23.618465     23.619352   0.000000   0.000000
 
 -0.3571429E+00  0.4285714E+00  0.7142857E-01  0.1749271E-01
    1      -45.465118    -45.461709   1.000000   1.000000
    2        0.453532      0.454078   0.992510   0.992217
    3        6.114255      6.114842   0.000000   0.000000
    4       10.496721     10.497120   0.000000   0.000000
    5       13.651497     13.651425   0.000000   0.000000
    6       17.337178     17.337772   0.000000   0.000000
    7       18.519888     18.520151   0.000000   0.000000
    8       22.892924     22.893780   0.000000   0.000000
 
 -0.2857143E+00  0.4285714E+00  0.7142857E-01  0.1749271E-01
    1      -45.465322    -45.461914   1.000000   1.000000
    2        0.314430      0.315003   1.019249   1.019114
    3        6.957845      6.958269   0.000000   0.000000
    4        9.463483      9.464092   0.000000   0.000000
    5       13.874964     13.874859   0.000000   0.000000
    6       16.980316     16.980597   0.000000   0.000000
    7       19.512166     19.512895   0.000000   0.000000
    8       23.333912     23.334491   0.000000   0.000000
 
  0.5000000E+00  0.5000000E+00  0.7142857E-01  0.4373178E-02
    1      -45.463475    -45.460066   1.000000   1.000000
    2        1.246948      1.247354  -0.010461  -0.010601
    3        4.499100      4.499885   0.000000   0.000000
    4       11.195799     11.196060   0.000000   0.000000
    5       13.484636     13.484494   0.000000   0.000000
    6       16.315386     16.316189   0.000000   0.000000
    7       18.774446     18.774852   0.000000   0.000000
    8       24.261914     24.262730   0.000000   0.000000
 
 -0.4285714E+00  0.5000000E+00  0.7142857E-01  0.1749271E-01
    1      -45.462627    -45.459218   1.000000   1.000000
    2        1.319978      1.320415   0.013518   0.013344
    3        4.757904      4.758608   0.000000   0.000000
    4       10.246096     10.246502   0.000000   0.000000
    5       13.427784     13.427726   0.000000   0.000000
    6       17.333198     17.333974   0.000000   0.000000
    7       18.836077     18.836244   0.000000   0.000000
    8       22.707159     22.707952   0.000000   0.000000
 
 -0.3571429E+00  0.5000000E+00  0.7142857E-01  0.1749271E-01
    1      -45.462034    -45.458625   1.000000   1.000000
    2        1.310419      1.310907   0.057662   0.057331
    3        5.323399      5.323928   0.000000   0.000000
    4        9.044879      9.045497   0.000000   0.000000
    5       13.585070     13.584992   0.000000   0.000000
    6       17.418600     17.419041   0.000000   0.000000
    7       19.783118     19.783774   0.000000   0.000000
    8       22.108195     22.108473   0.000000   0.000000
 
 -0.2857143E+00  0.5000000E+00  0.7142857E-01  0.8746356E-02
    1      -45.461812    -45.458402   1.000000   1.000000
    2        1.296499      1.297008   0.081690   0.081277
    3        5.701106      5.701485   0.000000   0.000000
    4        8.432498      8.433272   0.000000   0.000000
    5       13.693628     13.693537   0.000000   0.000000
    6       17.352091     17.352364   0.000000   0.000000
    7       19.940128     19.940946   0.000000   0.000000
    8       22.401683     22.401937   0.000000   0.000000
 
 -0.4285714E+00 -0.4285714E+00  0.7142857E-01  0.8746356E-02
    1      -45.460871    -45.457462   1.000000   1.000000
    2        1.924944      1.925349  -0.005095  -0.005077
    3        4.485869      4.486486   0.000000   0.000000
    4        8.911080      8.911701   0.000000   0.000000
    5       13.481929     13.481860   0.000000   0.000000
    6       17.614354     17.614901   0.000000   0.000000
    7       20.216908     20.217553   0.000000   0.000000
    8       21.183116     21.183437   0.000000   0.000000
 
 -0.3571429E+00 -0.4285714E+00  0.7142857E-01  0.1749271E-01
    1      -45.459901    -45.456489   1.000000   1.000000
    2        2.321292      2.321723  -0.004658  -0.004635
    3        4.450482      4.450913   0.000000   0.000000
    4        7.983551      7.984377   0.000000   0.000000
    5       13.574079     13.574006   0.000000   0.000000
    6       17.924168     17.924500   0.000000   0.000000
    7       19.961313     19.961778   0.000000   0.000000
    8       21.284409     21.284978   0.000000   0.000000
 
 -0.3571429E+00 -0.3571429E+00  0.7142857E-01  0.2915452E-02
    1      -45.459159    -45.455747   1.000000   1.000000
    2        3.414102      3.414501   0.000000   0.000000
    3        3.414132      3.414522   0.000000   0.000000
    4        7.608839      7.609755   0.000000   0.000000