       N       E                     dE             d eps       ncg     rms          rms(c)
DAV:   1     0.189496268166E+00    0.18950E+00   -0.73123E+02  3360   0.269E+02
DAV:   2    -0.157910046121E+01   -0.17686E+01   -0.17268E+01  4984   0.342E+01
DAV:   3    -0.159266492592E+01   -0.13564E-01   -0.13548E-01  3712   0.266E+00
DAV:   4    -0.159284053019E+01   -0.17560E-03   -0.17513E-03  5008   0.237E-01
DAV:   5    -0.159284148006E+01   -0.94987E-06   -0.94918E-06  3856   0.917E-03    0.545E+00
RMM:   6    -0.182489556303E+01   -0.23205E+00   -0.51570E-02  4043   0.166E+00    0.258E+00
RMM:   7    -0.189445784782E+01   -0.69562E-01   -0.15216E-02  3552   0.956E-01    0.157E-01
RMM:   8    -0.189548322584E+01   -0.10254E-02   -0.43597E-03  3944   0.556E-01    0.945E-02
RMM:   9    -0.189582847666E+01   -0.34525E-03   -0.16489E-03  4639   0.324E-01    0.354E-02
RMM:  10    -0.189610585908E+01   -0.27738E-03   -0.13058E-03  4342   0.278E-01    0.284E-02
RMM:  11    -0.189615870299E+01   -0.52844E-04   -0.20698E-04  4726   0.117E-01    0.230E-02
RMM:  12    -0.189618307677E+01   -0.24374E-04   -0.13647E-04  4457   0.879E-02    0.716E-03
RMM:  13    -0.189619105825E+01   -0.79815E-05   -0.30847E-05  4311   0.458E-02
   1 F= -.18961911E+01 E0= -.18961911E+01  d E =0.000000E+00  mag=    -0.0000
