    8    8    1    2
  0.8486000E+01  0.3183035E-09  0.3183035E-09  0.7737122E-09  0.5000000E-15
  1.000000000000000E-004
  CAR 
 unknown system                          
     36     57     26
 
  0.0000000E+00  0.0000000E+00  0.0000000E+00  0.1736111E-02
    1      -41.892021    -41.891858   1.000000   1.000000
    2      -41.886872    -41.886709   1.000000   1.000000
    3      -41.444768    -41.444634   1.000000   1.000000
    4      -41.440422    -41.440288   1.000000   1.000000
    5      -18.130711    -18.130727   1.000000   1.000000
    6      -17.945645    -17.945663   1.000000   1.000000
    7      -13.257161    -13.257172   1.000000   1.000000
    8      -12.564642    -12.564661   1.000000   1.000000
    9       -4.064059     -4.064052   1.000000   1.000000
   10       -2.331029     -2.331036   1.000000   1.000000
   11       -1.030049     -1.030067   1.000000   1.000000
   12       -1.030036     -1.030056   1.000000   1.000000
   13       -0.872238     -0.872259   1.000000   1.000000
   14       -0.872232     -0.872253   1.000000   1.000000
   15        2.010284      2.010262   1.000000   1.000000
   16        2.010291      2.010269   1.000000   1.000000
   17        2.250743      2.250716   1.000000   1.000000
   18        2.250747      2.250720   1.000000   1.000000
   19        4.208261      4.208262   0.000000   0.000000
   20        6.418606      6.418587   0.000000   0.000000
   21        8.314275      8.314248   0.000000   0.000000
   22        8.647697      8.647693   0.000000   0.000000
   23       10.824072     10.824068   0.000000   0.000000
   24       10.951558     10.951533   0.000000   0.000000
   25       13.913553     13.913506   0.000000   0.000000
   26       13.918053     13.914442   0.000000   0.000000
 
  0.8333333E-01 -0.1401044E-16  0.0000000E+00  0.1041667E-01
    1      -41.891027    -41.890864   1.000000   1.000000
    2      -41.886185    -41.886022   1.000000   1.000000
    3      -41.443600    -41.443466   1.000000   1.000000
    4      -41.439552    -41.439417   1.000000   1.000000
    5      -18.119765    -18.119781   1.000000   1.000000
    6      -17.938368    -17.938386   1.000000   1.000000
    7      -13.229187    -13.229198   1.000000   1.000000
    8      -12.549757    -12.549776   1.000000   1.000000
    9       -4.047722     -4.047715   1.000000   1.000000
   10       -2.340664     -2.340672   1.000000   1.000000
   11       -1.191296     -1.191314   1.000000   1.000000
   12       -1.092652     -1.092671   1.000000   1.000000
   13       -0.980485     -0.980505   1.000000   1.000000
   14       -0.896432     -0.896454   1.000000   1.000000
   15        1.826054      1.826033   1.000000   1.000000
   16        1.947375      1.947352   1.000000   1.000000
   17        2.114718      2.114695   1.000000   1.000000
   18        2.258241      2.258216   1.000000   1.000000
   19        4.274433      4.274432   0.000000   0.000000
   20        6.409880      6.409862   0.000000   0.000000
   21        8.486402      8.486371   0.000000   0.000000
   22        8.799191      8.799188   0.000000   0.000000
   23       10.950757     10.950755   0.000000   0.000000
   24       11.177677     11.177647   0.000000   0.000000
   25       13.601516     13.600871   0.000000   0.000000
   26       14.087275     14.088489   0.000000   0.000000
 
  0.1666667E+00 -0.2023042E-16  0.0000000E+00  0.1041667E-01
    1      -41.888361    -41.888198   1.000000   1.000000
    2      -41.884316    -41.884153   1.000000   1.000000
    3      -41.440506    -41.440372   1.000000   1.000000
    4      -41.437150    -41.437016   1.000000   1.000000
    5      -18.088624    -18.088641   1.000000   1.000000
    6      -17.918967    -17.918986   1.000000   1.000000
    7      -13.149816    -13.149828   1.000000   1.000000
    8      -12.511083    -12.511102   1.000000   1.000000
    9       -4.000557     -4.000552   1.000000   1.000000
   10       -2.376306     -2.376314   1.000000   1.000000
   11       -1.583480     -1.583495   1.000000   1.000000
   12       -1.281916     -1.281934   1.000000   1.000000
   13       -1.246239     -1.246258   1.000000   1.000000
   14       -0.974526     -0.974547   1.000000   1.000000
   15        1.393402      1.393383   1.000000   1.000000
   16        1.740588      1.740568   1.000000   1.000000
   17        1.803921      1.803900   1.000000   1.000000
   18        2.252406      2.252381   1.000000   1.000000
   19        4.433654      4.433649   0.000000   0.000000
   20        6.374259      6.374240   0.000000   0.000000
   21        8.931971      8.931946   0.000000   0.000000
   22        9.207329      9.207319   0.000000   0.000000
   23       11.279061     11.279060   0.000000   0.000000
   24       11.784120     11.784103   0.000000   0.000000
   25       13.105310     13.105085   0.000000   0.000000
   26       14.590050     14.607887   0.000000   0.000000
 
  0.2500000E+00 -0.5774482E-16  0.0000000E+00  0.1041667E-01
    1      -41.884712    -41.884549   1.000000   1.000000
    2      -41.881788    -41.881624   1.000000   1.000000
    3      -41.436231    -41.436097   1.000000   1.000000
    4      -41.433880    -41.433745   1.000000   1.000000
    5      -18.043539    -18.043557   1.000000   1.000000
    6      -17.893490    -17.893510   1.000000   1.000000
    7      -13.031733    -13.031746   1.000000   1.000000
    8      -12.464228    -12.464247   1.000000   1.000000
    9       -3.928868     -3.928864   1.000000   1.000000
   10       -2.476517     -2.476523   1.000000   1.000000
   11       -2.020755     -2.020769   1.000000   1.000000
   12       -1.677323     -1.677339   1.000000   1.000000
   13       -1.434502     -1.434521   1.000000   1.000000
   14       -1.090675     -1.090696   1.000000   1.000000
   15        0.897361      0.897345   1.000000   1.000000
   16        1.248474      1.248457   1.000000   1.000000
   17        1.636947      1.636927   1.000000   1.000000
   18        2.220271      2.220246   1.000000   1.000000
   19        4.630649      4.630640   0.000000   0.000000
   20        6.298822      6.298804   0.000000   0.000000
   21        9.444637      9.444616   0.000000   0.000000
   22        9.786467      9.786445   0.000000   0.000000
   23       11.688233     11.688220   0.000000   0.000000
   24       12.604588     12.604151   0.000000   0.000000
   25       12.732357     12.732461   0.000000   0.000000
   26       14.602454     14.589516   0.000000   0.000000
 
  0.3333333E+00 -0.5929467E-16  0.0000000E+00  0.1041667E-01
    1      -41.881089    -41.880926   1.000000   1.000000
    2      -41.879235    -41.879071   1.000000   1.000000
    3      -41.431933    -41.431799   1.000000   1.000000
    4      -41.430583    -41.430449   1.000000   1.000000
    5      -17.994305    -17.994324   1.000000   1.000000
    6      -17.870181    -17.870201   1.000000   1.000000
    7      -12.897665    -12.897680   1.000000   1.000000
    8      -12.429175    -12.429194   1.000000   1.000000
    9       -3.845286     -3.845284   1.000000   1.000000
   10       -2.739398     -2.739403   1.000000   1.000000
   11       -2.272070     -2.272082   1.000000   1.000000
   12       -2.043168     -2.043182   1.000000   1.000000
   13       -1.607662     -1.607681   1.000000   1.000000
   14       -1.209237     -1.209258   1.000000   1.000000
   15        0.477245      0.477232   1.000000   1.000000
   16        0.769755      0.769739   1.000000   1.000000
   17        1.486933      1.486913   1.000000   1.000000
   18        2.176429      2.176404   1.000000   1.000000
   19        4.833526      4.833514   0.000000   0.000000
   20        6.186724      6.186706   0.000000   0.000000
   21        9.792389      9.792436   0.000000   0.000000
   22       10.415505     10.415486   0.000000   0.000000
   23       12.052214     12.052121   0.000000   0.000000
   24       12.565995     12.565982   0.000000   0.000000
   25       13.442149     13.438624   0.000000   0.000000
   26       14.237863     14.246675   0.000000   0.000000
 
  0.4166667E+00 -0.1425513E-16  0.0000000E+00  0.1041667E-01
    1      -41.878455    -41.878291   1.000000   1.000000
    2      -41.877391    -41.877227   1.000000   1.000000
    3      -41.428867    -41.428732   1.000000   1.000000
    4      -41.428131    -41.427996   1.000000   1.000000
    5      -17.953992    -17.954012   1.000000   1.000000
    6      -17.856405    -17.856425   1.000000   1.000000
    7      -12.782298    -12.782313   1.000000   1.000000
    8      -12.417872    -12.417890   1.000000   1.000000
    9       -3.769092     -3.769093   1.000000   1.000000
   10       -3.028205     -3.028208   1.000000   1.000000
   11       -2.374705     -2.374718   1.000000   1.000000
   12       -2.277608     -2.277621   1.000000   1.000000
   13       -1.727369     -1.727388   1.000000   1.000000
   14       -1.295757     -1.295779   1.000000   1.000000
   15        0.222268      0.222257   1.000000   1.000000
   16        0.408019      0.408004   1.000000   1.000000
   17        1.384175      1.384155   1.000000   1.000000
   18        2.140390      2.140365   1.000000   1.000000
   19        5.005535      5.005520   0.000000   0.000000
   20        6.068581      6.068565   0.000000   0.000000
   21        9.930557      9.930784   0.000000   0.000000
   22       10.880811     10.880780   0.000000   0.000000
   23       12.288145     12.287855   0.000000   0.000000
   24       12.578872     12.578142   0.000000   0.000000
   25       14.047754     14.042220   0.000000   0.000000
   26       14.099509     14.095678   0.000000   0.000000
 
  0.5000000E+00 -0.1154896E-15  0.0000000E+00  0.5208333E-02
    1      -41.877489    -41.877325   1.000000   1.000000
    2      -41.876747    -41.876584   1.000000   1.000000
    3      -41.427799    -41.427665   1.000000   1.000000
    4      -41.427217    -41.427083   1.000000   1.000000
    5      -17.937714    -17.937735   1.000000   1.000000
    6      -17.852746    -17.852766   1.000000   1.000000
    7      -12.733317    -12.733333   1.000000   1.000000
    8      -12.419823    -12.419841   1.000000   1.000000
    9       -3.733696     -3.733698   1.000000   1.000000
   10       -3.146394     -3.146395   1.000000   1.000000
   11       -2.424709     -2.424723   1.000000   1.000000
   12       -2.339922     -2.339933   1.000000   1.000000
   13       -1.769918     -1.769936   1.000000   1.000000
   14       -1.327242     -1.327264   1.000000   1.000000
   15        0.153807      0.153800   1.000000   1.000000
   16        0.257865      0.257847   1.000000   1.000000
   17        1.347761      1.347741   1.000000   1.000000
   18        2.126651      2.126625   1.000000   1.000000
   19        5.079464      5.079449   0.000000   0.000000
   20        6.012306      6.012289   0.000000   0.000000
   21        9.956582      9.957221   0.000000   0.000000
   22       11.041349     11.041323   0.000000   0.000000
   23       12.367203     12.367198   0.000000   0.000000
   24       12.621230     12.619959   0.000000   0.000000
   25       14.072681     14.080664   0.000000   0.000000
   26       14.244708     14.230439   0.000000   0.000000
 
  0.8333333E-01  0.8333333E-01  0.0000000E+00  0.1041667E-01
    1      -41.889181    -41.889018   1.000000   1.000000
    2      -41.884913    -41.884749   1.000000   1.000000
    3      -41.441480    -41.441346   1.000000   1.000000
    4      -41.437890    -41.437755   1.000000   1.000000
    5      -18.098522    -18.098539   1.000000   1.000000
    6      -17.924974    -17.924992   1.000000   1.000000
    7      -13.175534    -13.175545   1.000000   1.000000
    8      -12.523038    -12.523057   1.000000   1.000000
    9       -4.015734     -4.015729   1.000000   1.000000
   10       -2.363019     -2.363026   1.000000   1.000000
   11       -1.438022     -1.438039   1.000000   1.000000
   12       -1.307451     -1.307469   1.000000   1.000000
   13       -1.067558     -1.067576   1.000000   1.000000
   14       -0.988778     -0.988800   1.000000   1.000000
   15        1.546272      1.546252   1.000000   1.000000
   16        1.734976      1.734956   1.000000   1.000000
   17        1.981512      1.981490   1.000000   1.000000
   18        2.218452      2.218426   1.000000   1.000000
   19        4.387212      4.387208   0.000000   0.000000
   20        6.387458      6.387440   0.000000   0.000000
   21        8.800977      8.800945   0.000000   0.000000
   22        9.078984      9.078976   0.000000   0.000000
   23       11.180046     11.180042   0.000000   0.000000
   24       11.592910     11.592876   0.000000   0.000000
   25       13.233642     13.233459   0.000000   0.000000
   26       14.400573     14.391956   0.000000   0.000000
 
  0.1666667E+00  0.8333333E-01  0.0000000E+00  0.2083333E-01
    1      -41.886047    -41.885883   1.000000   1.000000
    2      -41.882718    -41.882554   1.000000   1.000000
    3      -41.437798    -41.437664   1.000000   1.000000
    4      -41.435083    -41.434948   1.000000   1.000000
    5      -18.060329    -18.060347   1.000000   1.000000
    6      -17.902688    -17.902707   1.000000   1.000000
    7      -13.076236    -13.076248   1.000000   1.000000
    8      -12.480621    -12.480640   1.000000   1.000000
    9       -3.954524     -3.954519   1.000000   1.000000
   10       -2.425577     -2.425583   1.000000   1.000000
   11       -1.838998     -1.839013   1.000000   1.000000
   12       -1.634707     -1.634724   1.000000   1.000000
   13       -1.262608     -1.262627   1.000000   1.000000
   14       -1.102353     -1.102374   1.000000   1.000000
   15        1.104970      1.104952   1.000000   1.000000
   16        1.382909      1.382892   1.000000   1.000000
   17        1.757101      1.757079   1.000000   1.000000
   18        2.166121      2.166096   1.000000   1.000000
   19        4.567041      4.567034   0.000000   0.000000
   20        6.330365      6.330347   0.000000   0.000000
   21        9.320572      9.320525   0.000000   0.000000
   22        9.570064      9.570051   0.000000   0.000000
   23       11.556459     11.556475   0.000000   0.000000
   24       12.305722     12.305395   0.000000   0.000000
   25       12.839095     12.838571   0.000000   0.000000
   26       15.017083     14.626494   0.000000   0.000000
 
  0.2500000E+00  0.8333333E-01  0.0000000E+00  0.2083333E-01
    1      -41.882416    -41.882253   1.000000   1.000000
    2      -41.880172    -41.880008   1.000000   1.000000
    3      -41.433506    -41.433372   1.000000   1.000000
    4      -41.431796    -41.431662   1.000000   1.000000
    5      -18.012523    -18.012541   1.000000   1.000000
    6      -17.878591    -17.878611   1.000000   1.000000
    7      -12.948437    -12.948451   1.000000   1.000000
    8      -12.440920    -12.440939   1.000000   1.000000
    9       -3.871559     -3.871556   1.000000   1.000000
   10       -2.600195     -2.600201   1.000000   1.000000
   11       -2.190018     -2.190032   1.000000   1.000000
   12       -1.976866     -1.976883   1.000000   1.000000
   13       -1.490185     -1.490203   1.000000   1.000000
   14       -1.215078     -1.215098   1.000000   1.000000
   15        0.663564      0.663549   1.000000   1.000000
   16        0.964716      0.964701   1.000000   1.000000
   17        1.533541      1.533520   1.000000   1.000000
   18        2.108698      2.108672   1.000000   1.000000
   19        4.772691      4.772680   0.000000   0.000000
   20        6.232631      6.232613   0.000000   0.000000
   21        9.805912      9.805853   0.000000   0.000000
   22       10.204689     10.204670   0.000000   0.000000
   23       11.956637     11.956603   0.000000   0.000000
   24       12.583840     12.583963   0.000000   0.000000
   25       13.135852     13.135971   0.000000   0.000000
   26       14.253280     14.253220   0.000000   0.000000
 
  0.3333333E+00  0.8333333E-01  0.0000000E+00  0.2083333E-01
    1      -41.879315    -41.879152   1.000000   1.000000
    2      -41.877984    -41.877821   1.000000   1.000000
    3      -41.429833    -41.429699   1.000000   1.000000
    4      -41.428946    -41.428811   1.000000   1.000000
    5      -17.966477    -17.966497   1.000000   1.000000
    6      -17.861002    -17.861023   1.000000   1.000000
    7      -12.819451    -12.819467   1.000000   1.000000
    8      -12.421514    -12.421532   1.000000   1.000000
    9       -3.781360     -3.781360   1.000000   1.000000
   10       -2.900231     -2.900235   1.000000   1.000000
   11       -2.349370     -2.349383   1.000000   1.000000
   12       -2.256576     -2.256592   1.000000   1.000000
   13       -1.664731     -1.664749   1.000000   1.000000
   14       -1.312630     -1.312650   1.000000   1.000000
   15        0.340896      0.340883   1.000000   1.000000
   16        0.577849      0.577835   1.000000   1.000000
   17        1.371478      1.371459   1.000000   1.000000
   18        2.053386      2.053361   1.000000   1.000000
   19        4.971944      4.971930   0.000000   0.000000
   20        6.107797      6.107780   0.000000   0.000000
   21       10.073220     10.073274   0.000000   0.000000
   22       10.823001     10.822986   0.000000   0.000000
   23       12.273811     12.273557   0.000000   0.000000
   24       12.523963     12.523771   0.000000   0.000000
   25       13.872566     13.844301   0.000000   0.000000
   26       14.020471     14.014849   0.000000   0.000000
 
  0.4166667E+00  0.8333333E-01  0.0000000E+00  0.2083333E-01
    1      -41.877501    -41.877338   1.000000   1.000000
    2      -41.876689    -41.876526   1.000000   1.000000
    3      -41.427744    -41.427610   1.000000   1.000000
    4      -41.427192    -41.427058   1.000000   1.000000
    5      -17.936305    -17.936325   1.000000   1.000000
    6      -17.853632    -17.853653   1.000000   1.000000
    7      -12.730043    -12.730059   1.000000   1.000000
    8      -12.423490    -12.423508   1.000000   1.000000
    9       -3.710884     -3.710886   1.000000   1.000000
   10       -3.116376     -3.116377   1.000000   1.000000
   11       -2.430873     -2.430887   1.000000   1.000000
   12       -2.393712     -2.393725   1.000000   1.000000
   13       -1.756568     -1.756584   1.000000   1.000000
   14       -1.368485     -1.368504   1.000000   1.000000
   15        0.194653      0.194644   1.000000   1.000000
   16        0.328387      0.328371   1.000000   1.000000
   17        1.286472      1.286453   1.000000   1.000000
   18        2.019550      2.019525   1.000000   1.000000
   19        5.111554      5.111539   0.000000   0.000000
   20        6.005415      6.005399   0.000000   0.000000
   21       10.155474     10.155665   0.000000   0.000000
   22       11.186354     11.186313   0.000000   0.000000
   23       12.444443     12.444400   0.000000   0.000000
   24       12.583816     12.583211   0.000000   0.000000
   25       13.935282     13.935788   0.000000   0.000000
   26       14.156455     14.156239   0.000000   0.000000
 
  0.1666667E+00  0.1666667E+00  0.0000000E+00  0.1041667E-01
    1      -41.882940    -41.882777   1.000000   1.000000
    2      -41.880509    -41.880346   1.000000   1.000000
    3      -41.434084    -41.433949   1.000000   1.000000
    4      -41.432280    -41.432145   1.000000   1.000000
    5      -18.018933    -18.018952   1.000000   1.000000
    6      -17.881913    -17.881932   1.000000   1.000000
    7      -12.965964    -12.965978   1.000000   1.000000
    8      -12.446347    -12.446366   1.000000   1.000000
    9       -3.877821     -3.877818   1.000000   1.000000
   10       -2.546776     -2.546781   1.000000   1.000000
   11       -2.104777     -2.104792   1.000000   1.000000
   12       -2.029700     -2.029717   1.000000   1.000000
   13       -1.332338     -1.332358   1.000000   1.000000
   14       -1.323137     -1.323153   1.000000   1.000000
   15        0.773387      0.773370   1.000000   1.000000
   16        1.021366      1.021352   1.000000   1.000000
   17        1.585794      1.585773   1.000000   1.000000
   18        2.007436      2.007411   1.000000   1.000000
   19        4.760101      4.760090   0.000000   0.000000
   20        6.247839      6.247820   0.000000   0.000000
   21        9.908368      9.908317   0.000000   0.000000
   22       10.100362     10.100345   0.000000   0.000000
   23       11.937552     11.937691   0.000000   0.000000
   24       12.585565     12.585858   0.000000   0.000000
   25       13.030155     13.030128   0.000000   0.000000
   26       14.207766     14.205828   0.000000   0.000000
 
  0.2500000E+00  0.1666667E+00  0.0000000E+00  0.2083333E-01
    1      -41.879811    -41.879648   1.000000   1.000000
    2      -41.878315    -41.878152   1.000000   1.000000
    3      -41.430358    -41.430224   1.000000   1.000000
    4      -41.429419    -41.429285   1.000000   1.000000
    5      -17.972719    -17.972739   1.000000   1.000000
    6      -17.864251    -17.864272   1.000000   1.000000
    7      -12.838351    -12.838366   1.000000   1.000000
    8      -12.426289    -12.426308   1.000000   1.000000
    9       -3.775289     -3.775287   1.000000   1.000000
   10       -2.779135     -2.779140   1.000000   1.000000
   11       -2.357492     -2.357507   1.000000   1.000000
   12       -2.294866     -2.294882   1.000000   1.000000
   13       -1.557174     -1.557191   1.000000   1.000000
   14       -1.406384     -1.406400   1.000000   1.000000
   15        0.481620      0.481605   1.000000   1.000000
   16        0.714225      0.714213   1.000000   1.000000
   17        1.344648      1.344629   1.000000   1.000000
   18        1.869341      1.869316   1.000000   1.000000
   19        4.976572      4.976559   0.000000   0.000000
   20        6.126399      6.126381   0.000000   0.000000
   21       10.429660     10.429641   0.000000   0.000000
   22       10.779232     10.779218   0.000000   0.000000
   23       12.320471     12.320419   0.000000   0.000000
   24       12.453089     12.454169   0.000000   0.000000
   25       13.731242     13.725918   0.000000   0.000000
   26       13.856195     13.857287   0.000000   0.000000
 
  0.3333333E+00  0.1666667E+00  0.0000000E+00  0.2083333E-01
    1      -41.877553    -41.877390   1.000000   1.000000
    2      -41.876711    -41.876547   1.000000   1.000000
    3      -41.427713    -41.427579   1.000000   1.000000
    4      -41.427275    -41.427141   1.000000   1.000000
    5      -17.933450    -17.933470   1.000000   1.000000
    6      -17.855938    -17.855960   1.000000   1.000000
    7      -12.723413    -12.723429   1.000000   1.000000
    8      -12.431138    -12.431156   1.000000   1.000000
    9       -3.663712     -3.663713   1.000000   1.000000
   10       -3.033567     -3.033570   1.000000   1.000000
   11       -2.530199     -2.530214   1.000000   1.000000
   12       -2.442114     -2.442131   1.000000   1.000000
   13       -1.708134     -1.708148   1.000000   1.000000
   14       -1.468653     -1.468669   1.000000   1.000000
   15        0.306568      0.306556   1.000000   1.000000
   16        0.478863      0.478849   1.000000   1.000000
   17        1.158433      1.158416   1.000000   1.000000
   18        1.774908      1.774885   1.000000   1.000000
   19        5.174074      5.174059   0.000000   0.000000
   20        5.989813      5.989796   0.000000   0.000000
   21       10.670472     10.670443   0.000000   0.000000
   22       11.446447     11.446379   0.000000   0.000000
   23       12.475102     12.474997   0.000000   0.000000
   24       12.611841     12.611813   0.000000   0.000000
   25       13.652441     13.653504   0.000000   0.000000
   26       14.016585     14.021487   0.000000   0.000000
 
  0.4166667E+00  0.1666667E+00  0.0000000E+00  0.1041667E-01
    1      -41.876737    -41.876574   1.000000   1.000000
    2      -41.876099    -41.875935   1.000000   1.000000
    3      -41.426793    -41.426659   1.000000   1.000000
    4      -41.426415    -41.426281   1.000000   1.000000
    5      -17.916619    -17.916640   1.000000   1.000000
    6      -17.855098    -17.855119   1.000000   1.000000
    7      -12.670927    -12.670944   1.000000   1.000000
    8      -12.442827    -12.442845   1.000000   1.000000
    9       -3.601321     -3.601324   1.000000   1.000000
   10       -3.152460     -3.152462   1.000000   1.000000
   11       -2.579782     -2.579797   1.000000   1.000000
   12       -2.505813     -2.505832   1.000000   1.000000
   13       -1.758161     -1.758174   1.000000   1.000000
   14       -1.491561     -1.491577   1.000000   1.000000
   15        0.261139      0.261130   1.000000   1.000000
   16        0.377050      0.377033   1.000000   1.000000
   17        1.091697      1.091681   1.000000   1.000000
   18        1.740719      1.740696   1.000000   1.000000
   19        5.267149      5.267133   0.000000   0.000000
   20        5.917469      5.917452   0.000000   0.000000
   21       10.723679     10.723663   0.000000   0.000000
   22       11.725826     11.725807   0.000000   0.000000
   23       12.536812     12.536529   0.000000   0.000000
   24       12.726095     12.726071   0.000000   0.000000
   25       13.571243     13.571432   0.000000   0.000000
   26       14.016243     14.015454   0.000000   0.000000
 
  0.2500000E+00  0.2500000E+00  0.0000000E+00  0.1041667E-01
    1      -41.877574    -41.877411   1.000000   1.000000
    2      -41.876685    -41.876521   1.000000   1.000000
    3      -41.427694    -41.427560   1.000000   1.000000
    4      -41.427262    -41.427128   1.000000   1.000000
    5      -17.931752    -17.931773   1.000000   1.000000
    6      -17.857112    -17.857133   1.000000   1.000000
    7      -12.720128    -12.720144   1.000000   1.000000
    8      -12.434916    -12.434934   1.000000   1.000000
    9       -3.639346     -3.639345   1.000000   1.000000
   10       -2.965554     -2.965558   1.000000   1.000000
   11       -2.626483     -2.626499   1.000000   1.000000
   12       -2.448207     -2.448226   1.000000   1.000000
   13       -1.651297     -1.651312   1.000000   1.000000
   14       -1.549754     -1.549767   1.000000   1.000000
   15        0.390914      0.390899   1.000000   1.000000
   16        0.550703      0.550691   1.000000   1.000000
   17        1.102550      1.102533   1.000000   1.000000
   18        1.621268      1.621244   1.000000   1.000000
   19        5.204857      5.204841   0.000000   0.000000
   20        5.981126      5.981109   0.000000   0.000000
   21       11.151904     11.151847   0.000000   0.000000
   22       11.384609     11.384573   0.000000   0.000000
   23       12.420088     12.420382   0.000000   0.000000
   24       12.705037     12.704959   0.000000   0.000000
   25       13.508729     13.508608   0.000000   0.000000
   26       13.949252     13.950321   0.000000   0.000000
 
  0.3333333E+00  0.2500000E+00  0.0000000E+00  0.2083333E-01
    1      -41.876277    -41.876113   1.000000   1.000000
    2      -41.875804    -41.875640   1.000000   1.000000
    3      -41.426180    -41.426045   1.000000   1.000000
    4      -41.426045    -41.425910   1.000000   1.000000
    5      -17.900907    -17.900928   1.000000   1.000000
    6      -17.859783    -17.859804   1.000000   1.000000
    7      -12.623412    -12.623429   1.000000   1.000000
    8      -12.467903    -12.467920   1.000000   1.000000
    9       -3.490220     -3.490222   1.000000   1.000000
   10       -3.140212     -3.140214   1.000000   1.000000
   11       -2.764121     -2.764137   1.000000   1.000000
   12       -2.562179     -2.562201   1.000000   1.000000
   13       -1.724088     -1.724099   1.000000   1.000000
   14       -1.606250     -1.606262   1.000000   1.000000
   15        0.380156      0.380143   1.000000   1.000000
   16        0.480995      0.480980   1.000000   1.000000
   17        0.908411      0.908397   1.000000   1.000000
   18        1.468904      1.468881   1.000000   1.000000
   19        5.402941      5.402925   0.000000   0.000000
   20        5.828496      5.828479   0.000000   0.000000
   21       11.442195     11.442149   0.000000   0.000000
   22       12.094253     12.094287   0.000000   0.000000
   23       12.469425     12.469710   0.000000   0.000000
   24       13.011040     13.011002   0.000000   0.000000
   25       13.203268     13.202812   0.000000   0.000000
   26       13.788079     13.788607   0.000000   0.000000
 
  0.3333333E+00  0.3333333E+00  0.0000000E+00  0.3472222E-02
    1      -41.875779    -41.875616   1.000000   1.000000
    2      -41.875383    -41.875219   1.000000   1.000000
    3      -41.425532    -41.425397   1.000000   1.000000
    4      -41.425532    -41.425397   1.000000   1.000000
    5      -17.874846    -17.874868   1.000000   1.000000
    6      -17.874844    -17.874866   1.000000   1.000000
    7      -12.533840    -12.533858   1.000000   1.000000
    8      -12.533833    -12.533851   1.000000   1.000000
    9       -3.290438     -3.290439   1.000000   1.000000
   10       -3.290417     -3.290419   1.000000   1.000000
   11       -2.865953     -2.865969   1.000000   1.000000
   12       -2.618939     -2.618963   1.000000   1.000000
   13       -1.692413     -1.692423   1.000000   1.000000
   14       -1.692396     -1.692406   1.000000   1.000000
   15        0.489229      0.489212   1.000000   1.000000
   16        0.489246      0.489231   1.000000   1.000000
   17        0.759905      0.759895   1.000000   1.000000
   18        1.321123      1.321100   1.000000   1.000000
   19        5.628225      5.628210   0.000000   0.000000
   20        5.628253      5.628236   0.000000   0.000000
   21       11.888460     11.888381   0.000000   0.000000
   22       12.512554     12.513044   0.000000   0.000000
   23       12.634290     12.633722   0.000000   0.000000
   24       12.635404     12.633934   0.000000   0.000000
   25       13.416411     13.416341   0.000000   0.000000