       N       E                     dE             d eps       ncg     rms          rms(c)
DAV:   1     0.260134430040E+03    0.26013E+03   -0.17602E+04  5928   0.147E+03
DAV:   2    -0.146282034514E+02   -0.27476E+03   -0.26556E+03  7192   0.369E+02
DAV:   3    -0.374741919088E+02   -0.22846E+02   -0.22694E+02  9610   0.902E+01
DAV:   4    -0.392513384074E+02   -0.17771E+01   -0.17716E+01  8704   0.231E+01
DAV:   5    -0.393082366387E+02   -0.56898E-01   -0.56893E-01  8318   0.342E+00    0.178E+01
RMM:   6    -0.381924008376E+02    0.11158E+01   -0.50434E+00  6539   0.120E+01    0.786E+00
RMM:   7    -0.388097130382E+02   -0.61731E+00   -0.82209E-01  7400   0.573E+00    0.390E+00
RMM:   8    -0.388938885437E+02   -0.84176E-01   -0.38030E-01  8718   0.357E+00    0.156E+00
RMM:   9    -0.389065193497E+02   -0.12631E-01   -0.13399E-01  9110   0.233E+00    0.387E-01
RMM:  10    -0.389177335029E+02   -0.11214E-01   -0.70908E-02 10181   0.133E+00    0.195E-01
RMM:  11    -0.389220743762E+02   -0.43409E-02   -0.27257E-02 10447   0.786E-01    0.139E-01
RMM:  12    -0.389237265414E+02   -0.16522E-02   -0.12306E-02 10866   0.475E-01    0.105E-01
RMM:  13    -0.389241796026E+02   -0.45306E-03   -0.42912E-03 10205   0.344E-01    0.530E-02
RMM:  14    -0.389245572248E+02   -0.37762E-03   -0.24686E-03 10391   0.245E-01    0.133E-02
RMM:  15    -0.389246952035E+02   -0.13798E-03   -0.12435E-03  9759   0.144E-01    0.108E-02
RMM:  16    -0.389247488696E+02   -0.53666E-04   -0.50258E-04  9368   0.941E-02    0.988E-03
RMM:  17    -0.389247661559E+02   -0.17286E-04   -0.19819E-04  9149   0.654E-02    0.439E-03
RMM:  18    -0.389247746130E+02   -0.84571E-05   -0.81641E-05  7569   0.455E-02
   1 F= -.38924775E+02 E0= -.38924775E+02  d E =0.000000E+00  mag=    -0.0000
