 running on    8 total cores
 distrk:  each k-point on    8 cores,    1 groups
 distr:  one band on    1 cores,    8 groups
 using from now: INCAR     
 vasp.6.1.2 22Jul20 (build Mar 20 2021 11:25:07) complex                        
  
 POSCAR found type information on POSCAR LiN 
 POSCAR found :  2 types and       4 ions
 scaLAPACK will be used
 -----------------------------------------------------------------------------
|                                                                             |
|           W    W    AA    RRRRR   N    N  II  N    N   GGGG   !!!           |
|           W    W   A  A   R    R  NN   N  II  NN   N  G    G  !!!           |
|           W    W  A    A  R    R  N N  N  II  N N  N  G       !!!           |
|           W WW W  AAAAAA  RRRRR   N  N N  II  N  N N  G  GGG   !            |
|           WW  WW  A    A  R   R   N   NN  II  N   NN  G    G                |
|           W    W  A    A  R    R  N    N  II  N    N   GGGG   !!!           |
|                                                                             |
|     The value NCORE = 6 specified in the INCAR file was overwritten,        |
|     because it was not compatible with the 8 processes available:           |
|     NCORE = 1                                                               |
|     was used instead, please check that this makes sense for your           |
|     machine.                                                                |
|                                                                             |
 -----------------------------------------------------------------------------

 -----------------------------------------------------------------------------
|                                                                             |
|           W    W    AA    RRRRR   N    N  II  N    N   GGGG   !!!           |
|           W    W   A  A   R    R  NN   N  II  NN   N  G    G  !!!           |
|           W    W  A    A  R    R  N N  N  II  N N  N  G       !!!           |
|           W WW W  AAAAAA  RRRRR   N  N N  II  N  N N  G  GGG   !            |
|           WW  WW  A    A  R   R   N   NN  II  N   NN  G    G                |
|           W    W  A    A  R    R  N    N  II  N    N   GGGG   !!!           |
|                                                                             |
|     For optimal performance we recommend to set                             |
|       NCORE = 4 - approx SQRT(number of cores).                             |
|     NCORE specifies how many cores store one orbital (NPAR=cpu/NCORE).      |
|     This setting can greatly improve the performance of VASP for DFT.       |
|     The default, NCORE=1 might be grossly inefficient on modern             |
|     multi-core architectures or massively parallel machines. Do your        |
|     own testing!!!!                                                         |
|     Unfortunately you need to use the default for GW and RPA                |
|     calculations (for HF NCORE is supported but not extensively tested      |
|     yet).                                                                   |
|                                                                             |
 -----------------------------------------------------------------------------

 -----------------------------------------------------------------------------
|                                                                             |
|               ----> ADVICE to this user running VASP <----                  |
|                                                                             |
|     You have a (more or less) 'small supercell' and for smaller cells       |
|     it is recommended to use the reciprocal-space projection scheme!        |
|     The real-space optimization is not efficient for small cells and it     |
|     is also less accurate ...                                               |
|     Therefore, set LREAL=.FALSE. in the INCAR file.                         |
|                                                                             |
 -----------------------------------------------------------------------------

 LDA part: xc-table for Pade appr. of Perdew
 generate k-points for:   11   11    7
 POSCAR, INCAR and KPOINTS ok, starting setup
 FFT: planning ...
 WAVECAR not read
 entering main loop
       N       E                     dE             d eps       ncg     rms          rms(c)
DAV:   1     0.806333974783E+02    0.80633E+02   -0.81928E+03 14976   0.103E+03
DAV:   2    -0.230424318287E+02   -0.10368E+03   -0.99882E+02 20512   0.241E+02
DAV:   3    -0.282214976315E+02   -0.51791E+01   -0.51593E+01 21464   0.566E+01
DAV:   4    -0.283824197221E+02   -0.16092E+00   -0.16087E+00 21072   0.866E+00
DAV:   5    -0.283840120117E+02   -0.15923E-02   -0.15923E-02 20408   0.848E-01    0.124E+01
RMM:   6    -0.274343237556E+02    0.94969E+00   -0.30422E+00 16564   0.106E+01    0.567E+00
RMM:   7    -0.273900070987E+02    0.44317E-01   -0.39527E-01 18269   0.569E+00    0.316E+00
RMM:   8    -0.273644866476E+02    0.25520E-01   -0.19924E-01 19301   0.326E+00    0.155E+00
RMM:   9    -0.273757187847E+02   -0.11232E-01   -0.38752E-02 21187   0.163E+00    0.605E-01
RMM:  10    -0.273768200964E+02   -0.11013E-02   -0.10321E-02 22697   0.756E-01    0.145E-01
RMM:  11    -0.273772662500E+02   -0.44615E-03   -0.23258E-03 23075   0.388E-01    0.762E-02
RMM:  12    -0.273775527975E+02   -0.28655E-03   -0.10820E-03 24813   0.230E-01    0.443E-02
RMM:  13    -0.273776069678E+02   -0.54170E-04   -0.37623E-04 24409   0.133E-01    0.153E-02
RMM:  14    -0.273776435434E+02   -0.36576E-04   -0.19511E-04 23666   0.924E-02    0.748E-03
RMM:  15    -0.273776540180E+02   -0.10475E-04   -0.85619E-05 20919   0.562E-02    0.387E-03
RMM:  16    -0.273776594914E+02   -0.54733E-05   -0.36893E-05 18313   0.396E-02
   1 F= -.27377659E+02 E0= -.27377659E+02  d E =0.000000E+00  mag=     0.0000
