       N       E                     dE             d eps       ncg     rms          rms(c)
DAV:   1     0.600169342528E+03    0.60017E+03   -0.36169E+04 10752   0.142E+03
DAV:   2    -0.440086492489E+02   -0.64418E+03   -0.60773E+03 12336   0.370E+02
DAV:   3    -0.103027791142E+03   -0.59019E+02   -0.58668E+02 14960   0.105E+02
DAV:   4    -0.108397408626E+03   -0.53696E+01   -0.53367E+01 18416   0.264E+01
DAV:   5    -0.108875531984E+03   -0.47812E+00   -0.47796E+00 15080   0.536E+00    0.355E+01
RMM:   6    -0.991537105540E+02    0.97218E+01   -0.38457E+01 11700   0.217E+01    0.138E+01
RMM:   7    -0.100232194605E+03   -0.10785E+01   -0.36207E+00 15423   0.732E+00    0.746E+00
RMM:   8    -0.100418318077E+03   -0.18612E+00   -0.85285E-01 17107   0.384E+00    0.381E+00
RMM:   9    -0.100492521183E+03   -0.74203E-01   -0.30646E-01 17292   0.279E+00    0.752E-01
RMM:  10    -0.100519224174E+03   -0.26703E-01   -0.21612E-01 19820   0.158E+00    0.348E-01
RMM:  11    -0.100533307883E+03   -0.14084E-01   -0.95552E-02 20325   0.976E-01    0.266E-01
RMM:  12    -0.100539237754E+03   -0.59299E-02   -0.38317E-02 20704   0.608E-01    0.159E-01
RMM:  13    -0.100541345091E+03   -0.21073E-02   -0.14864E-02 20232   0.405E-01    0.709E-02
RMM:  14    -0.100542274528E+03   -0.92944E-03   -0.74696E-03 20657   0.280E-01    0.289E-02
RMM:  15    -0.100542631510E+03   -0.35698E-03   -0.32159E-03 20267   0.174E-01    0.241E-02
RMM:  16    -0.100542791094E+03   -0.15958E-03   -0.14459E-03 19879   0.114E-01    0.151E-02
RMM:  17    -0.100542853885E+03   -0.62791E-04   -0.56841E-04 19409   0.771E-02    0.993E-03
RMM:  18    -0.100542882941E+03   -0.29056E-04   -0.27507E-04 18687   0.517E-02    0.907E-03
RMM:  19    -0.100542891436E+03   -0.84950E-05   -0.90589E-05 16416   0.359E-02
   1 F= -.10054289E+03 E0= -.10054289E+03  d E =0.000000E+00  mag=    -0.0001
