 running on   12 total cores
 distrk:  each k-point on   12 cores,    1 groups
 distr:  one band on    6 cores,    2 groups
 using from now: INCAR     
 vasp.6.1.2 22Jul20 (build Mar 20 2021 11:25:07) complex                        
  
 POSCAR found type information on POSCAR P N 
 POSCAR found :  2 types and      16 ions
 scaLAPACK will be used
 LDA part: xc-table for Pade appr. of Perdew
 generate k-points for:    8    7    4
 POSCAR, INCAR and KPOINTS ok, starting setup
 FFT: planning ...
 WAVECAR not read
 entering main loop
       N       E                     dE             d eps       ncg     rms          rms(c)
DAV:   1     0.478583931374E+03    0.47858E+03   -0.40870E+04 24632   0.137E+03
DAV:   2    -0.100726735403E+03   -0.57931E+03   -0.55509E+03 31304   0.314E+02
DAV:   3    -0.136451431823E+03   -0.35725E+02   -0.35443E+02 30456   0.839E+01
DAV:   4    -0.137100782846E+03   -0.64935E+00   -0.64691E+00 31864   0.118E+01
DAV:   5    -0.137117439443E+03   -0.16657E-01   -0.16636E-01 30060   0.177E+00    0.513E+01
DAV:   6    -0.115533032146E+03    0.21584E+02   -0.68147E+01 28608   0.334E+01    0.262E+01
DAV:   7    -0.117344591077E+03   -0.18116E+01   -0.11818E+01 29912   0.129E+01    0.822E+00
DAV:   8    -0.117279037322E+03    0.65554E-01   -0.72816E-01 28898   0.389E+00    0.513E+00
DAV:   9    -0.117279089526E+03   -0.52204E-04   -0.78964E-02 30114   0.140E+00    0.265E+00
DAV:  10    -0.117277998002E+03    0.10915E-02   -0.30801E-02 28522   0.872E-01    0.522E-01
DAV:  11    -0.117281137710E+03   -0.31397E-02   -0.58389E-03 27912   0.428E-01    0.270E-01
DAV:  12    -0.117281729535E+03   -0.59183E-03   -0.74746E-04 31002   0.149E-01    0.150E-01
DAV:  13    -0.117282038352E+03   -0.30882E-03   -0.26069E-04 28260   0.820E-02    0.638E-02
DAV:  14    -0.117282125747E+03   -0.87395E-04   -0.60377E-05 28978   0.388E-02    0.208E-02
DAV:  15    -0.117282142952E+03   -0.17205E-04   -0.10485E-05 19602   0.174E-02    0.111E-02
DAV:  16    -0.117282148349E+03   -0.53973E-05   -0.63737E-06 19304   0.116E-02
   1 F= -.11728215E+03 E0= -.11728215E+03  d E =0.000000E+00  mag=    -0.0005
