 running on   12 total cores
 distrk:  each k-point on   12 cores,    1 groups
 distr:  one band on    6 cores,    2 groups
 using from now: INCAR     
 vasp.6.1.2 22Jul20 (build Mar 20 2021 11:25:07) complex                        
  
 POSCAR found type information on POSCAR LiP N 
 POSCAR found :  3 types and       8 ions
 scaLAPACK will be used
 -----------------------------------------------------------------------------
|                                                                             |
|               ----> ADVICE to this user running VASP <----                  |
|                                                                             |
|     You have a (more or less) 'small supercell' and for smaller cells       |
|     it is recommended to use the reciprocal-space projection scheme!        |
|     The real-space optimization is not efficient for small cells and it     |
|     is also less accurate ...                                               |
|     Therefore, set LREAL=.FALSE. in the INCAR file.                         |
|                                                                             |
 -----------------------------------------------------------------------------

 LDA part: xc-table for Pade appr. of Perdew
 generate k-points for:    8    8   10
 POSCAR, INCAR and KPOINTS ok, starting setup
 FFT: planning ...
 WAVECAR not read
 entering main loop
       N       E                     dE             d eps       ncg     rms          rms(c)
DAV:   1     0.207973816097E+03    0.20797E+03   -0.17568E+04 33696   0.137E+03
DAV:   2    -0.408483464237E+02   -0.24882E+03   -0.24067E+03 41532   0.327E+02
DAV:   3    -0.589662152409E+02   -0.18118E+02   -0.18032E+02 55804   0.810E+01
DAV:   4    -0.600215628047E+02   -0.10553E+01   -0.10523E+01 50464   0.161E+01
DAV:   5    -0.600758073102E+02   -0.54245E-01   -0.54241E-01 50694   0.280E+00    0.267E+01
RMM:   6    -0.540195589459E+02    0.60562E+01   -0.20279E+01 37029   0.218E+01    0.116E+01
RMM:   7    -0.543566325896E+02   -0.33707E+00   -0.52447E+00 49757   0.127E+01    0.585E+00
RMM:   8    -0.544529538313E+02   -0.96321E-01   -0.63134E-01 54707   0.534E+00    0.322E+00
RMM:   9    -0.544586075626E+02   -0.56537E-02   -0.24546E-01 52202   0.339E+00    0.102E+00
RMM:  10    -0.544685868015E+02   -0.99792E-02   -0.11272E-01 59620   0.200E+00    0.373E-01
RMM:  11    -0.544719036281E+02   -0.33168E-02   -0.60605E-02 61894   0.115E+00    0.221E-01
RMM:  12    -0.544749039825E+02   -0.30004E-02   -0.25632E-02 65125   0.728E-01    0.181E-01
RMM:  13    -0.544760434361E+02   -0.11395E-02   -0.98419E-03 64450   0.441E-01    0.600E-02
RMM:  14    -0.544764812736E+02   -0.43784E-03   -0.36695E-03 63929   0.292E-01    0.459E-02
RMM:  15    -0.544766706997E+02   -0.18943E-03   -0.16697E-03 63286   0.191E-01    0.291E-02
RMM:  16    -0.544767370858E+02   -0.66386E-04   -0.65763E-04 62671   0.126E-01    0.164E-02
RMM:  17    -0.544767713335E+02   -0.34248E-04   -0.34017E-04 61191   0.898E-02    0.605E-03
RMM:  18    -0.544767883779E+02   -0.17044E-04   -0.13732E-04 53085   0.628E-02    0.487E-03
RMM:  19    -0.544767914259E+02   -0.30480E-05   -0.41730E-05 43159   0.485E-02
   1 F= -.54476791E+02 E0= -.54476791E+02  d E =0.000000E+00  mag=     0.0000
