 running on    8 total cores
 distrk:  each k-point on    8 cores,    1 groups
 distr:  one band on    4 cores,    2 groups
 using from now: INCAR     
 vasp.6.1.2 22Jul20 (build Mar 20 2021 11:25:07) complex                        
  
 POSCAR found type information on POSCAR LiP 
 POSCAR found :  2 types and      40 ions
 scaLAPACK will be used
 LDA part: xc-table for Pade appr. of Perdew
 generate k-points for:    4    3    3
 POSCAR, INCAR and KPOINTS ok, starting setup
 FFT: planning ...
 WAVECAR not read
 entering main loop
       N       E                     dE             d eps       ncg     rms          rms(c)
DAV:   1     0.106894137463E+04    0.10689E+04   -0.68663E+04  6832   0.133E+03
DAV:   2    -0.250161877187E+02   -0.10940E+04   -0.10086E+04  7976   0.289E+02
DAV:   3    -0.164090857402E+03   -0.13907E+03   -0.13714E+03  9262   0.978E+01
DAV:   4    -0.180226716476E+03   -0.16136E+02   -0.16029E+02 12344   0.292E+01
DAV:   5    -0.183382909795E+03   -0.31562E+01   -0.31544E+01 11216   0.863E+00    0.343E+01
DAV:   6    -0.183363460939E+03    0.19449E-01   -0.99326E+00  8952   0.734E+00    0.188E+01
DAV:   7    -0.185489370554E+03   -0.21259E+01   -0.35094E+00  8592   0.450E+00    0.114E+01
DAV:   8    -0.186358016406E+03   -0.86865E+00   -0.14996E+00  8064   0.321E+00    0.257E+00
DAV:   9    -0.186439322448E+03   -0.81306E-01   -0.23170E-01  9760   0.140E+00    0.124E+00
DAV:  10    -0.186452689853E+03   -0.13367E-01   -0.40767E-02  8920   0.527E-01    0.509E-01
DAV:  11    -0.186456657257E+03   -0.39674E-02   -0.69873E-03  8272   0.260E-01    0.241E-01
DAV:  12    -0.186458702375E+03   -0.20451E-02   -0.26303E-03  9072   0.146E-01    0.106E-01
DAV:  13    -0.186459560124E+03   -0.85775E-03   -0.66178E-04  8792   0.706E-02    0.472E-02
DAV:  14    -0.186459871454E+03   -0.31133E-03   -0.26411E-04  7992   0.421E-02    0.282E-02
DAV:  15    -0.186459984975E+03   -0.11352E-03   -0.12272E-04  7408   0.283E-02    0.136E-02
DAV:  16    -0.186460006456E+03   -0.21481E-04   -0.23395E-05  6864   0.136E-02    0.692E-03
DAV:  17    -0.186460011341E+03   -0.48847E-05   -0.60161E-06  5160   0.773E-03
   1 F= -.18646001E+03 E0= -.18646001E+03  d E =0.000000E+00  mag=    -0.0002
