       N       E                     dE             d eps       ncg     rms          rms(c)
DAV:   1     0.466408056061E+03    0.46641E+03   -0.39787E+04 12960   0.135E+03
DAV:   2    -0.984684444149E+02   -0.56488E+03   -0.54126E+03 16512   0.303E+02
DAV:   3    -0.136574307301E+03   -0.38106E+02   -0.37774E+02 16080   0.841E+01
DAV:   4    -0.137365394617E+03   -0.79109E+00   -0.78773E+00 16944   0.125E+01
DAV:   5    -0.137386118679E+03   -0.20724E-01   -0.20695E-01 15900   0.194E+00    0.443E+01
DAV:   6    -0.117940685159E+03    0.19445E+02   -0.67617E+01 15138   0.318E+01    0.219E+01
DAV:   7    -0.120416639946E+03   -0.24760E+01   -0.10042E+01 15770   0.115E+01    0.724E+00
DAV:   8    -0.120582483340E+03   -0.16584E+00   -0.63750E-01 15650   0.378E+00    0.437E+00
DAV:   9    -0.120588868149E+03   -0.63848E-02   -0.71158E-02 15614   0.141E+00    0.211E+00
DAV:  10    -0.120587333101E+03    0.15350E-02   -0.25234E-02 16944   0.835E-01    0.459E-01
DAV:  11    -0.120589828223E+03   -0.24951E-02   -0.54032E-03 15196   0.393E-01    0.258E-01
DAV:  12    -0.120590278413E+03   -0.45019E-03   -0.52510E-04 16992   0.128E-01    0.152E-01
DAV:  13    -0.120590537137E+03   -0.25872E-03   -0.25935E-04 15452   0.785E-02    0.591E-02
DAV:  14    -0.120590591066E+03   -0.53928E-04   -0.32611E-05 13216   0.291E-02    0.187E-02
DAV:  15    -0.120590604156E+03   -0.13090E-04   -0.11631E-05 10084   0.172E-02    0.102E-02
DAV:  16    -0.120590607741E+03   -0.35847E-05   -0.45354E-06  9208   0.944E-03
   1 F= -.12059061E+03 E0= -.12059061E+03  d E =0.000000E+00  mag=    -0.0005
