       N       E                     dE             d eps       ncg     rms          rms(c)
DAV:   1     0.462918538627E+02    0.46292E+02   -0.51561E+03  4616   0.775E+02
DAV:   2    -0.106176042833E+02   -0.56909E+02   -0.54199E+02  6328   0.196E+02
DAV:   3    -0.152458573521E+02   -0.46283E+01   -0.46019E+01  6952   0.415E+01
DAV:   4    -0.153266466665E+02   -0.80789E-01   -0.80780E-01  5376   0.657E+00
DAV:   5    -0.153276236616E+02   -0.97700E-03   -0.97699E-03  6344   0.548E-01    0.116E+01
RMM:   6    -0.142165156610E+02    0.11111E+01   -0.19920E+00  5108   0.801E+00    0.496E+00
RMM:   7    -0.143241898591E+02   -0.10767E+00   -0.56875E-02  5861   0.162E+00    0.209E+00
RMM:   8    -0.143293892193E+02   -0.51994E-02   -0.31258E-02  6342   0.143E+00    0.116E+00
RMM:   9    -0.143415062741E+02   -0.12117E-01   -0.23940E-02  6463   0.136E+00    0.238E-01
RMM:  10    -0.143421848296E+02   -0.67856E-03   -0.39799E-03  7130   0.451E-01    0.139E-01
RMM:  11    -0.143429390206E+02   -0.75419E-03   -0.33585E-03  6679   0.387E-01    0.193E-01
RMM:  12    -0.143426897088E+02    0.24931E-03   -0.83957E-04  6858   0.209E-01    0.854E-02
RMM:  13    -0.143426445194E+02    0.45189E-04   -0.44741E-04  7082   0.151E-01    0.167E-02
RMM:  14    -0.143426664334E+02   -0.21914E-04   -0.15428E-04  6618   0.790E-02    0.175E-02
RMM:  15    -0.143426749619E+02   -0.85285E-05   -0.60069E-05  6285   0.502E-02
   1 F= -.14342675E+02 E0= -.14342675E+02  d E =0.000000E+00  mag=     0.0003
