   96   96    1    2
  0.8658486E+01  0.9416329E-09  0.9416329E-09  0.9416329E-09  0.5000000E-15
  1.000000000000000E-004
  CAR 
 unknown system                          
    368      8    264
 
  0.0000000E+00  0.0000000E+00  0.0000000E+00  0.3703704E-01
    1      -40.859260    -40.859262   1.000000   1.000000
    2      -40.857917    -40.857919   1.000000   1.000000
    3      -40.854156    -40.854158   1.000000   1.000000
    4      -40.853092    -40.853094   1.000000   1.000000
    5      -40.820618    -40.820618   1.000000   1.000000
    6      -40.820415    -40.820416   1.000000   1.000000
    7      -40.814782    -40.814782   1.000000   1.000000
    8      -40.814764    -40.814764   1.000000   1.000000
    9      -40.695060    -40.695059   1.000000   1.000000
   10      -40.694949    -40.694948   1.000000   1.000000
   11      -40.685070    -40.685069   1.000000   1.000000
   12      -40.684695    -40.684693   1.000000   1.000000
   13      -40.619873    -40.619872   1.000000   1.000000
   14      -40.619742    -40.619741   1.000000   1.000000
   15      -40.554206    -40.554205   1.000000   1.000000
   16      -40.552698    -40.552697   1.000000   1.000000
   17      -40.543297    -40.543297   1.000000   1.000000
   18      -40.543018    -40.543017   1.000000   1.000000
   19      -40.536816    -40.536815   1.000000   1.000000
   20      -40.530244    -40.530243   1.000000   1.000000
   21      -40.524132    -40.524131   1.000000   1.000000
   22      -40.520029    -40.520028   1.000000   1.000000
   23      -40.513240    -40.513238   1.000000   1.000000
   24      -40.511392    -40.511391   1.000000   1.000000
   25      -40.500241    -40.500239   1.000000   1.000000
   26      -40.495457    -40.495455   1.000000   1.000000
   27      -40.481788    -40.481785   1.000000   1.000000
   28      -40.481036    -40.481033   1.000000   1.000000
   29      -40.474670    -40.474669   1.000000   1.000000
   30      -40.474548    -40.474546   1.000000   1.000000
   31      -40.462523    -40.462521   1.000000   1.000000
   32      -40.458632    -40.458630   1.000000   1.000000
   33      -40.450228    -40.450228   1.000000   1.000000
   34      -40.449272    -40.449271   1.000000   1.000000
   35      -40.425663    -40.425662   1.000000   1.000000
   36      -40.424617    -40.424616   1.000000   1.000000
   37      -40.423831    -40.423831   1.000000   1.000000
   38      -40.423115    -40.423114   1.000000   1.000000
   39      -40.363629    -40.363629   1.000000   1.000000
   40      -40.363533    -40.363533   1.000000   1.000000
   41      -40.329888    -40.329887   1.000000   1.000000
   42      -40.329825    -40.329823   1.000000   1.000000
   43      -40.318945    -40.318946   1.000000   1.000000
   44      -40.317880    -40.317881   1.000000   1.000000
   45      -40.277344    -40.277345   1.000000   1.000000
   46      -40.277323    -40.277325   1.000000   1.000000
   47      -40.274070    -40.274071   1.000000   1.000000
   48      -40.272222    -40.272224   1.000000   1.000000
   49      -40.272111    -40.272112   1.000000   1.000000
   50      -40.270357    -40.270358   1.000000   1.000000
   51      -39.902992    -39.902986   1.000000   1.000000
   52      -39.902827    -39.902822   1.000000   1.000000
   53      -39.882112    -39.882108   1.000000   1.000000
   54      -39.876725    -39.876721   1.000000   1.000000
   55      -39.869361    -39.869356   1.000000   1.000000
   56      -39.869346    -39.869341   1.000000   1.000000
   57      -12.854646    -12.854642   1.000000   1.000000
   58      -12.849857    -12.849852   1.000000   1.000000
   59      -12.724043    -12.724036   1.000000   1.000000
   60      -12.720603    -12.720597   1.000000   1.000000
   61      -12.716809    -12.716803   1.000000   1.000000
   62      -12.714562    -12.714557   1.000000   1.000000
   63      -12.705058    -12.705053   1.000000   1.000000
   64      -12.703816    -12.703810   1.000000   1.000000
   65       -9.672005     -9.671994   1.000000   1.000000
   66       -9.658246     -9.658240   1.000000   1.000000
   67       -9.647056     -9.647051   1.000000   1.000000
   68       -9.633421     -9.633409   1.000000   1.000000
   69       -9.559668     -9.559660   1.000000   1.000000
   70       -9.554461     -9.554453   1.000000   1.000000
   71       -9.550320     -9.550312   1.000000   1.000000
   72       -9.544815     -9.544807   1.000000   1.000000
   73       -9.534430     -9.534423   1.000000   1.000000
   74       -9.486951     -9.486945   1.000000   1.000000
   75       -9.441392     -9.441384   1.000000   1.000000
   76       -9.434606     -9.434599   1.000000   1.000000
   77       -9.430756     -9.430748   1.000000   1.000000
   78       -9.423833     -9.423825   1.000000   1.000000
   79       -9.369701     -9.369695   1.000000   1.000000
   80       -9.353956     -9.353949   1.000000   1.000000
   81       -9.339139     -9.339129   1.000000   1.000000
   82       -9.304956     -9.304946   1.000000   1.000000
   83       -9.303498     -9.303488   1.000000   1.000000
   84       -9.277475     -9.277465   1.000000   1.000000
   85       -9.271240     -9.271231   1.000000   1.000000
   86       -9.259560     -9.259552   1.000000   1.000000
   87       -9.238352     -9.238344   1.000000   1.000000
   88       -9.221094     -9.221086   1.000000   1.000000
   89       -2.997568     -2.997571   1.000000   1.000000
   90       -2.726510     -2.726512   1.000000   1.000000
   91       -2.713191     -2.713193   1.000000   1.000000
   92       -2.674441     -2.674443   1.000000   1.000000
   93       -2.665289     -2.665291   1.000000   1.000000
   94       -2.597130     -2.597131   1.000000   1.000000
   95       -2.597001     -2.597003   1.000000   1.000000
   96       -2.557242     -2.557245   1.000000   1.000000
   97       -1.166973     -1.166971   1.000000   1.000000
   98       -1.155333     -1.155331   1.000000   1.000000
   99       -1.124819     -1.124817   1.000000   1.000000
  100       -1.115941     -1.115938   1.000000   1.000000
  101       -1.088746     -1.088743   1.000000   1.000000
  102       -1.084377     -1.084375   1.000000   1.000000
  103       -0.933679     -0.933676   1.000000   1.000000
  104       -0.859328     -0.859327   1.000000   1.000000
  105       -0.818575     -0.818572   1.000000   1.000000
  106       -0.814167     -0.814164   1.000000   1.000000
  107       -0.804151     -0.804150   1.000000   1.000000
  108       -0.795973     -0.795972   1.000000   1.000000
  109       -0.756883     -0.756882   1.000000   1.000000
  110       -0.735731     -0.735728   1.000000   1.000000
  111       -0.659223     -0.659222   1.000000   1.000000
  112       -0.560194     -0.560193   1.000000   1.000000
  113       -0.477829     -0.477829   1.000000   1.000000
  114       -0.436397     -0.436396   1.000000   1.000000
  115       -0.425754     -0.425754   1.000000   1.000000
  116       -0.391759     -0.391757   1.000000   1.000000
  117       -0.382687     -0.382685   1.000000   1.000000
  118       -0.312392     -0.312392   1.000000   1.000000
  119       -0.268306     -0.268305   1.000000   1.000000
  120       -0.267470     -0.267468   1.000000   1.000000
  121        1.095198      1.095201   1.000000   1.000000
  122        1.102921      1.102925   1.000000   1.000000
  123        1.308493      1.308498   1.000000   1.000000
  124        1.309911      1.309915   1.000000   1.000000
  125        1.327360      1.327366   1.000000   1.000000
  126        1.357119      1.357125   1.000000   1.000000
  127        1.358898      1.358904   1.000000   1.000000
  128        1.407026      1.407031   1.000000   1.000000
  129        1.410467      1.410470   1.000000   1.000000
  130        1.451582      1.451585   1.000000   1.000000
  131        1.474410      1.474417   1.000000   1.000000
  132        1.480464      1.480469   1.000000   1.000000
  133        1.507085      1.507090   1.000000   1.000000
  134        1.647227      1.647234   1.000000   1.000000
  135        1.699430      1.699432   1.000000   1.000000
  136        1.732800      1.732803   1.000000   1.000000
  137        1.747042      1.747045   1.000000   1.000000
  138        1.749268      1.749274   1.000000   1.000000
  139        1.771617      1.771623   1.000000   1.000000
  140        1.878678      1.878684   1.000000   1.000000
  141        1.900068      1.900076   1.000000   1.000000
  142        1.924264      1.924270   1.000000   1.000000
  143        1.935906      1.935908   1.000000   1.000000
  144        1.963717      1.963720   1.000000   1.000000
  145        1.990625      1.990629   1.000000   1.000000
  146        2.002169      2.002174   1.000000   1.000000
  147        2.003568      2.003573   1.000000   1.000000
  148        2.030385      2.030390   1.000000   1.000000
  149        2.060288      2.060293   1.000000   1.000000
  150        2.082155      2.082160   1.000000   1.000000
  151        2.102256      2.102261   1.000000   1.000000
  152        2.267835      2.267839   1.000000   1.000000
  153        2.332027      2.332034   1.000000   1.000000
  154        2.352879      2.352883   1.000000   1.000000
  155        2.398319      2.398324   1.000000   1.000000
  156        2.409920      2.409925   1.000000   1.000000
  157        2.458987      2.458992   1.000000   1.000000
  158        2.541385      2.541388   1.000000   1.000000
  159        2.543468      2.543471   1.000000   1.000000
  160        2.575260      2.575263   1.000000   1.000000
  161        2.656060      2.656063   1.000000   1.000000
  162        2.658503      2.658507   1.000000   1.000000
  163        2.686301      2.686305   1.000000   1.000000
  164        2.711113      2.711118   1.000000   1.000000
  165        2.860398      2.860403   1.000000   1.000000
  166        2.923930      2.923934   1.000000   1.000000
  167        2.934693      2.934695   1.000000   1.000000
  168        2.940719      2.940722   1.000000   1.000000
  169        2.953501      2.953507   1.000000   1.000000
  170        3.107758      3.107764   1.000000   1.000000
  171        3.175149      3.175153   1.000000   1.000000
  172        3.183698      3.183702   1.000000   1.000000
  173        3.234293      3.234298   1.000000   1.000000
  174        3.315938      3.315942   1.000000   1.000000
  175        3.345608      3.345614   1.000000   1.000000
  176        3.380793      3.380796   1.000000   1.000000
  177        3.408098      3.408102   1.000000   1.000000
  178        3.429122      3.429128   1.000000   1.000000
  179        3.480056      3.480061   1.000000   1.000000
  180        3.486810      3.486815   1.000000   1.000000
  181        3.575563      3.575568   1.000000   1.000000
  182        3.604667      3.604674   1.000000   1.000000
  183        3.656129      3.656134   1.000000   1.000000
  184        3.687210      3.687217   1.000000   1.000000
  185        7.053109      7.053135   0.000000   0.000000
  186        7.115878      7.115891   0.000000   0.000000
  187        7.116051      7.116074   0.000000   0.000000
  188        7.623910      7.623929   0.000000   0.000000
  189        7.919601      7.919624   0.000000   0.000000
  190        8.310262      8.310278   0.000000   0.000000
  191        8.313334      8.313348   0.000000   0.000000
  192        8.398182      8.398203   0.000000   0.000000
  193        8.414790      8.414806   0.000000   0.000000
  194        8.469512      8.469537   0.000000   0.000000
  195        8.781445      8.781455   0.000000   0.000000
  196        8.884143      8.884267   0.000000   0.000000
  197        8.977664      8.977674   0.000000   0.000000
  198        9.123137      9.123150   0.000000   0.000000
  199        9.269476      9.269525   0.000000   0.000000
  200        9.273396      9.273417   0.000000   0.000000
  201        9.317866      9.317887   0.000000   0.000000
  202        9.359089      9.359105   0.000000   0.000000
  203        9.379009      9.379028   0.000000   0.000000
  204        9.393406      9.393433   0.000000   0.000000
  205        9.617282      9.617301   0.000000   0.000000
  206        9.655632      9.655644   0.000000   0.000000
  207        9.727158      9.727176   0.000000   0.000000
  208        9.755214      9.755234   0.000000   0.000000
  209        9.884578      9.884620   0.000000   0.000000
  210        9.905311      9.905357   0.000000   0.000000
  211        9.932913      9.932934   0.000000   0.000000
  212       10.033991     10.034003   0.000000   0.000000
  213       10.143567     10.143580   0.000000   0.000000
  214       10.228007     10.228037   0.000000   0.000000
  215       10.345813     10.345823   0.000000   0.000000
  216       10.389706     10.389717   0.000000   0.000000
  217       10.858948     10.858950   0.000000   0.000000
  218       10.859954     10.859958   0.000000   0.000000
  219       11.008756     11.008776   0.000000   0.000000
  220       11.037039     11.037027   0.000000   0.000000
  221       11.155886     11.155876   0.000000   0.000000
  222       11.191597     11.191627   0.000000   0.000000
  223       11.254027     11.254035   0.000000   0.000000
  224       11.293974     11.293954   0.000000   0.000000
  225       11.349467     11.349207   0.000000   0.000000
  226       11.571665     11.571695   0.000000   0.000000
  227       11.572878     11.572925   0.000000   0.000000
  228       11.574396     11.574445   0.000000   0.000000
  229       11.588521     11.588646   0.000000   0.000000
  230       11.647962     11.648045   0.000000   0.000000
  231       11.656613     11.657241   0.000000   0.000000
  232       11.728408     11.728577   0.000000   0.000000
  233       11.788611     11.788624   0.000000   0.000000
  234       11.880903     11.881041   0.000000   0.000000
  235       11.923609     11.924097   0.000000   0.000000
  236       11.940814     11.940966   0.000000   0.000000
  237       12.097942     12.098325   0.000000   0.000000
  238       12.167914     12.169840   0.000000   0.000000
  239       12.208167     12.211815   0.000000   0.000000
  240       12.262126     12.263792   0.000000   0.000000
  241       12.283342     12.298626   0.000000   0.000000
  242       12.582511     12.582522   0.000000   0.000000
  243       12.598604     12.599292   0.000000   0.000000
  244       12.785258     12.785361   0.000000   0.000000
  245       12.808141     12.827213   0.000000   0.000000
  246       12.856151     12.855628   0.000000   0.000000
  247       12.878101     12.880306   0.000000   0.000000
  248       12.971778     12.975708   0.000000   0.000000
  249       12.989644     12.986126   0.000000   0.000000
  250       12.990318     13.008516   0.000000   0.000000
  251       13.051001     13.046407   0.000000   0.000000
  252       13.088378     13.099420   0.000000   0.000000
  253       13.126305     13.122078   0.000000   0.000000
  254       13.164859     13.166973   0.000000   0.000000
  255       13.193389     13.197240   0.000000   0.000000
  256       13.226787     13.243491   0.000000   0.000000
  257       13.242784     13.330624   0.000000   0.000000
  258       13.401084     13.389298   0.000000   0.000000
  259       13.500048     13.434227   0.000000   0.000000
  260       13.502150     13.519522   0.000000   0.000000
  261       13.543936     13.544705   0.000000   0.000000
  262       13.591238     13.825255   0.000000   0.000000
  263       13.740734     13.847629   0.000000   0.000000
  264       13.987937     13.977619   0.000000   0.000000
 
  0.3333333E+00 -0.3619801E-17  0.0000000E+00  0.1481481E+00
    1      -40.858725    -40.858727   1.000000   1.000000
    2      -40.858042    -40.858045   1.000000   1.000000
    3      -40.853716    -40.853718   1.000000   1.000000
    4      -40.853176    -40.853178   1.000000   1.000000
    5      -40.820854    -40.820854   1.000000   1.000000
    6      -40.820748    -40.820749   1.000000   1.000000
    7      -40.814970    -40.814970   1.000000   1.000000
    8      -40.814946    -40.814947   1.000000   1.000000
    9      -40.694792    -40.694791   1.000000   1.000000
   10      -40.693116    -40.693115   1.000000   1.000000
   11      -40.687054    -40.687053   1.000000   1.000000
   12      -40.684699    -40.684698   1.000000   1.000000
   13      -40.619786    -40.619785   1.000000   1.000000
   14      -40.619456    -40.619455   1.000000   1.000000
   15      -40.553512    -40.553512   1.000000   1.000000
   16      -40.551828    -40.551827   1.000000   1.000000
   17      -40.545362    -40.545361   1.000000   1.000000
   18      -40.543180    -40.543179   1.000000   1.000000
   19      -40.534969    -40.534968   1.000000   1.000000
   20      -40.531066    -40.531065   1.000000   1.000000
   21      -40.522910    -40.522909   1.000000   1.000000
   22      -40.520844    -40.520843   1.000000   1.000000
   23      -40.513343    -40.513342   1.000000   1.000000
   24      -40.510914    -40.510912   1.000000   1.000000
   25      -40.501559    -40.501557   1.000000   1.000000
   26      -40.497077    -40.497075   1.000000   1.000000
   27      -40.481870    -40.481867   1.000000   1.000000
   28      -40.481085    -40.481082   1.000000   1.000000
   29      -40.474191    -40.474189   1.000000   1.000000
   30      -40.473493    -40.473491   1.000000   1.000000
   31      -40.460951    -40.460950   1.000000   1.000000
   32      -40.457971    -40.457970   1.000000   1.000000
   33      -40.452259    -40.452258   1.000000   1.000000
   34      -40.448998    -40.448997   1.000000   1.000000
   35      -40.428103    -40.428103   1.000000   1.000000
   36      -40.424273    -40.424273   1.000000   1.000000
   37      -40.423651    -40.423650   1.000000   1.000000
   38      -40.420891    -40.420890   1.000000   1.000000
   39      -40.363554    -40.363554   1.000000   1.000000
   40      -40.359797    -40.359797   1.000000   1.000000
   41      -40.341855    -40.341855   1.000000   1.000000
   42      -40.329837    -40.329835   1.000000   1.000000
   43      -40.318392    -40.318393   1.000000   1.000000
   44      -40.307961    -40.307961   1.000000   1.000000
   45      -40.277374    -40.277376   1.000000   1.000000
   46      -40.276160    -40.276161   1.000000   1.000000
   47      -40.275448    -40.275449   1.000000   1.000000
   48      -40.273439    -40.273441   1.000000   1.000000
   49      -40.272217    -40.272219   1.000000   1.000000
   50      -40.271082    -40.271082   1.000000   1.000000
   51      -39.902922    -39.902916   1.000000   1.000000
   52      -39.902666    -39.902660   1.000000   1.000000
   53      -39.882094    -39.882090   1.000000   1.000000
   54      -39.876696    -39.876691   1.000000   1.000000
   55      -39.869491    -39.869486   1.000000   1.000000
   56      -39.869333    -39.869327   1.000000   1.000000
   57      -12.852802    -12.852797   1.000000   1.000000
   58      -12.850423    -12.850418   1.000000   1.000000
   59      -12.723542    -12.723533   1.000000   1.000000
   60      -12.720573    -12.720566   1.000000   1.000000
   61      -12.717362    -12.717358   1.000000   1.000000
   62      -12.715471    -12.715465   1.000000   1.000000
   63      -12.704874    -12.704868   1.000000   1.000000
   64      -12.704418    -12.704411   1.000000   1.000000
   65       -9.673609     -9.673598   1.000000   1.000000
   66       -9.650822     -9.650816   1.000000   1.000000
   67       -9.645228     -9.645222   1.000000   1.000000
   68       -9.635304     -9.635293   1.000000   1.000000
   69       -9.566969     -9.566961   1.000000   1.000000
   70       -9.559222     -9.559213   1.000000   1.000000
   71       -9.544794     -9.544786   1.000000   1.000000
   72       -9.542079     -9.542071   1.000000   1.000000
   73       -9.523164     -9.523157   1.000000   1.000000
   74       -9.493838     -9.493832   1.000000   1.000000
   75       -9.456350     -9.456342   1.000000   1.000000
   76       -9.430152     -9.430144   1.000000   1.000000
   77       -9.428009     -9.428001   1.000000   1.000000
   78       -9.416615     -9.416607   1.000000   1.000000
   79       -9.369969     -9.369962   1.000000   1.000000
   80       -9.359524     -9.359516   1.000000   1.000000
   81       -9.331517     -9.331507   1.000000   1.000000
   82       -9.312510     -9.312501   1.000000   1.000000
   83       -9.296005     -9.295995   1.000000   1.000000
   84       -9.280453     -9.280443   1.000000   1.000000
   85       -9.269579     -9.269571   1.000000   1.000000
   86       -9.254944     -9.254937   1.000000   1.000000
   87       -9.241936     -9.241927   1.000000   1.000000
   88       -9.228532     -9.228524   1.000000   1.000000
   89       -2.940117     -2.940120   1.000000   1.000000
   90       -2.810798     -2.810801   1.000000   1.000000
   91       -2.699610     -2.699611   1.000000   1.000000
   92       -2.693691     -2.693692   1.000000   1.000000
   93       -2.641794     -2.641797   1.000000   1.000000
   94       -2.602404     -2.602406   1.000000   1.000000
   95       -2.585038     -2.585040   1.000000   1.000000
   96       -2.577552     -2.577554   1.000000   1.000000
   97       -1.150302     -1.150300   1.000000   1.000000
   98       -1.137592     -1.137589   1.000000   1.000000
   99       -1.106426     -1.106424   1.000000   1.000000
  100       -1.072386     -1.072384   1.000000   1.000000
  101       -1.047740     -1.047737   1.000000   1.000000
  102       -1.029136     -1.029133   1.000000   1.000000
  103       -0.971440     -0.971438   1.000000   1.000000
  104       -0.894066     -0.894065   1.000000   1.000000
  105       -0.859069     -0.859067   1.000000   1.000000
  106       -0.842194     -0.842191   1.000000   1.000000
  107       -0.771276     -0.771275   1.000000   1.000000
  108       -0.727945     -0.727943   1.000000   1.000000
  109       -0.709128     -0.709125   1.000000   1.000000
  110       -0.682831     -0.682829   1.000000   1.000000
  111       -0.634172     -0.634170   1.000000   1.000000
  112       -0.581073     -0.581071   1.000000   1.000000
  113       -0.520655     -0.520654   1.000000   1.000000
  114       -0.491335     -0.491334   1.000000   1.000000
  115       -0.479302     -0.479301   1.000000   1.000000
  116       -0.425857     -0.425856   1.000000   1.000000
  117       -0.387291     -0.387290   1.000000   1.000000
  118       -0.363813     -0.363812   1.000000   1.000000
  119       -0.289419     -0.289418   1.000000   1.000000
  120       -0.263066     -0.263064   1.000000   1.000000
  121        1.128981      1.128985   1.000000   1.000000
  122        1.162896      1.162900   1.000000   1.000000
  123        1.253063      1.253068   1.000000   1.000000
  124        1.273242      1.273246   1.000000   1.000000
  125        1.321598      1.321602   1.000000   1.000000
  126        1.331233      1.331238   1.000000   1.000000
  127        1.361053      1.361058   1.000000   1.000000
  128        1.370586      1.370591   1.000000   1.000000
  129        1.389908      1.389914   1.000000   1.000000
  130        1.401998      1.402004   1.000000   1.000000
  131        1.420981      1.420986   1.000000   1.000000
  132        1.460533      1.460537   1.000000   1.000000
  133        1.547401      1.547405   1.000000   1.000000
  134        1.553757      1.553762   1.000000   1.000000
  135        1.591100      1.591105   1.000000   1.000000
  136        1.688621      1.688626   1.000000   1.000000
  137        1.743529      1.743533   1.000000   1.000000
  138        1.763922      1.763926   1.000000   1.000000
  139        1.800424      1.800429   1.000000   1.000000
  140        1.878454      1.878458   1.000000   1.000000
  141        1.896716      1.896720   1.000000   1.000000
  142        1.927004      1.927008   1.000000   1.000000
  143        1.932756      1.932761   1.000000   1.000000
  144        1.946513      1.946518   1.000000   1.000000
  145        1.962951      1.962955   1.000000   1.000000
  146        2.003220      2.003224   1.000000   1.000000
  147        2.044943      2.044948   1.000000   1.000000
  148        2.052561      2.052566   1.000000   1.000000
  149        2.104270      2.104275   1.000000   1.000000
  150        2.209961      2.209966   1.000000   1.000000
  151        2.232166      2.232170   1.000000   1.000000
  152        2.252228      2.252233   1.000000   1.000000
  153        2.321650      2.321655   1.000000   1.000000
  154        2.340774      2.340779   1.000000   1.000000
  155        2.373206      2.373211   1.000000   1.000000
  156        2.486988      2.486992   1.000000   1.000000
  157        2.529739      2.529744   1.000000   1.000000
  158        2.590446      2.590450   1.000000   1.000000
  159        2.605408      2.605413   1.000000   1.000000
  160        2.624987      2.624992   1.000000   1.000000
  161        2.678828      2.678833   1.000000   1.000000
  162        2.705896      2.705900   1.000000   1.000000
  163        2.777068      2.777072   1.000000   1.000000
  164        2.798148      2.798153   1.000000   1.000000
  165        2.885223      2.885228   1.000000   1.000000
  166        2.909367      2.909372   1.000000   1.000000
  167        2.949940      2.949943   1.000000   1.000000
  168        2.971899      2.971903   1.000000   1.000000
  169        3.029555      3.029559   1.000000   1.000000
  170        3.111488      3.111493   1.000000   1.000000
  171        3.149284      3.149289   1.000000   1.000000
  172        3.175594      3.175598   1.000000   1.000000
  173        3.214807      3.214810   1.000000   1.000000
  174        3.248628      3.248633   1.000000   1.000000
  175        3.302909      3.302914   1.000000   1.000000
  176        3.322491      3.322495   1.000000   1.000000
  177        3.358207      3.358212   1.000000   1.000000
  178        3.398272      3.398276   1.000000   1.000000
  179        3.409866      3.409870   1.000000   1.000000
  180        3.440229      3.440234   1.000000   1.000000
  181        3.536762      3.536768   1.000000   1.000000
  182        3.559358      3.559364   1.000000   1.000000
  183        3.578172      3.578178   1.000000   1.000000
  184        3.606202      3.606208   1.000000   1.000000
  185        7.227359      7.227388   0.000000   0.000000
  186        7.437474      7.437502   0.000000   0.000000
  187        7.492044      7.492054   0.000000   0.000000
  188        7.652877      7.652913   0.000000   0.000000
  189        7.935629      7.935648   0.000000   0.000000
  190        8.270830      8.270850   0.000000   0.000000
  191        8.397817      8.397837   0.000000   0.000000
  192        8.438553      8.438566   0.000000   0.000000
  193        8.460905      8.460919   0.000000   0.000000
  194        8.469483      8.469498   0.000000   0.000000
  195        8.656060      8.656077   0.000000   0.000000
  196        8.724279      8.724296   0.000000   0.000000
  197        8.870265      8.870290   0.000000   0.000000
  198        8.986863      8.986875   0.000000   0.000000
  199        9.010208      9.010226   0.000000   0.000000
  200        9.076565      9.076584   0.000000   0.000000
  201        9.182590      9.182607   0.000000   0.000000
  202        9.281455      9.281478   0.000000   0.000000
  203        9.305399      9.305415   0.000000   0.000000
  204        9.371852      9.371868   0.000000   0.000000
  205        9.484836      9.484864   0.000000   0.000000
  206        9.515629      9.515661   0.000000   0.000000
  207        9.605106      9.605129   0.000000   0.000000
  208        9.693323      9.693341   0.000000   0.000000
  209        9.770812      9.770862   0.000000   0.000000
  210        9.826830      9.826843   0.000000   0.000000
  211        9.903601      9.903605   0.000000   0.000000
  212        9.939956      9.939977   0.000000   0.000000
  213       10.048674     10.048672   0.000000   0.000000
  214       10.175525     10.175553   0.000000   0.000000
  215       10.319040     10.319052   0.000000   0.000000
  216       10.413558     10.413576   0.000000   0.000000
  217       10.802201     10.802210   0.000000   0.000000
  218       10.924574     10.924606   0.000000   0.000000
  219       10.966851     10.966873   0.000000   0.000000
  220       11.093574     11.093557   0.000000   0.000000
  221       11.152399     11.152347   0.000000   0.000000
  222       11.184941     11.185140   0.000000   0.000000
  223       11.256721     11.256850   0.000000   0.000000
  224       11.388530     11.388558   0.000000   0.000000
  225       11.478447     11.478458   0.000000   0.000000
  226       11.501248     11.501402   0.000000   0.000000
  227       11.589293     11.589538   0.000000   0.000000
  228       11.650853     11.650748   0.000000   0.000000
  229       11.715832     11.715835   0.000000   0.000000
  230       11.727295     11.727326   0.000000   0.000000
  231       11.803855     11.804010   0.000000   0.000000
  232       11.850516     11.850567   0.000000   0.000000
  233       11.912405     11.912949   0.000000   0.000000
  234       11.949373     11.949978   0.000000   0.000000
  235       11.993392     11.993002   0.000000   0.000000
  236       12.057334     12.057522   0.000000   0.000000
  237       12.139148     12.139113   0.000000   0.000000
  238       12.204127     12.203396   0.000000   0.000000
  239       12.301340     12.301617   0.000000   0.000000
  240       12.306582     12.309924   0.000000   0.000000
  241       12.427054     12.426776   0.000000   0.000000
  242       12.503749     12.505919   0.000000   0.000000
  243       12.562821     12.567843   0.000000   0.000000
  244       12.661588     12.664902   0.000000   0.000000
  245       12.721045     12.729115   0.000000   0.000000
  246       12.824859     12.831651   0.000000   0.000000
  247       12.863782     12.867943   0.000000   0.000000