       N       E                     dE             d eps       ncg     rms          rms(c)
DAV:   1     0.349460183676E+04    0.34946E+04   -0.15325E+05  8448   0.156E+03
DAV:   2     0.365626556323E+02   -0.34580E+04   -0.31187E+04  9000   0.436E+02
DAV:   3    -0.448129724878E+03   -0.48469E+03   -0.47805E+03 11376   0.146E+02
DAV:   4    -0.518150291417E+03   -0.70021E+02   -0.69283E+02 15192   0.476E+01
DAV:   5    -0.525018658256E+03   -0.68684E+01   -0.68631E+01 13472   0.125E+01    0.741E+01
RMM:   6    -0.468158551672E+03    0.56860E+02   -0.20938E+02 10128   0.210E+01    0.323E+01
RMM:   7    -0.481494778457E+03   -0.13336E+02   -0.47169E+01 13532   0.122E+01    0.174E+01
RMM:   8    -0.484084635128E+03   -0.25899E+01   -0.11738E+01 15171   0.566E+00    0.912E+00
RMM:   9    -0.484865321596E+03   -0.78069E+00   -0.53025E+00 13774   0.433E+00    0.301E+00
RMM:  10    -0.484956730234E+03   -0.91409E-01   -0.22304E+00 15114   0.283E+00    0.160E+00
RMM:  11    -0.485053355691E+03   -0.96625E-01   -0.13763E+00 15674   0.163E+00    0.127E+00
RMM:  12    -0.485127736088E+03   -0.74380E-01   -0.65606E-01 15987   0.107E+00    0.104E+00
RMM:  13    -0.485159680302E+03   -0.31944E-01   -0.27404E-01 15551   0.731E-01    0.487E-01
RMM:  14    -0.485173015262E+03   -0.13335E-01   -0.12106E-01 15953   0.524E-01    0.106E-01
RMM:  15    -0.485180411977E+03   -0.73967E-02   -0.68996E-02 16000   0.361E-01    0.874E-02
RMM:  16    -0.485184027229E+03   -0.36153E-02   -0.33092E-02 16000   0.255E-01    0.785E-02
RMM:  17    -0.485185836660E+03   -0.18094E-02   -0.18258E-02 15008   0.185E-01    0.348E-02
RMM:  18    -0.485186893239E+03   -0.10566E-02   -0.10684E-02 14243   0.139E-01    0.149E-02
RMM:  19    -0.485187544316E+03   -0.65108E-03   -0.59703E-03 14208   0.105E-01    0.245E-02
RMM:  20    -0.485187911617E+03   -0.36730E-03   -0.35949E-03 14203   0.792E-02    0.210E-02
RMM:  21    -0.485188146480E+03   -0.23486E-03   -0.23079E-03 14052   0.611E-02    0.222E-02
RMM:  22    -0.485188314104E+03   -0.16762E-03   -0.14864E-03 13533   0.476E-02    0.352E-02
RMM:  23    -0.485188397754E+03   -0.83651E-04   -0.95733E-04 13384   0.378E-02    0.264E-02
RMM:  24    -0.485188446765E+03   -0.49010E-04   -0.62665E-04 11544   0.305E-02    0.160E-02
RMM:  25    -0.485188480171E+03   -0.33406E-04   -0.45294E-04 12491   0.267E-02    0.765E-03
RMM:  26    -0.485188507465E+03   -0.27294E-04   -0.29823E-04 10756   0.217E-02    0.631E-03
RMM:  27    -0.485188528203E+03   -0.20738E-04   -0.20771E-04 10469   0.192E-02    0.706E-03
RMM:  28    -0.485188533180E+03   -0.49775E-05   -0.16740E-04 11385   0.178E-02    0.630E-03
RMM:  29    -0.485188542943E+03   -0.97624E-05   -0.11776E-04 10730   0.155E-02    0.658E-03
RMM:  30    -0.485188549930E+03   -0.69875E-05   -0.68967E-05  9204   0.138E-02
   1 F= -.48518855E+03 E0= -.48518855E+03  d E =0.000000E+00  mag=    -0.0000
