 running on   24 total cores
 distrk:  each k-point on   24 cores,    1 groups
 distr:  one band on    6 cores,    4 groups
 using from now: INCAR     
 vasp.6.1.2 22Jul20 (build Mar 31 2021 18:09:49) complex                        
  
 POSCAR found type information on POSCAR LiO 
 POSCAR found :  2 types and       8 ions
 scaLAPACK will be used
 -----------------------------------------------------------------------------
|                                                                             |
|               ----> ADVICE to this user running VASP <----                  |
|                                                                             |
|     You have a (more or less) 'small supercell' and for smaller cells       |
|     it is recommended to use the reciprocal-space projection scheme!        |
|     The real-space optimization is not efficient for small cells and it     |
|     is also less accurate ...                                               |
|     Therefore, set LREAL=.FALSE. in the INCAR file.                         |
|                                                                             |
 -----------------------------------------------------------------------------

 LDA part: xc-table for Pade appr. of Perdew
 generate k-points for:   12   12    4
 POSCAR, INCAR and KPOINTS ok, starting setup
 FFT: planning ...
 WAVECAR not read
 entering main loop
       N       E                     dE             d eps       ncg     rms          rms(c)
DAV:   1     0.253664613212E+03    0.25366E+03   -0.17308E+04 18376   0.137E+03
DAV:   2    -0.142833578668E+02   -0.26795E+03   -0.25766E+03 22000   0.347E+02
DAV:   3    -0.374004182094E+02   -0.23117E+02   -0.22920E+02 29548   0.850E+01
DAV:   4    -0.391126440492E+02   -0.17122E+01   -0.17050E+01 27396   0.214E+01
DAV:   5    -0.391577695400E+02   -0.45125E-01   -0.45122E-01 25924   0.315E+00    0.178E+01
RMM:   6    -0.380228681308E+02    0.11349E+01   -0.45657E+00 20473   0.109E+01    0.783E+00
RMM:   7    -0.386233181425E+02   -0.60045E+00   -0.69273E-01 23193   0.510E+00    0.389E+00
RMM:   8    -0.386988036112E+02   -0.75485E-01   -0.30030E-01 27372   0.315E+00    0.157E+00
RMM:   9    -0.387088113395E+02   -0.10008E-01   -0.98617E-02 28759   0.204E+00    0.387E-01
RMM:  10    -0.387181513545E+02   -0.93400E-02   -0.51342E-02 32455   0.116E+00    0.187E-01
RMM:  11    -0.387218295820E+02   -0.36782E-02   -0.19521E-02 33099   0.667E-01    0.127E-01
RMM:  12    -0.387230832139E+02   -0.12536E-02   -0.81174E-03 34247   0.401E-01    0.896E-02
RMM:  13    -0.387234878345E+02   -0.40462E-03   -0.30844E-03 32978   0.270E-01    0.344E-02
RMM:  14    -0.387237313490E+02   -0.24351E-03   -0.15284E-03 33379   0.187E-01    0.824E-03
RMM:  15    -0.387238151913E+02   -0.83842E-04   -0.69773E-04 31671   0.111E-01    0.888E-03
RMM:  16    -0.387238478829E+02   -0.32692E-04   -0.29696E-04 30574   0.736E-02    0.537E-03
RMM:  17    -0.387238606441E+02   -0.12761E-04   -0.11783E-04 28154   0.508E-02    0.293E-03
RMM:  18    -0.387238648524E+02   -0.42083E-05   -0.41570E-05 23882   0.373E-02
   1 F= -.38723865E+02 E0= -.38723865E+02  d E =0.000000E+00  mag=    -0.0000
