       N       E                     dE             d eps       ncg     rms          rms(c)
DAV:   1     0.330059986007E+03    0.33006E+03   -0.27639E+04 18560   0.126E+03
DAV:   2    -0.213472990372E+02   -0.35141E+03   -0.33607E+03 22888   0.314E+02
DAV:   3    -0.438031843844E+02   -0.22456E+02   -0.22173E+02 27208   0.755E+01
DAV:   4    -0.445106394459E+02   -0.70746E+00   -0.70137E+00 29048   0.980E+00
DAV:   5    -0.445404857800E+02   -0.29846E-01   -0.29845E-01 24480   0.127E+00    0.147E+01
RMM:   6    -0.446881637213E+02   -0.14768E+00   -0.25083E+00 21743   0.735E+00    0.980E+00
RMM:   7    -0.442771321658E+02    0.41103E+00   -0.90082E-01 20270   0.453E+00    0.542E+00
RMM:   8    -0.439732985974E+02    0.30383E+00   -0.41557E-01 21838   0.335E+00    0.247E+00
RMM:   9    -0.439991126781E+02   -0.25814E-01   -0.11768E-01 22994   0.189E+00    0.114E+00
RMM:  10    -0.440018355899E+02   -0.27229E-02   -0.20636E-02 24887   0.761E-01    0.989E-01
RMM:  11    -0.439979143481E+02    0.39212E-02   -0.62265E-03 25364   0.427E-01    0.395E-01
RMM:  12    -0.439979680549E+02   -0.53707E-04   -0.25505E-03 25502   0.292E-01    0.110E-01
RMM:  13    -0.439982226365E+02   -0.25458E-03   -0.60352E-04 27546   0.142E-01    0.445E-02
RMM:  14    -0.439983026821E+02   -0.80046E-04   -0.25040E-04 28873   0.776E-02    0.209E-02
RMM:  15    -0.439983294116E+02   -0.26729E-04   -0.11283E-04 27303   0.502E-02    0.120E-02
RMM:  16    -0.439983411411E+02   -0.11729E-04   -0.54550E-05 22858   0.317E-02    0.842E-03
RMM:  17    -0.439983475739E+02   -0.64328E-05   -0.21641E-05 20324   0.219E-02
   1 F= -.43998348E+02 E0= -.43998348E+02  d E =0.000000E+00  mag=     0.0038
