       N       E                     dE             d eps       ncg     rms          rms(c)
DAV:   1     0.241184095416E+03    0.24118E+03   -0.16666E+04  6144   0.119E+03
DAV:   2    -0.148714163326E+02   -0.25606E+03   -0.24401E+03  7224   0.307E+02
DAV:   3    -0.374533310381E+02   -0.22582E+02   -0.22274E+02  9936   0.748E+01
DAV:   4    -0.391361740227E+02   -0.16828E+01   -0.16765E+01  8976   0.186E+01
DAV:   5    -0.391688266620E+02   -0.32653E-01   -0.32651E-01  8544   0.248E+00    0.177E+01
RMM:   6    -0.381376674672E+02    0.10312E+01   -0.36653E+00  6861   0.893E+00    0.779E+00
RMM:   7    -0.387169257741E+02   -0.57926E+00   -0.42790E-01  7364   0.382E+00    0.387E+00
RMM:   8    -0.387850225215E+02   -0.68097E-01   -0.19232E-01  8299   0.247E+00    0.153E+00
RMM:   9    -0.387930557113E+02   -0.80332E-02   -0.64147E-02  8893   0.163E+00    0.365E-01
RMM:  10    -0.387994376698E+02   -0.63820E-02   -0.23488E-02  9929   0.789E-01    0.170E-01
RMM:  11    -0.388022198768E+02   -0.27822E-02   -0.96706E-03 10194   0.444E-01    0.964E-02
RMM:  12    -0.388029974885E+02   -0.77761E-03   -0.36177E-03 10562   0.258E-01    0.624E-02
RMM:  13    -0.388032278146E+02   -0.23033E-03   -0.14515E-03 10348   0.173E-01    0.248E-02
RMM:  14    -0.388033459596E+02   -0.11815E-03   -0.62369E-04 10165   0.114E-01    0.841E-03
RMM:  15    -0.388033850732E+02   -0.39114E-04   -0.27914E-04  9838   0.694E-02    0.683E-03
RMM:  16    -0.388033972534E+02   -0.12180E-04   -0.11251E-04  9115   0.450E-02    0.359E-03
RMM:  17    -0.388034039226E+02   -0.66692E-05   -0.44882E-05  8116   0.318E-02
   1 F= -.38803404E+02 E0= -.38803404E+02  d E =0.000000E+00  mag=     0.0000
