       N       E                     dE             d eps       ncg     rms          rms(c)
DAV:   1     0.176178378051E+03    0.17618E+03   -0.16663E+04 28416   0.121E+03
DAV:   2    -0.394992000793E+02   -0.21568E+03   -0.20727E+03 38920   0.288E+02
DAV:   3    -0.501453742122E+02   -0.10646E+02   -0.10595E+02 37760   0.671E+01
DAV:   4    -0.502612715767E+02   -0.11590E+00   -0.11585E+00 34464   0.785E+00
DAV:   5    -0.502632307016E+02   -0.19591E-02   -0.19587E-02 37744   0.967E-01    0.295E+01
RMM:   6    -0.439664722202E+02    0.62968E+01   -0.17339E+01 28883   0.228E+01    0.125E+01
RMM:   7    -0.441193213300E+02   -0.15285E+00   -0.39667E+00 33489   0.117E+01    0.541E+00
RMM:   8    -0.441030060863E+02    0.16315E-01   -0.32811E-01 33661   0.400E+00    0.322E+00
RMM:   9    -0.441045825393E+02   -0.15765E-02   -0.95938E-02 33190   0.217E+00    0.816E-01
RMM:  10    -0.441044671248E+02    0.11541E-03   -0.17790E-02 36285   0.887E-01    0.214E-01
RMM:  11    -0.441047416481E+02   -0.27452E-03   -0.10957E-02 35693   0.583E-01    0.186E-01
RMM:  12    -0.441048584518E+02   -0.11680E-03   -0.13068E-03 35870   0.235E-01    0.100E-01
RMM:  13    -0.441048631072E+02   -0.46554E-05   -0.40979E-04 34717   0.141E-01    0.273E-02
RMM:  14    -0.441048753045E+02   -0.12197E-04   -0.75310E-05 35141   0.571E-02    0.162E-02
RMM:  15    -0.441048729397E+02    0.23648E-05   -0.15950E-05 26249   0.254E-02
   1 F= -.44104873E+02 E0= -.44104873E+02  d E =0.000000E+00  mag=    -0.0000
