  26  26   1   0
  0.1146602E+02  0.5260542E-09  0.7215480E-09  0.8662006E-09  0.5000000E-15
  1.000000000000000E-004
  CAR 
 unknown system                          
     13.67157058    -44.50820447  301      0.53263805      1.00000000
    -44.508  0.0000E+00  0.0000E+00  0.0000E+00  0.0000E+00
    -44.314  0.0000E+00  0.0000E+00  0.0000E+00  0.0000E+00
    -44.120  0.0000E+00  0.0000E+00  0.0000E+00  0.0000E+00
    -43.926  0.0000E+00  0.0000E+00  0.0000E+00  0.0000E+00
    -43.732  0.0000E+00  0.0000E+00  0.0000E+00  0.0000E+00
    -43.539  0.0000E+00  0.0000E+00  0.0000E+00  0.0000E+00
    -43.345  0.0000E+00  0.0000E+00  0.0000E+00  0.0000E+00
    -43.151  0.0000E+00  0.0000E+00  0.0000E+00  0.0000E+00
    -42.957  0.0000E+00  0.0000E+00  0.0000E+00  0.0000E+00
    -42.763  0.0000E+00  0.0000E+00  0.0000E+00  0.0000E+00
    -42.569  0.0000E+00  0.0000E+00  0.0000E+00  0.0000E+00
    -42.375  0.0000E+00  0.0000E+00  0.0000E+00  0.0000E+00
    -42.181  0.0000E+00  0.0000E+00  0.0000E+00  0.0000E+00
    -41.987  0.0000E+00  0.0000E+00  0.0000E+00  0.0000E+00
    -41.793  0.0000E+00  0.0000E+00  0.2020E-01  0.2020E-01
    -41.599  0.0000E+00  0.0000E+00  0.8081E-01  0.8081E-01
    -41.405  0.0000E+00  0.0000E+00  0.8081E-01  0.8081E-01
    -41.211  0.0000E+00  0.0000E+00  0.8081E-01  0.8081E-01
    -41.017  0.0000E+00  0.0000E+00  0.8081E-01  0.8081E-01
    -40.823  0.0000E+00  0.0000E+00  0.8081E-01  0.8081E-01
    -40.630  0.0000E+00  0.0000E+00  0.8081E-01  0.8081E-01
    -40.436  0.0000E+00  0.0000E+00  0.8081E-01  0.8081E-01
    -40.242  0.0000E+00  0.0000E+00  0.8081E-01  0.8081E-01
    -40.048  0.0000E+00  0.0000E+00  0.8081E-01  0.8081E-01
    -39.854  0.0000E+00  0.0000E+00  0.8081E-01  0.8081E-01
    -39.660  0.0000E+00  0.0000E+00  0.8081E-01  0.8081E-01
    -39.466  0.0000E+00  0.0000E+00  0.8081E-01  0.8081E-01
    -39.272  0.0000E+00  0.0000E+00  0.8081E-01  0.8081E-01
    -39.078  0.0000E+00  0.0000E+00  0.8081E-01  0.8081E-01
    -38.884  0.0000E+00  0.0000E+00  0.8081E-01  0.8081E-01
    -38.690  0.0000E+00  0.0000E+00  0.8081E-01  0.8081E-01
    -38.496  0.0000E+00  0.0000E+00  0.8081E-01  0.8081E-01
    -38.302  0.0000E+00  0.0000E+00  0.8081E-01  0.8081E-01
    -38.108  0.0000E+00  0.0000E+00  0.8081E-01  0.8081E-01
    -37.914  0.0000E+00  0.0000E+00  0.8081E-01  0.8081E-01
    -37.721  0.0000E+00  0.0000E+00  0.8081E-01  0.8081E-01
    -37.527  0.0000E+00  0.0000E+00  0.8081E-01  0.8081E-01
    -37.333  0.0000E+00  0.0000E+00  0.8081E-01  0.8081E-01
    -37.139  0.0000E+00  0.0000E+00  0.8081E-01  0.8081E-01
    -36.945  0.0000E+00  0.0000E+00  0.8081E-01  0.8081E-01
    -36.751  0.0000E+00  0.0000E+00  0.8081E-01  0.8081E-01
    -36.557  0.0000E+00  0.0000E+00  0.8081E-01  0.8081E-01
    -36.363  0.0000E+00  0.0000E+00  0.8081E-01  0.8081E-01
    -36.169  0.0000E+00  0.0000E+00  0.8081E-01  0.8081E-01
    -35.975  0.0000E+00  0.0000E+00  0.8081E-01  0.8081E-01
    -35.781  0.0000E+00  0.0000E+00  0.8081E-01  0.8081E-01
    -35.587  0.0000E+00  0.0000E+00  0.8081E-01  0.8081E-01
    -35.393  0.0000E+00  0.0000E+00  0.8081E-01  0.8081E-01
    -35.199  0.0000E+00  0.0000E+00  0.8081E-01  0.8081E-01
    -35.006  0.0000E+00  0.0000E+00  0.8081E-01  0.8081E-01
    -34.812  0.0000E+00  0.0000E+00  0.8081E-01  0.8081E-01
    -34.618  0.0000E+00  0.0000E+00  0.8081E-01  0.8081E-01
    -34.424  0.0000E+00  0.0000E+00  0.8081E-01  0.8081E-01
    -34.230  0.0000E+00  0.0000E+00  0.8081E-01  0.8081E-01
    -34.036  0.0000E+00  0.0000E+00  0.8081E-01  0.8081E-01
    -33.842  0.0000E+00  0.0000E+00  0.8081E-01  0.8081E-01
    -33.648  0.0000E+00  0.0000E+00  0.8081E-01  0.8081E-01
    -33.454  0.0000E+00  0.0000E+00  0.8081E-01  0.8081E-01
    -33.260  0.0000E+00  0.0000E+00  0.8081E-01  0.8081E-01
    -33.066  0.0000E+00  0.0000E+00  0.8081E-01  0.8081E-01
    -32.872  0.0000E+00  0.0000E+00  0.8081E-01  0.8081E-01
    -32.678  0.0000E+00  0.0000E+00  0.8081E-01  0.8081E-01
    -32.484  0.0000E+00  0.0000E+00  0.8081E-01  0.8081E-01
    -32.290  0.0000E+00  0.0000E+00  0.8081E-01  0.8081E-01
    -32.097  0.0000E+00  0.0000E+00  0.8081E-01  0.8081E-01
    -31.903  0.0000E+00  0.0000E+00  0.8081E-01  0.8081E-01
    -31.709  0.0000E+00  0.0000E+00  0.8081E-01  0.8081E-01
    -31.515  0.0000E+00  0.0000E+00  0.8081E-01  0.8081E-01
    -31.321  0.0000E+00  0.0000E+00  0.8081E-01  0.8081E-01
    -31.127  0.0000E+00  0.0000E+00  0.8081E-01  0.8081E-01
    -30.933  0.0000E+00  0.0000E+00  0.8081E-01  0.8081E-01
    -30.739  0.0000E+00  0.0000E+00  0.8081E-01  0.8081E-01
    -30.545  0.0000E+00  0.0000E+00  0.8081E-01  0.8081E-01
    -30.351  0.0000E+00  0.0000E+00  0.8081E-01  0.8081E-01
    -30.157  0.0000E+00  0.0000E+00  0.8081E-01  0.8081E-01
    -29.963  0.0000E+00  0.0000E+00  0.8081E-01  0.8081E-01
    -29.769  0.0000E+00  0.0000E+00  0.8081E-01  0.8081E-01
    -29.575  0.0000E+00  0.0000E+00  0.8081E-01  0.8081E-01
    -29.381  0.0000E+00  0.0000E+00  0.8081E-01  0.8081E-01
    -29.188  0.0000E+00  0.0000E+00  0.8081E-01  0.8081E-01
    -28.994  0.0000E+00  0.0000E+00  0.8081E-01  0.8081E-01
    -28.800  0.0000E+00  0.0000E+00  0.8081E-01  0.8081E-01
    -28.606  0.0000E+00  0.0000E+00  0.8081E-01  0.8081E-01
    -28.412  0.0000E+00  0.0000E+00  0.8081E-01  0.8081E-01
    -28.218  0.0000E+00  0.0000E+00  0.8081E-01  0.8081E-01
    -28.024  0.0000E+00  0.0000E+00  0.8081E-01  0.8081E-01
    -27.830  0.0000E+00  0.0000E+00  0.8081E-01  0.8081E-01
    -27.636  0.0000E+00  0.0000E+00  0.8081E-01  0.8081E-01
    -27.442  0.0000E+00  0.0000E+00  0.8081E-01  0.8081E-01
    -27.248  0.0000E+00  0.0000E+00  0.8081E-01  0.8081E-01
    -27.054  0.0000E+00  0.0000E+00  0.8081E-01  0.8081E-01
    -26.860  0.0000E+00  0.0000E+00  0.8081E-01  0.8081E-01
    -26.666  0.0000E+00  0.0000E+00  0.8081E-01  0.8081E-01
    -26.472  0.0000E+00  0.0000E+00  0.8081E-01  0.8081E-01
    -26.279  0.0000E+00  0.0000E+00  0.8081E-01  0.8081E-01
    -26.085  0.0000E+00  0.0000E+00  0.8081E-01  0.8081E-01
    -25.891  0.0000E+00  0.0000E+00  0.8081E-01  0.8081E-01
    -25.697  0.0000E+00  0.0000E+00  0.8081E-01  0.8081E-01
    -25.503  0.0000E+00  0.0000E+00  0.8081E-01  0.8081E-01
    -25.309  0.0000E+00  0.0000E+00  0.8081E-01  0.8081E-01
    -25.115  0.0000E+00  0.0000E+00  0.8081E-01  0.8081E-01
    -24.921  0.0000E+00  0.0000E+00  0.8081E-01  0.8081E-01
    -24.727  0.0000E+00  0.0000E+00  0.8081E-01  0.8081E-01
    -24.533  0.0000E+00  0.0000E+00  0.8081E-01  0.8081E-01
    -24.339  0.0000E+00  0.0000E+00  0.8081E-01  0.8081E-01
    -24.145  0.0000E+00  0.0000E+00  0.8081E-01  0.8081E-01
    -23.951  0.0000E+00  0.0000E+00  0.8081E-01  0.8081E-01
    -23.757  0.0000E+00  0.0000E+00  0.8081E-01  0.8081E-01
    -23.563  0.0000E+00  0.0000E+00  0.8081E-01  0.8081E-01
    -23.370  0.0000E+00  0.0000E+00  0.8081E-01  0.8081E-01
    -23.176  0.0000E+00  0.0000E+00  0.8081E-01  0.8081E-01
    -22.982  0.0000E+00  0.0000E+00  0.8081E-01  0.8081E-01
    -22.788  0.0000E+00  0.0000E+00  0.8081E-01  0.8081E-01
    -22.594  0.0000E+00  0.0000E+00  0.8081E-01  0.8081E-01
    -22.400  0.0000E+00  0.0000E+00  0.8081E-01  0.8081E-01
    -22.206  0.0000E+00  0.0000E+00  0.8081E-01  0.8081E-01
    -22.012  0.0000E+00  0.0000E+00  0.8081E-01  0.8081E-01
    -21.818  0.0000E+00  0.0000E+00  0.8081E-01  0.8081E-01
    -21.624  0.0000E+00  0.0000E+00  0.8081E-01  0.8081E-01
    -21.430  0.0000E+00  0.0000E+00  0.8081E-01  0.8081E-01
    -21.236  0.0000E+00  0.0000E+00  0.8081E-01  0.8081E-01
    -21.042  0.0000E+00  0.0000E+00  0.8081E-01  0.8081E-01
    -20.848  0.0000E+00  0.0000E+00  0.8081E-01  0.8081E-01
    -20.654  0.0000E+00  0.0000E+00  0.8081E-01  0.8081E-01
    -20.461  0.0000E+00  0.0000E+00  0.8081E-01  0.8081E-01
    -20.267  0.0000E+00  0.0000E+00  0.8081E-01  0.8081E-01
    -20.073  0.0000E+00  0.0000E+00  0.8081E-01  0.8081E-01
    -19.879  0.0000E+00  0.0000E+00  0.1010E+00  0.1010E+00
    -19.685  0.0000E+00  0.0000E+00  0.1010E+00  0.1010E+00
    -19.491  0.0000E+00  0.0000E+00  0.1010E+00  0.1010E+00
    -19.297  0.0000E+00  0.0000E+00  0.1010E+00  0.1010E+00
    -19.103  0.0000E+00  0.0000E+00  0.1010E+00  0.1010E+00
    -18.909  0.0000E+00  0.0000E+00  0.1010E+00  0.1010E+00
    -18.715  0.0000E+00  0.0000E+00  0.1212E+00  0.1212E+00
    -18.521  0.0000E+00  0.0000E+00  0.1212E+00  0.1212E+00
    -18.327  0.0000E+00  0.0000E+00  0.1212E+00  0.1212E+00
    -18.133  0.0000E+00  0.0000E+00  0.1212E+00  0.1212E+00
    -17.939  0.0000E+00  0.0000E+00  0.1212E+00  0.1212E+00
    -17.746  0.0000E+00  0.0000E+00  0.1212E+00  0.1212E+00
    -17.552  0.0000E+00  0.0000E+00  0.1212E+00  0.1212E+00
    -17.358  0.0000E+00  0.0000E+00  0.1414E+00  0.1414E+00
    -17.164  0.0000E+00  0.0000E+00  0.1414E+00  0.1414E+00
    -16.970  0.0000E+00  0.0000E+00  0.1414E+00  0.1414E+00
    -16.776  0.0000E+00  0.0000E+00  0.1616E+00  0.1616E+00
    -16.582  0.9477E+00  0.9477E+00  0.2164E+00  0.2164E+00
    -16.388  0.0000E+00  0.0000E+00  0.2222E+00  0.2222E+00
    -16.194  0.0000E+00  0.0000E+00  0.2222E+00  0.2222E+00
    -16.000  0.0000E+00  0.0000E+00  0.2222E+00  0.2222E+00
    -15.806  0.0000E+00  0.0000E+00  0.2222E+00  0.2222E+00
    -15.612  0.0000E+00  0.0000E+00  0.2222E+00  0.2222E+00
    -15.418  0.0000E+00  0.0000E+00  0.2222E+00  0.2222E+00
    -15.224  0.0000E+00  0.0000E+00  0.2222E+00  0.2222E+00
    -15.030  0.0000E+00  0.0000E+00  0.2222E+00  0.2222E+00
    -14.837  0.0000E+00  0.0000E+00  0.2222E+00  0.2222E+00
    -14.643  0.0000E+00  0.0000E+00  0.2222E+00  0.2222E+00
    -14.449  0.0000E+00  0.0000E+00  0.2222E+00  0.2222E+00
    -14.255  0.0000E+00  0.0000E+00  0.2222E+00  0.2222E+00
    -14.061  0.0000E+00  0.0000E+00  0.2222E+00  0.2222E+00
    -13.867  0.0000E+00  0.0000E+00  0.2222E+00  0.2222E+00
    -13.673  0.0000E+00  0.0000E+00  0.2222E+00  0.2222E+00
    -13.479  0.0000E+00  0.0000E+00  0.2222E+00  0.2222E+00
    -13.285  0.0000E+00  0.0000E+00  0.2222E+00  0.2222E+00
    -13.091  0.0000E+00  0.0000E+00  0.2222E+00  0.2222E+00
    -12.897  0.0000E+00  0.0000E+00  0.2222E+00  0.2222E+00
    -12.703  0.0000E+00  0.0000E+00  0.2222E+00  0.2222E+00
    -12.509  0.0000E+00  0.0000E+00  0.2222E+00  0.2222E+00
    -12.315  0.0000E+00  0.0000E+00  0.2222E+00  0.2222E+00
    -12.121  0.0000E+00  0.0000E+00  0.2222E+00  0.2222E+00
    -11.928  0.0000E+00  0.0000E+00  0.2222E+00  0.2222E+00
    -11.734  0.0000E+00  0.0000E+00  0.2222E+00  0.2222E+00
    -11.540  0.0000E+00  0.0000E+00  0.2222E+00  0.2222E+00
    -11.346  0.0000E+00  0.0000E+00  0.2222E+00  0.2222E+00
    -11.152  0.0000E+00  0.0000E+00  0.2222E+00  0.2222E+00
    -10.958  0.0000E+00  0.0000E+00  0.2222E+00  0.2222E+00
    -10.764  0.0000E+00  0.0000E+00  0.2222E+00  0.2222E+00
    -10.570  0.0000E+00  0.0000E+00  0.2222E+00  0.2222E+00
    -10.376  0.0000E+00  0.0000E+00  0.2222E+00  0.2222E+00
    -10.182  0.0000E+00  0.0000E+00  0.2222E+00  0.2222E+00
     -9.988  0.0000E+00  0.0000E+00  0.2222E+00  0.2222E+00
     -9.794  0.0000E+00  0.0000E+00  0.2222E+00  0.2222E+00
     -9.600  0.0000E+00  0.0000E+00  0.2222E+00  0.2222E+00
     -9.406  0.0000E+00  0.0000E+00  0.2222E+00  0.2222E+00
     -9.212  0.0000E+00  0.0000E+00  0.2222E+00  0.2222E+00
     -9.019  0.0000E+00  0.0000E+00  0.2222E+00  0.2222E+00
     -8.825  0.0000E+00  0.0000E+00  0.2222E+00  0.2222E+00
     -8.631  0.0000E+00  0.0000E+00  0.2222E+00  0.2222E+00
     -8.437  0.0000E+00  0.0000E+00  0.2424E+00  0.2424E+00
     -8.243  0.0000E+00  0.0000E+00  0.2424E+00  0.2424E+00
     -8.049  0.0000E+00  0.0000E+00  0.2424E+00  0.2424E+00
     -7.855  0.0000E+00  0.0000E+00  0.2424E+00  0.2424E+00
     -7.661  0.0000E+00  0.0000E+00  0.2424E+00  0.2424E+00
     -7.467  0.0000E+00  0.0000E+00  0.2424E+00  0.2424E+00
     -7.273  0.0000E+00  0.0000E+00  0.2424E+00  0.2424E+00
     -7.079  0.0000E+00  0.0000E+00  0.2424E+00  0.2424E+00
     -6.885  0.0000E+00  0.0000E+00  0.2424E+00  0.2424E+00
     -6.691  0.0000E+00  0.0000E+00  0.2424E+00  0.2424E+00
     -6.497  0.0000E+00  0.0000E+00  0.2424E+00  0.2424E+00
     -6.303  0.0000E+00  0.0000E+00  0.2424E+00  0.2424E+00
     -6.110  0.0000E+00  0.0000E+00  0.2424E+00  0.2424E+00
     -5.916  0.8037E-01  0.8037E-01  0.2502E+00  0.2502E+00
     -5.722  0.6746E-01  0.6746E-01  0.2548E+00  0.2548E+00
     -5.528  0.0000E+00  0.0000E+00  0.2626E+00  0.2626E+00
     -5.334  0.0000E+00  0.0000E+00  0.2626E+00  0.2626E+00
     -5.140  0.0000E+00  0.0000E+00  0.2626E+00  0.2626E+00
     -4.946  0.4197E-01  0.4197E-01  0.2731E+00  0.2731E+00
     -4.752  0.0000E+00  0.0000E+00  0.2828E+00  0.2828E+00
     -4.558  0.1359E-01  0.1358E-01  0.2829E+00  0.2829E+00
     -4.364  0.1171E+00  0.1171E+00  0.2945E+00  0.2945E+00
     -4.170  0.6497E-01  0.6497E-01  0.3118E+00  0.3118E+00
     -3.976  0.2952E-01  0.2952E-01  0.3223E+00  0.3223E+00
     -3.782  0.1124E+00  0.1124E+00  0.3322E+00  0.3322E+00
     -3.588  0.5822E-01  0.5822E-01  0.3462E+00  0.3462E+00
     -3.394  0.5107E-01  0.5107E-01  0.3601E+00  0.3601E+00
     -3.201  0.1510E-02  0.1510E-02  0.3636E+00  0.3636E+00
     -3.007  0.2118E-01  0.2118E-01  0.3735E+00  0.3735E+00
     -2.813  0.6576E-01  0.6576E-01  0.3816E+00  0.3816E+00
     -2.619  0.0000E+00  0.0000E+00  0.3838E+00  0.3838E+00
     -2.425  0.0000E+00  0.0000E+00  0.3838E+00  0.3838E+00
     -2.231  0.4254E-01  0.4254E-01  0.3933E+00  0.3933E+00
     -2.037  0.7809E-01  0.7809E-01  0.4112E+00  0.4112E+00
     -1.843  0.7931E-01  0.7931E-01  0.4283E+00  0.4283E+00
     -1.649  0.1145E+00  0.1145E+00  0.4443E+00  0.4443E+00
     -1.455  0.9617E-01  0.9617E-01  0.4627E+00  0.4627E+00
     -1.261  0.1235E+00  0.1235E+00  0.4863E+00  0.4863E+00
     -1.067  0.7077E-01  0.7077E-01  0.5110E+00  0.5110E+00
     -0.873  0.4710E-01  0.4710E-01  0.5229E+00  0.5229E+00
     -0.679  0.0000E+00  0.0000E+00  0.5253E+00  0.5253E+00
     -0.486  0.2523E-01  0.2523E-01  0.5358E+00  0.5358E+00
     -0.292  0.1743E+00  0.1743E+00  0.5522E+00  0.5522E+00
     -0.098  0.3411E+00  0.3411E+00  0.5814E+00  0.5814E+00
      0.096  0.1503E+00  0.1503E+00  0.6009E+00  0.6009E+00
      0.290  0.3774E-01  0.3774E-01  0.6261E+00  0.6261E+00
      0.484  0.0000E+00  0.0000E+00  0.6465E+00  0.6465E+00
      0.678  0.0000E+00  0.0000E+00  0.6465E+00  0.6465E+00
      0.872  0.0000E+00  0.0000E+00  0.6465E+00  0.6465E+00
      1.066  0.0000E+00  0.0000E+00  0.6465E+00  0.6465E+00
      1.260  0.0000E+00  0.0000E+00  0.6465E+00  0.6465E+00
      1.454  0.0000E+00  0.0000E+00  0.6465E+00  0.6465E+00
      1.648  0.0000E+00  0.0000E+00  0.6465E+00  0.6465E+00
      1.842  0.0000E+00  0.0000E+00  0.6465E+00  0.6465E+00
      2.036  0.0000E+00  0.0000E+00  0.6465E+00  0.6465E+00
      2.230  0.0000E+00  0.0000E+00  0.6465E+00  0.6465E+00
      2.423  0.0000E+00  0.0000E+00  0.6465E+00  0.6465E+00
      2.617  0.0000E+00  0.0000E+00  0.6465E+00  0.6465E+00
      2.811  0.0000E+00  0.0000E+00  0.6465E+00  0.6465E+00
      3.005  0.0000E+00  0.0000E+00  0.6465E+00  0.6465E+00
      3.199  0.0000E+00  0.0000E+00  0.6465E+00  0.6465E+00
      3.393  0.0000E+00  0.0000E+00  0.6465E+00  0.6465E+00
      3.587  0.0000E+00  0.0000E+00  0.6465E+00  0.6465E+00
      3.781  0.0000E+00  0.0000E+00  0.6465E+00  0.6465E+00
      3.975  0.0000E+00  0.0000E+00  0.6465E+00  0.6465E+00
      4.169  0.0000E+00  0.0000E+00  0.6465E+00  0.6465E+00
      4.363  0.0000E+00  0.0000E+00  0.6465E+00  0.6465E+00
      4.557  0.0000E+00  0.0000E+00  0.6465E+00  0.6465E+00
      4.751  0.0000E+00  0.0000E+00  0.6465E+00  0.6465E+00
      4.945  0.0000E+00  0.0000E+00  0.6465E+00  0.6465E+00
      5.139  0.0000E+00  0.0000E+00  0.6465E+00  0.6465E+00
      5.332  0.0000E+00  0.0000E+00  0.6465E+00  0.6465E+00
      5.526  0.0000E+00  0.0000E+00  0.6465E+00  0.6465E+00
      5.720  0.0000E+00  0.0000E+00  0.6465E+00  0.6465E+00
      5.914  0.0000E+00  0.0000E+00  0.6465E+00  0.6465E+00
      6.108  0.0000E+00  0.0000E+00  0.6465E+00  0.6465E+00
      6.302  0.8466E-03  0.8466E-03  0.6465E+00  0.6465E+00
      6.496  0.2989E-02  0.2989E-02  0.6469E+00  0.6469E+00
      6.690  0.4395E-02  0.4395E-02  0.6476E+00  0.6476E+00
      6.884  0.6998E-02  0.6998E-02  0.6487E+00  0.6487E+00
      7.078  0.8302E-02  0.8302E-02  0.6502E+00  0.6502E+00
      7.272  0.1006E-01  0.1006E-01  0.6520E+00  0.6520E+00
      7.466  0.1277E-01  0.1277E-01  0.6541E+00  0.6541E+00
      7.660  0.1733E-01  0.1733E-01  0.6572E+00  0.6572E+00
      7.854  0.1302E-01  0.1302E-01  0.6601E+00  0.6601E+00
      8.048  0.2234E-01  0.2234E-01  0.6636E+00  0.6636E+00
      8.241  0.1885E-01  0.1885E-01  0.6680E+00  0.6680E+00
      8.435  0.2160E-01  0.2160E-01  0.6712E+00  0.6712E+00
      8.629  0.3349E-01  0.3349E-01  0.6774E+00  0.6774E+00
      8.823  0.4087E-01  0.4087E-01  0.6870E+00  0.6870E+00
      9.017  0.4375E-01  0.4375E-01  0.6975E+00  0.6975E+00
      9.211  0.4772E-01  0.4772E-01  0.7080E+00  0.7080E+00
      9.405  0.6234E-01  0.6234E-01  0.7193E+00  0.7193E+00
      9.599  0.5809E-01  0.5809E-01  0.7340E+00  0.7340E+00
      9.793  0.6849E-01  0.6849E-01  0.7467E+00  0.7467E+00
      9.987  0.6310E-01  0.6310E-01  0.7591E+00  0.7591E+00
     10.181  0.5411E-01  0.5411E-01  0.7702E+00  0.7702E+00
     10.375  0.6773E-01  0.6774E-01  0.7809E+00  0.7809E+00
     10.569  0.8020E-01  0.8011E-01  0.7940E+00  0.7940E+00
     10.763  0.2504E-01  0.2512E-01  0.8033E+00  0.8033E+00
     10.957  0.1759E-01  0.1794E-01  0.8075E+00  0.8075E+00
     11.150  0.0000E+00  0.0000E+00  0.8081E+00  0.8081E+00
     11.344  0.0000E+00  0.0000E+00  0.8081E+00  0.8081E+00
     11.538  0.0000E+00  0.0000E+00  0.8081E+00  0.8081E+00
     11.732  0.0000E+00  0.0000E+00  0.8081E+00  0.8081E+00
     11.926  0.0000E+00  0.0000E+00  0.8081E+00  0.8081E+00
     12.120  0.0000E+00  0.0000E+00  0.8081E+00  0.8081E+00
     12.314  0.0000E+00  0.0000E+00  0.8081E+00  0.8081E+00
     12.508  0.0000E+00  0.0000E+00  0.8081E+00  0.8081E+00
     12.702  0.0000E+00  0.0000E+00  0.8081E+00  0.8081E+00
     12.896  0.0000E+00  0.0000E+00  0.8081E+00  0.8081E+00
     13.090  0.0000E+00  0.0000E+00  0.8081E+00  0.8081E+00
     13.284  0.0000E+00  0.0000E+00  0.8081E+00  0.8081E+00
     13.478  0.0000E+00  0.0000E+00  0.8081E+00  0.8081E+00
     13.672  0.0000E+00  0.0000E+00  0.8081E+00  0.8081E+00
     13.67157058    -44.50820447  301      0.53263805      1.00000000
    -44.508  0.0000E+00  0.0000E+00  0.0000E+00  0.0000E+00  0.0000E+00  0.0000E+00  0.0000E+00  0.0000E+00  0.0000E+00  0.0000E+00  0.0000E+00  0.0000E+00  0.0000E+00  0.0000E+00  0.0000E+00  0.0000E+00  0.0000E+00  0.0000E+00
    -44.314  0.0000E+00  0.0000E+00  0.0000E+00  0.0000E+00  0.0000E+00  0.0000E+00  0.0000E+00  0.0000E+00  0.0000E+00  0.0000E+00  0.0000E+00  0.0000E+00  0.0000E+00  0.0000E+00  0.0000E+00  0.0000E+00  0.0000E+00  0.0000E+00
    -44.120  0.0000E+00  0.0000E+00  0.0000E+00  0.0000E+00  0.0000E+00  0.0000E+00  0.0000E+00  0.0000E+00  0.0000E+00  0.0000E+00  0.0000E+00  0.0000E+00  0.0000E+00  0.0000E+00  0.0000E+00  0.0000E+00  0.0000E+00  0.0000E+00
    -43.926  0.0000E+00  0.0000E+00  0.0000E+00  0.0000E+00  0.0000E+00  0.0000E+00  0.0000E+00  0.0000E+00  0.0000E+00  0.0000E+00  0.0000E+00  0.0000E+00  0.0000E+00  0.0000E+00  0.0000E+00  0.0000E+00  0.0000E+00  0.0000E+00
    -43.732  0.0000E+00  0.0000E+00  0.0000E+00  0.0000E+00  0.0000E+00  0.0000E+00  0.0000E+00  0.0000E+00  0.0000E+00  0.0000E+00  0.0000E+00  0.0000E+00  0.0000E+00  0.0000E+00  0.0000E+00  0.0000E+00  0.0000E+00  0.0000E+00
    -43.539  0.0000E+00  0.0000E+00  0.0000E+00  0.0000E+00  0.0000E+00  0.0000E+00  0.0000E+00  0.0000E+00  0.0000E+00  0.0000E+00  0.0000E+00  0.0000E+00  0.0000E+00  0.0000E+00  0.0000E+00  0.0000E+00  0.0000E+00  0.0000E+00
    -43.345  0.0000E+00  0.0000E+00  0.0000E+00  0.0000E+00  0.0000E+00  0.0000E+00  0.0000E+00  0.0000E+00  0.0000E+00  0.0000E+00  0.0000E+00  0.0000E+00  0.0000E+00  0.0000E+00  0.0000E+00  0.0000E+00  0.0000E+00  0.0000E+00
    -43.151  0.0000E+00  0.0000E+00  0.0000E+00  0.0000E+00  0.0000E+00  0.0000E+00  0.0000E+00  0.0000E+00  0.0000E+00  0.0000E+00  0.0000E+00  0.0000E+00  0.0000E+00  0.0000E+00  0.0000E+00  0.0000E+00  0.0000E+00  0.0000E+00
    -42.957  0.0000E+00  0.0000E+00  0.0000E+00  0.0000E+00  0.0000E+00  0.0000E+00  0.0000E+00  0.0000E+00  0.0000E+00  0.0000E+00  0.0000E+00  0.0000E+00  0.0000E+00  0.0000E+00  0.0000E+00  0.0000E+00  0.0000E+00  0.0000E+00
    -42.763  0.0000E+00  0.0000E+00  0.0000E+00  0.0000E+00  0.0000E+00  0.0000E+00  0.0000E+00  0.0000E+00  0.0000E+00  0.0000E+00  0.0000E+00  0.0000E+00  0.0000E+00  0.0000E+00  0.0000E+00  0.0000E+00  0.0000E+00  0.0000E+00
    -42.569  0.0000E+00  0.0000E+00  0.0000E+00  0.0000E+00  0.0000E+00  0.0000E+00  0.0000E+00  0.0000E+00  0.0000E+00  0.0000E+00  0.0000E+00  0.0000E+00  0.0000E+00  0.0000E+00  0.0000E+00  0.0000E+00  0.0000E+00  0.0000E+00
    -42.375  0.0000E+00  0.0000E+00  0.0000E+00  0.0000E+00  0.0000E+00  0.0000E+00  0.0000E+00  0.0000E+00  0.0000E+00  0.0000E+00  0.0000E+00  0.0000E+00  0.0000E+00  0.0000E+00  0.0000E+00  0.0000E+00  0.0000E+00  0.0000E+00
    -42.181  0.0000E+00  0.0000E+00  0.0000E+00  0.0000E+00  0.0000E+00  0.0000E+00  0.0000E+00  0.0000E+00  0.0000E+00  0.0000E+00  0.0000E+00  0.0000E+00  0.0000E+00  0.0000E+00  0.0000E+00  0.0000E+00  0.0000E+00  0.0000E+00
    -41.987  0.0000E+00  0.0000E+00  0.0000E+00  0.0000E+00  0.0000E+00  0.0000E+00  0.0000E+00  0.0000E+00  0.0000E+00  0.0000E+00  0.0000E+00  0.0000E+00  0.0000E+00  0.0000E+00  0.0000E+00  0.0000E+00  0.0000E+00  0.0000E+00
    -41.793  0.0000E+00  0.0000E+00  0.0000E+00  0.0000E+00  0.0000E+00  0.0000E+00  0.0000E+00  0.0000E+00  0.0000E+00  0.0000E+00  0.0000E+00  0.0000E+00  0.0000E+00  0.0000E+00  0.0000E+00  0.0000E+00  0.0000E+00  0.0000E+00
    -41.599  0.0000E+00  0.0000E+00  0.0000E+00  0.0000E+00  0.0000E+00  0.0000E+00  0.0000E+00  0.0000E+00  0.0000E+00  0.0000E+00  0.0000E+00  0.0000E+00  0.0000E+00  0.0000E+00  0.0000E+00  0.0000E+00  0.0000E+00  0.0000E+00
    -41.405  0.0000E+00  0.0000E+00  0.0000E+00  0.0000E+00  0.0000E+00  0.0000E+00  0.0000E+00  0.0000E+00  0.0000E+00  0.0000E+00  0.0000E+00  0.0000E+00  0.0000E+00  0.0000E+00  0.0000E+00  0.0000E+00  0.0000E+00  0.0000E+00
    -41.211  0.0000E+00  0.0000E+00  0.0000E+00  0.0000E+00  0.0000E+00  0.0000E+00  0.0000E+00  0.0000E+00  0.0000E+00  0.0000E+00  0.0000E+00  0.0000E+00  0.0000E+00  0.0000E+00  0.0000E+00  0.0000E+00  0.0000E+00  0.0000E+00
    -41.017  0.0000E+00  0.0000E+00  0.0000E+00  0.0000E+00  0.0000E+00  0.0000E+00  0.0000E+00  0.0000E+00  0.0000E+00  0.0000E+00  0.0000E+00  0.0000E+00  0.0000E+00  0.0000E+00  0.0000E+00  0.0000E+00  0.0000E+00  0.0000E+00
    -40.823  0.0000E+00  0.0000E+00  0.0000E+00  0.0000E+00  0.0000E+00  0.0000E+00  0.0000E+00  0.0000E+00  0.0000E+00  0.0000E+00  0.0000E+00  0.0000E+00  0.0000E+00  0.0000E+00  0.0000E+00  0.0000E+00  0.0000E+00  0.0000E+00
    -40.630  0.0000E+00  0.0000E+00  0.0000E+00  0.0000E+00  0.0000E+00  0.0000E+00  0.0000E+00  0.0000E+00  0.0000E+00  0.0000E+00  0.0000E+00  0.0000E+00  0.0000E+00  0.0000E+00  0.0000E+00  0.0000E+00  0.0000E+00  0.0000E+00
    -40.436  0.0000E+00  0.0000E+00  0.0000E+00  0.0000E+00  0.0000E+00  0.0000E+00  0.0000E+00  0.0000E+00  0.0000E+00  0.0000E+00  0.0000E+00  0.0000E+00  0.0000E+00  0.0000E+00  0.0000E+00  0.0000E+00  0.0000E+00  0.0000E+00
    -40.242  0.0000E+00  0.0000E+00  0.0000E+00  0.0000E+00  0.0000E+00  0.0000E+00  0.0000E+00  0.0000E+00  0.0000E+00  0.0000E+00  0.0000E+00  0.0000E+00  0.0000E+00  0.0000E+00  0.0000E+00  0.0000E+00  0.0000E+00  0.0000E+00
    -40.048  0.0000E+00  0.0000E+00  0.0000E+00  0.0000E+00  0.0000E+00  0.0000E+00  0.0000E+00  0.0000E+00  0.0000E+00  0.0000E+00  0.0000E+00  0.0000E+00  0.0000E+00  0.0000E+00  0.0000E+00  0.0000E+00  0.0000E+00  0.0000E+00
    -39.854  0.0000E+00  0.0000E+00  0.0000E+00  0.0000E+00  0.0000E+00  0.0000E+00  0.0000E+00  0.0000E+00  0.0000E+00  0.0000E+00  0.0000E+00  0.0000E+00  0.0000E+00  0.0000E+00  0.0000E+00  0.0000E+00  0.0000E+00  0.0000E+00
    -39.660  0.0000E+00  0.0000E+00  0.0000E+00  0.0000E+00  0.0000E+00  0.0000E+00  0.0000E+00  0.0000E+00  0.0000E+00  0.0000E+00  0.0000E+00  0.0000E+00  0.0000E+00  0.0000E+00  0.0000E+00  0.0000E+00  0.0000E+00  0.0000E+00
    -39.466  0.0000E+00  0.0000E+00  0.0000E+00  0.0000E+00  0.0000E+00  0.0000E+00  0.0000E+00  0.0000E+00  0.0000E+00  0.0000E+00  0.0000E+00  0.0000E+00  0.0000E+00  0.0000E+00  0.0000E+00  0.0000E+00  0.0000E+00  0.0000E+00
    -39.272  0.0000E+00  0.0000E+00  0.0000E+00  0.0000E+00  0.0000E+00  0.0000E+00  0.0000E+00  0.0000E+00  0.0000E+00  0.0000E+00  0.0000E+00  0.0000E+00  0.0000E+00  0.0000E+00  0.0000E+00  0.0000E+00  0.0000E+00  0.0000E+00
    -39.078  0.0000E+00  0.0000E+00  0.0000E+00  0.0000E+00  0.0000E+00  0.0000E+00  0.0000E+00  0.0000E+00  0.0000E+00  0.0000E+00  0.0000E+00  0.0000E+00  0.0000E+00  0.0000E+00  0.0000E+00  0.0000E+00  0.0000E+00  0.0000E+00
    -38.884  0.0000E+00  0.0000E+00  0.0000E+00  0.0000E+00  0.0000E+00  0.0000E+00  0.0000E+00  0.0000E+00  0.0000E+00  0.0000E+00  0.0000E+00  0.0000E+00  0.0000E+00  0.0000E+00  0.0000E+00  0.0000E+00  0.0000E+00  0.0000E+00
    -38.690  0.0000E+00  0.0000E+00  0.0000E+00  0.0000E+00  0.0000E+00  0.0000E+00  0.0000E+00  0.0000E+00  0.0000E+00  0.0000E+00  0.0000E+00  0.0000E+00  0.0000E+00  0.0000E+00  0.0000E+00  0.0000E+00  0.0000E+00  0.0000E+00
    -38.496  0.0000E+00  0.0000E+00  0.0000E+00  0.0000E+00  0.0000E+00  0.0000E+00  0.0000E+00  0.0000E+00  0.0000E+00  0.0000E+00  0.0000E+00  0.0000E+00  0.0000E+00  0.0000E+00  0.0000E+00  0.0000E+00  0.0000E+00  0.0000E+00
    -38.302  0.0000E+00  0.0000E+00  0.0000E+00  0.0000E+00  0.0000E+00  0.0000E+00  0.0000E+00  0.0000E+00  0.0000E+00  0.0000E+00  0.0000E+00  0.0000E+00  0.0000E+00  0.0000E+00  0.0000E+00  0.0000E+00  0.0000E+00  0.0000E+00
    -38.108  0.0000E+00  0.0000E+00  0.0000E+00  0.0000E+00  0.0000E+00  0.0000E+00  0.0000E+00  0.0000E+00  0.0000E+00  0.0000E+00  0.0000E+00  0.0000E+00  0.0000E+00  0.0000E+00  0.0000E+00  0.0000E+00  0.0000E+00  0.0000E+00
    -37.914  0.0000E+00  0.0000E+00  0.0000E+00  0.0000E+00  0.0000E+00  0.0000E+00  0.0000E+00  0.0000E+00  0.0000E+00  0.0000E+00  0.0000E+00  0.0000E+00  0.0000E+00  0.0000E+00  0.0000E+00  0.0000E+00  0.0000E+00  0.0000E+00
    -37.721  0.0000E+00  0.0000E+00  0.0000E+00  0.0000E+00  0.0000E+00  0.0000E+00  0.0000E+00  0.0000E+00  0.0000E+00  0.0000E+00  0.0000E+00  0.0000E+00  0.0000E+00  0.0000E+00  0.0000E+00  0.0000E+00  0.0000E+00  0.0000E+00
    -37.527  0.0000E+00  0.0000E+00  0.0000E+00  0.0000E+00  0.0000E+00  0.0000E+00  0.0000E+00  0.0000E+00  0.0000E+00  0.0000E+00  0.0000E+00  0.0000E+00  0.0000E+00  0.0000E+00  0.0000E+00  0.0000E+00  0.0000E+00  0.0000E+00
    -37.333  0.0000E+00  0.0000E+00  0.0000E+00  0.0000E+00  0.0000E+00  0.0000E+00  0.0000E+00  0.0000E+00  0.0000E+00  0.0000E+00  0.0000E+00  0.0000E+00  0.0000E+00  0.0000E+00  0.0000E+00  0.0000E+00  0.0000E+00  0.0000E+00
    -37.139  0.0000E+00  0.0000E+00  0.0000E+00  0.0000E+00  0.0000E+00  0.0000E+00  0.0000E+00  0.0000E+00  0.0000E+00  0.0000E+00  0.0000E+00  0.0000E+00  0.0000E+00  0.0000E+00  0.0000E+00  0.0000E+00  0.0000E+00  0.0000E+00
    -36.945  0.0000E+00  0.0000E+00  0.0000E+00  0.0000E+00  0.0000E+00  0.0000E+00  0.0000E+00  0.0000E+00  0.0000E+00  0.0000E+00  0.0000E+00  0.0000E+00  0.0000E+00  0.0000E+00  0.0000E+00  0.0000E+00  0.0000E+00  0.0000E+00
    -36.751  0.0000E+00  0.0000E+00  0.0000E+00  0.0000E+00  0.0000E+00  0.0000E+00  0.0000E+00  0.0000E+00  0.0000E+00  0.0000E+00  0.0000E+00  0.0000E+00  0.0000E+00  0.0000E+00  0.0000E+00  0.0000E+00  0.0000E+00  0.0000E+00
    -36.557  0.0000E+00  0.0000E+00  0.0000E+00  0.0000E+00  0.0000E+00  0.0000E+00  0.0000E+00  0.0000E+00  0.0000E+00  0.0000E+00  0.0000E+00  0.0000E+00  0.0000E+00  0.0000E+00  0.0000E+00  0.0000E+00  0.0000E+00  0.0000E+00
    -36.363  0.0000E+00  0.0000E+00  0.0000E+00  0.0000E+00  0.0000E+00  0.0000E+00  0.0000E+00  0.0000E+00  0.0000E+00  0.0000E+00  0.0000E+00  0.0000E+00  0.0000E+00  0.0000E+00  0.0000E+00  0.0000E+00  0.0000E+00  0.0000E+00
    -36.169  0.0000E+00  0.0000E+00  0.0000E+00  0.0000E+00  0.0000E+00  0.0000E+00  0.0000E+00  0.0000E+00  0.0000E+00  0.0000E+00  0.0000E+00  0.0000E+00  0.0000E+00  0.0000E+00  0.0000E+00  0.0000E+00  0.0000E+00  0.0000E+00
    -35.975  0.0000E+00  0.0000E+00  0.0000E+00  0.0000E+00  0.0000E+00  0.0000E+00  0.0000E+00  0.0000E+00  0.0000E+00  0.0000E+00  0.0000E+00  0.0000E+00  0.0000E+00  0.0000E+00  0.0000E+00  0.0000E+00  0.0000E+00  0.0000E+00
    -35.781  0.0000E+00  0.0000E+00  0.0000E+00  0.0000E+00  0.0000E+00  0.0000E+00  0.0000E+00  0.0000E+00  0.0000E+00  0.0000E+00  0.0000E+00  0.0000E+00  0.0000E+00  0.0000E+00  0.0000E+00  0.0000E+00  0.0000E+00  0.0000E+00
    -35.587  0.0000E+00  0.0000E+00  0.0000E+00  0.0000E+00  0.0000E+00  0.0000E+00  0.0000E+00  0.0000E+00  0.0000E+00  0.0000E+00  0.0000E+00  0.0000E+00  0.0000E+00  0.0000E+00  0.0000E+00  0.0000E+00  0.0000E+00  0.0000E+00
    -35.393  0.0000E+00  0.0000E+00  0.0000E+00  0.0000E+00  0.0000E+00  0.0000E+00  0.0000E+00  0.0000E+00  0.0000E+00  0.0000E+00  0.0000E+00  0.0000E+00  0.0000E+00  0.0000E+00  0.0000E+00  0.0000E+00  0.0000E+00  0.0000E+00
    -35.199  0.0000E+00  0.0000E+00  0.0000E+00  0.0000E+00  0.0000E+00  0.0000E+00  0.0000E+00  0.0000E+00  0.0000E+00  0.0000E+00  0.0000E+00  0.0000E+00  0.0000E+00  0.0000E+00  0.0000E+00  0.0000E+00  0.0000E+00  0.0000E+00
    -35.006  0.0000E+00  0.0000E+00  0.0000E+00  0.0000E+00  0.0000E+00  0.0000E+00  0.0000E+00  0.0000E+00  0.0000E+00  0.0000E+00  0.0000E+00  0.0000E+00  0.0000E+00  0.0000E+00  0.0000E+00  0.0000E+00  0.0000E+00  0.0000E+00
    -34.812  0.0000E+00  0.0000E+00  0.0000E+00  0.0000E+00  0.0000E+00  0.0000E+00  0.0000E+00  0.0000E+00  0.0000E+00  0.0000E+00  0.0000E+00  0.0000E+00  0.0000E+00  0.0000E+00  0.0000E+00  0.0000E+00  0.0000E+00  0.0000E+00