   26   26   99    2
  0.1146602E+02  0.5260542E-09  0.7215480E-09  0.8662006E-09  0.5000000E-15
  1.000000000000000E-004
  CAR 
 unknown system                          
    128     71     80
 
  0.0000000E+00  0.0000000E+00  0.0000000E+00  0.7142857E-02
    1      -41.863669    -41.863669   1.000000   1.000000
    2      -41.863007    -41.863007   1.000000   1.000000
    3      -41.727820    -41.727819   1.000000   1.000000
    4      -41.727089    -41.727088   1.000000   1.000000
    5      -41.676106    -41.676107   1.000000   1.000000
    6      -41.662502    -41.662502   1.000000   1.000000
    7      -41.636100    -41.636101   1.000000   1.000000
    8      -41.636028    -41.636028   1.000000   1.000000
    9      -20.033204    -20.033204   1.000000   1.000000
   10      -19.972515    -19.972515   1.000000   1.000000
   11      -18.787501    -18.787501   1.000000   1.000000
   12      -18.756863    -18.756863   1.000000   1.000000
   13      -17.515908    -17.515908   1.000000   1.000000
   14      -17.446063    -17.446063   1.000000   1.000000
   15      -16.918276    -16.918276   1.000000   1.000000
   16      -16.887594    -16.887594   1.000000   1.000000
   17      -16.721053    -16.721053   1.000000   1.000000
   18      -16.710232    -16.710232   1.000000   1.000000
   19      -16.648374    -16.648374   1.000000   1.000000
   20      -16.632271    -16.632271   1.000000   1.000000
   21      -16.579234    -16.579234   1.000000   1.000000
   22      -16.575652    -16.575652   1.000000   1.000000
   23       -8.538980     -8.538980   1.000000   1.000000
   24       -8.521985     -8.521985   1.000000   1.000000
   25       -6.046301     -6.046301   1.000000   1.000000
   26       -5.637894     -5.637893   1.000000   1.000000
   27       -5.038095     -5.038094   1.000000   1.000000
   28       -4.910247     -4.910246   1.000000   1.000000
   29       -4.568588     -4.568588   1.000000   1.000000
   30       -4.366005     -4.366004   1.000000   1.000000
   31       -4.241912     -4.241912   1.000000   1.000000
   32       -4.230842     -4.230842   1.000000   1.000000
   33       -3.822810     -3.822810   1.000000   1.000000
   34       -3.758739     -3.758739   1.000000   1.000000
   35       -3.698822     -3.698821   1.000000   1.000000
   36       -3.522107     -3.522107   1.000000   1.000000
   37       -3.144546     -3.144546   1.000000   1.000000
   38       -2.841717     -2.841716   1.000000   1.000000
   39       -2.405571     -2.405571   1.000000   1.000000
   40       -2.139153     -2.139153   1.000000   1.000000
   41       -2.130482     -2.130482   1.000000   1.000000
   42       -1.847323     -1.847323   1.000000   1.000000
   43       -1.808732     -1.808732   1.000000   1.000000
   44       -1.635400     -1.635400   1.000000   1.000000
   45       -1.517035     -1.517035   1.000000   1.000000
   46       -1.456240     -1.456239   1.000000   1.000000
   47       -1.393343     -1.393343   1.000000   1.000000
   48       -1.184706     -1.184706   1.000000   1.000000
   49       -1.058485     -1.058485   1.000000   1.000000
   50       -1.032833     -1.032833   1.000000   1.000000
   51       -1.002276     -1.002276   1.000000   1.000000
   52       -0.721792     -0.721792   1.000000   1.000000
   53       -0.605803     -0.605803   1.000000   1.000000
   54       -0.386341     -0.386341   1.000000   1.000000
   55       -0.251758     -0.251758   1.000000   1.000000
   56       -0.248815     -0.248814   1.000000   1.000000
   57       -0.102065     -0.102065   1.000000   1.000000
   58       -0.062112     -0.062112   1.000000   1.000000
   59       -0.042921     -0.042921   1.000000   1.000000
   60        0.086101      0.086101   1.000000   1.000000
   61        0.155956      0.155956   1.000000   1.000000
   62        0.227649      0.227649   1.000000   1.000000
   63        0.442988      0.442989   1.000000   1.000000
   64        0.455844      0.455844   1.000000   1.000000
   65        6.166281      6.166282   0.000000   0.000000
   66        8.428479      8.428479   0.000000   0.000000
   67        8.534197      8.534197   0.000000   0.000000
   68        8.735015      8.735015   0.000000   0.000000
   69        8.939899      8.939899   0.000000   0.000000
   70        9.063524      9.063524   0.000000   0.000000
   71        9.225817      9.225817   0.000000   0.000000
   72        9.468591      9.468591   0.000000   0.000000
   73        9.743398      9.743398   0.000000   0.000000
   74        9.761855      9.761855   0.000000   0.000000
   75       10.005968     10.005968   0.000000   0.000000
   76       10.303052     10.303052   0.000000   0.000000
   77       10.494211     10.494210   0.000000   0.000000
   78       10.499439     10.499439   0.000000   0.000000
   79       10.861138     10.861091   0.000000   0.000000
   80       10.944593     10.959987   0.000000   0.000000
 
  0.1428571E+00  0.0000000E+00  0.0000000E+00  0.1428571E-01
    1      -41.863640    -41.863641   1.000000   1.000000
    2      -41.862994    -41.862994   1.000000   1.000000
    3      -41.727766    -41.727766   1.000000   1.000000
    4      -41.727039    -41.727039   1.000000   1.000000
    5      -41.676044    -41.676045   1.000000   1.000000
    6      -41.662587    -41.662588   1.000000   1.000000
    7      -41.636122    -41.636123   1.000000   1.000000
    8      -41.636005    -41.636005   1.000000   1.000000
    9      -20.027935    -20.027935   1.000000   1.000000
   10      -19.972996    -19.972996   1.000000   1.000000
   11      -18.786100    -18.786100   1.000000   1.000000
   12      -18.758215    -18.758215   1.000000   1.000000
   13      -17.509553    -17.509553   1.000000   1.000000
   14      -17.446887    -17.446886   1.000000   1.000000
   15      -16.915777    -16.915777   1.000000   1.000000
   16      -16.887109    -16.887109   1.000000   1.000000
   17      -16.728516    -16.728516   1.000000   1.000000
   18      -16.716238    -16.716237   1.000000   1.000000
   19      -16.650399    -16.650399   1.000000   1.000000
   20      -16.634943    -16.634943   1.000000   1.000000
   21      -16.583307    -16.583306   1.000000   1.000000
   22      -16.579318    -16.579318   1.000000   1.000000
   23       -8.547654     -8.547654   1.000000   1.000000
   24       -8.525176     -8.525176   1.000000   1.000000
   25       -6.027618     -6.027618   1.000000   1.000000
   26       -5.637519     -5.637519   1.000000   1.000000
   27       -5.028014     -5.028013   1.000000   1.000000
   28       -4.899132     -4.899132   1.000000   1.000000
   29       -4.550526     -4.550525   1.000000   1.000000
   30       -4.359513     -4.359513   1.000000   1.000000
   31       -4.226505     -4.226505   1.000000   1.000000
   32       -4.189657     -4.189657   1.000000   1.000000
   33       -3.781834     -3.781834   1.000000   1.000000
   34       -3.752122     -3.752121   1.000000   1.000000
   35       -3.646237     -3.646237   1.000000   1.000000
   36       -3.501410     -3.501410   1.000000   1.000000
   37       -3.135037     -3.135037   1.000000   1.000000
   38       -2.805515     -2.805515   1.000000   1.000000
   39       -2.375602     -2.375602   1.000000   1.000000
   40       -2.181726     -2.181726   1.000000   1.000000
   41       -2.113840     -2.113839   1.000000   1.000000
   42       -1.909696     -1.909696   1.000000   1.000000
   43       -1.823503     -1.823503   1.000000   1.000000
   44       -1.615130     -1.615130   1.000000   1.000000
   45       -1.554068     -1.554068   1.000000   1.000000
   46       -1.430046     -1.430046   1.000000   1.000000
   47       -1.383285     -1.383285   1.000000   1.000000
   48       -1.209037     -1.209037   1.000000   1.000000
   49       -1.140021     -1.140021   1.000000   1.000000
   50       -1.097075     -1.097075   1.000000   1.000000
   51       -1.052226     -1.052226   1.000000   1.000000
   52       -0.760751     -0.760751   1.000000   1.000000
   53       -0.580095     -0.580095   1.000000   1.000000
   54       -0.404858     -0.404858   1.000000   1.000000
   55       -0.277408     -0.277407   1.000000   1.000000
   56       -0.254015     -0.254014   1.000000   1.000000
   57       -0.135640     -0.135639   1.000000   1.000000
   58       -0.100820     -0.100820   1.000000   1.000000
   59       -0.003601     -0.003600   1.000000   1.000000
   60        0.081025      0.081026   1.000000   1.000000
   61        0.171251      0.171251   1.000000   1.000000
   62        0.232956      0.232956   1.000000   1.000000
   63        0.435692      0.435692   1.000000   1.000000
   64        0.467115      0.467115   1.000000   1.000000
   65        6.365705      6.365705   0.000000   0.000000
   66        8.321832      8.321832   0.000000   0.000000
   67        8.555530      8.555530   0.000000   0.000000
   68        8.737288      8.737287   0.000000   0.000000
   69        8.869820      8.869820   0.000000   0.000000
   70        9.076763      9.076763   0.000000   0.000000
   71        9.260602      9.260602   0.000000   0.000000
   72        9.614400      9.614401   0.000000   0.000000
   73        9.628823      9.628823   0.000000   0.000000
   74        9.893694      9.893694   0.000000   0.000000
   75       10.034939     10.034939   0.000000   0.000000
   76       10.220965     10.220965   0.000000   0.000000
   77       10.364251     10.364251   0.000000   0.000000
   78       10.511641     10.511641   0.000000   0.000000
   79       10.615934     10.615934   0.000000   0.000000
   80       10.796433     10.796462   0.000000   0.000000
 
  0.2857143E+00 -0.2775558E-16  0.6938894E-17  0.1428571E-01
    1      -41.863624    -41.863624   1.000000   1.000000
    2      -41.863004    -41.863005   1.000000   1.000000
    3      -41.727674    -41.727673   1.000000   1.000000
    4      -41.726980    -41.726979   1.000000   1.000000
    5      -41.675950    -41.675950   1.000000   1.000000
    6      -41.662816    -41.662817   1.000000   1.000000
    7      -41.636190    -41.636190   1.000000   1.000000
    8      -41.636015    -41.636016   1.000000   1.000000
    9      -20.014558    -20.014558   1.000000   1.000000
   10      -19.975674    -19.975674   1.000000   1.000000
   11      -18.782761    -18.782760   1.000000   1.000000
   12      -18.761548    -18.761548   1.000000   1.000000
   13      -17.493555    -17.493555   1.000000   1.000000
   14      -17.450520    -17.450520   1.000000   1.000000
   15      -16.909638    -16.909638   1.000000   1.000000
   16      -16.886202    -16.886202   1.000000   1.000000
   17      -16.745315    -16.745315   1.000000   1.000000
   18      -16.730947    -16.730947   1.000000   1.000000
   19      -16.654416    -16.654416   1.000000   1.000000
   20      -16.641805    -16.641805   1.000000   1.000000
   21      -16.592765    -16.592764   1.000000   1.000000
   22      -16.586962    -16.586962   1.000000   1.000000
   23       -8.564173     -8.564173   1.000000   1.000000
   24       -8.535485     -8.535485   1.000000   1.000000
   25       -5.984941     -5.984940   1.000000   1.000000
   26       -5.637642     -5.637641   1.000000   1.000000
   27       -4.998747     -4.998747   1.000000   1.000000
   28       -4.884158     -4.884158   1.000000   1.000000
   29       -4.511010     -4.511010   1.000000   1.000000
   30       -4.349019     -4.349019   1.000000   1.000000
   31       -4.156947     -4.156947   1.000000   1.000000
   32       -4.111608     -4.111607   1.000000   1.000000
   33       -3.805463     -3.805463   1.000000   1.000000
   34       -3.610899     -3.610899   1.000000   1.000000
   35       -3.528337     -3.528336   1.000000   1.000000
   36       -3.434765     -3.434765   1.000000   1.000000
   37       -3.104961     -3.104961   1.000000   1.000000
   38       -2.732663     -2.732663   1.000000   1.000000
   39       -2.335279     -2.335279   1.000000   1.000000
   40       -2.201469     -2.201469   1.000000   1.000000
   41       -2.123592     -2.123592   1.000000   1.000000
   42       -1.987265     -1.987265   1.000000   1.000000
   43       -1.846253     -1.846253   1.000000   1.000000
   44       -1.670718     -1.670718   1.000000   1.000000
   45       -1.577767     -1.577767   1.000000   1.000000
   46       -1.469702     -1.469702   1.000000   1.000000
   47       -1.460055     -1.460054   1.000000   1.000000
   48       -1.315283     -1.315283   1.000000   1.000000
   49       -1.230657     -1.230657   1.000000   1.000000
   50       -1.184520     -1.184520   1.000000   1.000000
   51       -1.116958     -1.116958   1.000000   1.000000
   52       -0.848522     -0.848522   1.000000   1.000000
   53       -0.541723     -0.541723   1.000000   1.000000
   54       -0.444603     -0.444603   1.000000   1.000000
   55       -0.343020     -0.343020   1.000000   1.000000
   56       -0.278543     -0.278543   1.000000   1.000000
   57       -0.183813     -0.183813   1.000000   1.000000
   58       -0.136501     -0.136501   1.000000   1.000000
   59        0.012841      0.012841   1.000000   1.000000
   60        0.071030      0.071030   1.000000   1.000000
   61        0.214461      0.214461   1.000000   1.000000
   62        0.245834      0.245834   1.000000   1.000000
   63        0.436620      0.436620   1.000000   1.000000
   64        0.478035      0.478035   1.000000   1.000000
   65        6.877897      6.877897   0.000000   0.000000
   66        8.238326      8.238326   0.000000   0.000000
   67        8.535048      8.535048   0.000000   0.000000
   68        8.669303      8.669302   0.000000   0.000000
   69        8.888264      8.888263   0.000000   0.000000
   70        9.101844      9.101844   0.000000   0.000000
   71        9.371657      9.371657   0.000000   0.000000
   72        9.461955      9.461955   0.000000   0.000000
   73        9.640321      9.640321   0.000000   0.000000
   74        9.816394      9.816394   0.000000   0.000000
   75        9.927864      9.927864   0.000000   0.000000
   76       10.096768     10.096768   0.000000   0.000000
   77       10.120305     10.120305   0.000000   0.000000
   78       10.422281     10.422281   0.000000   0.000000
   79       10.457018     10.457017   0.000000   0.000000
   80       10.638830     10.638741   0.000000   0.000000
 
  0.4285714E+00  0.0000000E+00  0.2775558E-16  0.1428571E-01
    1      -41.863611    -41.863611   1.000000   1.000000
    2      -41.863004    -41.863004   1.000000   1.000000
    3      -41.727600    -41.727599   1.000000   1.000000
    4      -41.726929    -41.726928   1.000000   1.000000
    5      -41.675865    -41.675865   1.000000   1.000000
    6      -41.662989    -41.662990   1.000000   1.000000
    7      -41.636246    -41.636247   1.000000   1.000000
    8      -41.636012    -41.636012   1.000000   1.000000
    9      -19.999568    -19.999568   1.000000   1.000000
   10      -19.981980    -19.981980   1.000000   1.000000
   11      -18.779662    -18.779662   1.000000   1.000000
   12      -18.764648    -18.764648   1.000000   1.000000
   13      -17.474880    -17.474880   1.000000   1.000000
   14      -17.459085    -17.459084   1.000000   1.000000
   15      -16.903684    -16.903684   1.000000   1.000000
   16      -16.885647    -16.885647   1.000000   1.000000
   17      -16.758884    -16.758884   1.000000   1.000000
   18      -16.743713    -16.743713   1.000000   1.000000
   19      -16.655644    -16.655644   1.000000   1.000000
   20      -16.649459    -16.649459   1.000000   1.000000
   21      -16.601226    -16.601226   1.000000   1.000000
   22      -16.591786    -16.591786   1.000000   1.000000
   23       -8.575857     -8.575857   1.000000   1.000000
   24       -8.545432     -8.545432   1.000000   1.000000
   25       -5.948909     -5.948909   1.000000   1.000000
   26       -5.640330     -5.640330   1.000000   1.000000
   27       -4.967498     -4.967498   1.000000   1.000000
   28       -4.882254     -4.882253   1.000000   1.000000
   29       -4.480611     -4.480611   1.000000   1.000000
   30       -4.343751     -4.343751   1.000000   1.000000
   31       -4.069214     -4.069214   1.000000   1.000000
   32       -4.048201     -4.048200   1.000000   1.000000
   33       -3.841521     -3.841520   1.000000   1.000000
   34       -3.502216     -3.502216   1.000000   1.000000
   35       -3.435840     -3.435840   1.000000   1.000000
   36       -3.328334     -3.328333   1.000000   1.000000
   37       -3.068439     -3.068439   1.000000   1.000000
   38       -2.686700     -2.686700   1.000000   1.000000
   39       -2.345737     -2.345737   1.000000   1.000000
   40       -2.154497     -2.154497   1.000000   1.000000
   41       -2.102042     -2.102042   1.000000   1.000000
   42       -2.053991     -2.053991   1.000000   1.000000
   43       -1.876419     -1.876419   1.000000   1.000000
   44       -1.750405     -1.750405   1.000000   1.000000
   45       -1.673073     -1.673073   1.000000   1.000000
   46       -1.625804     -1.625804   1.000000   1.000000
   47       -1.520571     -1.520571   1.000000   1.000000
   48       -1.368303     -1.368303   1.000000   1.000000
   49       -1.251394     -1.251394   1.000000   1.000000
   50       -1.220126     -1.220126   1.000000   1.000000
   51       -1.094646     -1.094646   1.000000   1.000000
   52       -0.952804     -0.952804   1.000000   1.000000
   53       -0.536976     -0.536975   1.000000   1.000000
   54       -0.459363     -0.459363   1.000000   1.000000
   55       -0.401158     -0.401158   1.000000   1.000000
   56       -0.305337     -0.305337   1.000000   1.000000
   57       -0.195466     -0.195466   1.000000   1.000000
   58       -0.171434     -0.171434   1.000000   1.000000
   59        0.007372      0.007372   1.000000   1.000000
   60        0.081156      0.081156   1.000000   1.000000
   61        0.240931      0.240931   1.000000   1.000000
   62        0.252121      0.252121   1.000000   1.000000
   63        0.455637      0.455637   1.000000   1.000000
   64        0.475674      0.475674   1.000000   1.000000
   65        7.463900      7.463900   0.000000   0.000000
   66        8.159926      8.159926   0.000000   0.000000
   67        8.554540      8.554539   0.000000   0.000000
   68        8.754156      8.754156   0.000000   0.000000
   69        8.870615      8.870615   0.000000   0.000000
   70        9.076330      9.076330   0.000000   0.000000
   71        9.204536      9.204536   0.000000   0.000000
   72        9.337653      9.337653   0.000000   0.000000
   73        9.454923      9.454923   0.000000   0.000000
   74        9.541161      9.541161   0.000000   0.000000
   75        9.771408      9.771408   0.000000   0.000000
   76        9.851102      9.851102   0.000000   0.000000
   77       10.227506     10.227506   0.000000   0.000000
   78       10.439759     10.439769   0.000000   0.000000
   79       10.486573     10.486479   0.000000   0.000000
   80       10.530140     10.530391   0.000000   0.000000
 
  0.0000000E+00  0.2000000E+00 -0.1387779E-16  0.1428571E-01
    1      -41.863604    -41.863604   1.000000   1.000000
    2      -41.863077    -41.863077   1.000000   1.000000
    3      -41.727825    -41.727824   1.000000   1.000000
    4      -41.727078    -41.727077   1.000000   1.000000
    5      -41.676086    -41.676086   1.000000   1.000000
    6      -41.662570    -41.662570   1.000000   1.000000
    7      -41.636109    -41.636109   1.000000   1.000000
    8      -41.636000    -41.636000   1.000000   1.000000
    9      -20.024403    -20.024402   1.000000   1.000000
   10      -19.976576    -19.976576   1.000000   1.000000
   11      -18.787326    -18.787326   1.000000   1.000000
   12      -18.773319    -18.773319   1.000000   1.000000
   13      -17.498503    -17.498503   1.000000   1.000000
   14      -17.454335    -17.454335   1.000000   1.000000
   15      -16.925563    -16.925563   1.000000   1.000000
   16      -16.873326    -16.873326   1.000000   1.000000
   17      -16.722006    -16.722006   1.000000   1.000000
   18      -16.712691    -16.712690   1.000000   1.000000
   19      -16.646691    -16.646691   1.000000   1.000000
   20      -16.633026    -16.633026   1.000000   1.000000
   21      -16.579717    -16.579717   1.000000   1.000000
   22      -16.573744    -16.573744   1.000000   1.000000
   23       -8.554845     -8.554845   1.000000   1.000000
   24       -8.535536     -8.535536   1.000000   1.000000
   25       -6.034024     -6.034023   1.000000   1.000000
   26       -5.615427     -5.615427   1.000000   1.000000
   27       -5.041101     -5.041100   1.000000   1.000000
   28       -4.900685     -4.900684   1.000000   1.000000
   29       -4.551873     -4.551873   1.000000   1.000000
   30       -4.334872     -4.334872   1.000000   1.000000
   31       -4.255455     -4.255455   1.000000   1.000000
   32       -4.243269     -4.243269   1.000000   1.000000
   33       -3.836026     -3.836026   1.000000   1.000000
   34       -3.811358     -3.811358   1.000000   1.000000
   35       -3.687043     -3.687043   1.000000   1.000000
   36       -3.500129     -3.500128   1.000000   1.000000
   37       -3.095976     -3.095976   1.000000   1.000000
   38       -2.872936     -2.872936   1.000000   1.000000
   39       -2.284582     -2.284582   1.000000   1.000000
   40       -2.149418     -2.149418   1.000000   1.000000
   41       -2.129932     -2.129932   1.000000   1.000000
   42       -2.009661     -2.009661   1.000000   1.000000
   43       -1.876355     -1.876355   1.000000   1.000000
   44       -1.603159     -1.603159   1.000000   1.000000
   45       -1.517468     -1.517468   1.000000   1.000000
   46       -1.381878     -1.381878   1.000000   1.000000
   47       -1.252462     -1.252462   1.000000   1.000000
   48       -1.221535     -1.221535   1.000000   1.000000
   49       -1.061565     -1.061565   1.000000   1.000000
   50       -1.046601     -1.046601   1.000000   1.000000
   51       -1.018158     -1.018158   1.000000   1.000000
   52       -0.807942     -0.807942   1.000000   1.000000
   53       -0.621510     -0.621510   1.000000   1.000000
   54       -0.386312     -0.386311   1.000000   1.000000
   55       -0.289271     -0.289271   1.000000   1.000000
   56       -0.241089     -0.241089   1.000000   1.000000
   57       -0.116929     -0.116929   1.000000   1.000000
   58       -0.063136     -0.063136   1.000000   1.000000
   59       -0.008169     -0.008169   1.000000   1.000000
   60        0.060734      0.060734   1.000000   1.000000
   61        0.170038      0.170038   1.000000   1.000000
   62        0.244307      0.244307   1.000000   1.000000
   63        0.422619      0.422619   1.000000   1.000000
   64        0.455427      0.455427   1.000000   1.000000
   65        6.403117      6.403118   0.000000   0.000000
   66        8.134916      8.134916   0.000000   0.000000
   67        8.473258      8.473258   0.000000   0.000000
   68        8.841194      8.841194   0.000000   0.000000
   69        8.865618      8.865618   0.000000   0.000000
   70        9.113122      9.113122   0.000000   0.000000
   71        9.274223      9.274223   0.000000   0.000000
   72        9.397559      9.397559   0.000000   0.000000
   73        9.777691      9.777691   0.000000   0.000000
   74        9.793611      9.793611   0.000000   0.000000
   75        9.968702      9.968702   0.000000   0.000000
   76       10.248164     10.248164   0.000000   0.000000
   77       10.394461     10.394461   0.000000   0.000000
   78       10.636831     10.636831   0.000000   0.000000
   79       10.719302     10.719302   0.000000   0.000000
   80       11.002869     11.002803   0.000000   0.000000
 
  0.1428571E+00  0.2000000E+00  0.0000000E+00  0.1428571E-01
    1      -41.863574    -41.863574   1.000000   1.000000
    2      -41.863066    -41.863066   1.000000   1.000000
    3      -41.727766    -41.727765   1.000000   1.000000
    4      -41.727036    -41.727035   1.000000   1.000000
    5      -41.675991    -41.675992   1.000000   1.000000
    6      -41.662703    -41.662704   1.000000   1.000000
    7      -41.636123    -41.636123   1.000000   1.000000
    8      -41.635966    -41.635966   1.000000   1.000000
    9      -20.014776    -20.014775   1.000000   1.000000
   10      -19.979050    -19.979050   1.000000   1.000000
   11      -18.801098    -18.801098   1.000000   1.000000
   12      -18.766560    -18.766560   1.000000   1.000000
   13      -17.484355    -17.484355   1.000000   1.000000
   14      -17.459817    -17.459817   1.000000   1.000000
   15      -16.922181    -16.922181   1.000000   1.000000
   16      -16.869970    -16.869970   1.000000   1.000000
   17      -16.733709    -16.733709   1.000000   1.000000
   18      -16.715545    -16.715544   1.000000   1.000000
   19      -16.646177    -16.646177   1.000000   1.000000
   20      -16.638068    -16.638068   1.000000   1.000000
   21      -16.584020    -16.584020   1.000000   1.000000
   22      -16.576631    -16.576631   1.000000   1.000000
   23       -8.578757     -8.578757   1.000000   1.000000
   24       -8.538489     -8.538489   1.000000   1.000000
   25       -6.013320     -6.013319   1.000000   1.000000
   26       -5.595732     -5.595732   1.000000   1.000000
   27       -5.029240     -5.029239   1.000000   1.000000
   28       -4.887424     -4.887424   1.000000   1.000000
   29       -4.533005     -4.533005   1.000000   1.000000
   30       -4.319947     -4.319947   1.000000   1.000000
   31       -4.242811     -4.242811   1.000000   1.000000
   32       -4.229065     -4.229064   1.000000   1.000000
   33       -3.858166     -3.858166   1.000000   1.000000
   34       -3.731697     -3.731697   1.000000   1.000000
   35       -3.616987     -3.616987   1.000000   1.000000
   36       -3.502696     -3.502696   1.000000   1.000000
   37       -3.053531     -3.053531   1.000000   1.000000
   38       -2.831614     -2.831613   1.000000   1.000000
   39       -2.248959     -2.248959   1.000000   1.000000
   40       -2.182327     -2.182326   1.000000   1.000000
   41       -2.098925     -2.098925   1.000000   1.000000
   42       -2.035826     -2.035826   1.000000   1.000000
   43       -1.927126     -1.927126   1.000000   1.000000
   44       -1.635450     -1.635450   1.000000   1.000000
   45       -1.495558     -1.495558   1.000000   1.000000
   46       -1.403859     -1.403859   1.000000   1.000000
   47       -1.248828     -1.248828   1.000000   1.000000
   48       -1.233522     -1.233522   1.000000   1.000000
   49       -1.142260     -1.142260   1.000000   1.000000
   50       -1.121233     -1.121233   1.000000   1.000000
   51       -1.053370     -1.053370   1.000000   1.000000
   52       -0.885409     -0.885409   1.000000   1.000000
   53       -0.587855     -0.587855   1.000000   1.000000
   54       -0.412194     -0.412194   1.000000   1.000000
   55       -0.334035     -0.334035   1.000000   1.000000
   56       -0.243060     -0.243060   1.000000   1.000000
   57       -0.142526     -0.142526   1.000000   1.000000
   58       -0.104040     -0.104040   1.000000   1.000000
   59        0.017023      0.017024   1.000000   1.000000
   60        0.074853      0.074853   1.000000   1.000000
   61        0.202732      0.202732   1.000000   1.000000
   62        0.227175      0.227175   1.000000   1.000000
   63        0.408835      0.408835   1.000000   1.000000
   64        0.470132      0.470132   1.000000   1.000000
   65        6.729305      6.729306   0.000000   0.000000
   66        8.030386      8.030386   0.000000   0.000000
   67        8.277173      8.277173   0.000000   0.000000
   68        8.861798      8.861798   0.000000   0.000000
   69        8.915004      8.915004   0.000000   0.000000
   70        9.098607      9.098607   0.000000   0.000000
   71        9.329682      9.329682   0.000000   0.000000
   72        9.431366      9.431366   0.000000   0.000000
   73        9.810492      9.810492   0.000000   0.000000
   74        9.983176      9.983176   0.000000   0.000000
   75       10.037702     10.037702   0.000000   0.000000
   76       10.102979     10.102979   0.000000   0.000000
   77       10.227941     10.227942   0.000000   0.000000
   78       10.501788     10.501788   0.000000   0.000000
   79       10.750164     10.750152   0.000000   0.000000
   80       10.809010     10.808859   0.000000   0.000000
 
  0.2857143E+00  0.2000000E+00 -0.1387779E-16  0.1428571E-01
    1      -41.863550    -41.863551   1.000000   1.000000
    2      -41.863058    -41.863059   1.000000   1.000000
    3      -41.727661    -41.727660   1.000000   1.000000
    4      -41.726966    -41.726965   1.000000   1.000000
    5      -41.675907    -41.675907   1.000000   1.000000
    6      -41.662877    -41.662877   1.000000   1.000000
    7      -41.636176    -41.636176   1.000000   1.000000
    8      -41.635981    -41.635981   1.000000   1.000000
    9      -20.001567    -20.001567   1.000000   1.000000
   10      -19.983162    -19.983161   1.000000   1.000000
   11      -18.805226    -18.805226   1.000000   1.000000
   12      -18.756248    -18.756248   1.000000   1.000000
   13      -17.470031    -17.470031   1.000000   1.000000
   14      -17.464913    -17.464913   1.000000   1.000000
   15      -16.917548    -16.917548   1.000000   1.000000
   16      -16.870339    -16.870339   1.000000   1.000000
   17      -16.751593    -16.751593   1.000000   1.000000
   18      -16.728653    -16.728653   1.000000   1.000000
   19      -16.648623    -16.648623   1.000000   1.000000
   20      -16.645328    -16.645328   1.000000   1.000000
   21      -16.594060    -16.594060   1.000000   1.000000
   22      -16.585015    -16.585015   1.000000   1.000000
   23       -8.590494     -8.590494   1.000000   1.000000
   24       -8.541173     -8.541173   1.000000   1.000000
   25       -5.981457     -5.981457   1.000000   1.000000
   26       -5.592635     -5.592635   1.000000   1.000000