       N       E                     dE             d eps       ncg     rms          rms(c)
DAV:   1     0.116297366385E+04    0.11630E+04   -0.62835E+04 22720   0.164E+03
DAV:   2    -0.641448162087E+02   -0.12271E+04   -0.11636E+04 27288   0.421E+02
DAV:   3    -0.178750656468E+03   -0.11461E+03   -0.11398E+03 28584   0.133E+02
DAV:   4    -0.188768530638E+03   -0.10018E+02   -0.99806E+01 42608   0.326E+01
DAV:   5    -0.190646618339E+03   -0.18781E+01   -0.18776E+01 33504   0.810E+00    0.456E+01
RMM:   6    -0.168939564019E+03    0.21707E+02   -0.10530E+02 22720   0.293E+01    0.183E+01
RMM:   7    -0.168237616533E+03    0.70195E+00   -0.46258E+00 32240   0.581E+00    0.846E+00
RMM:   8    -0.168264466592E+03   -0.26850E-01   -0.13482E+00 28873   0.447E+00    0.161E+00
RMM:   9    -0.168240968747E+03    0.23498E-01   -0.41780E-01 30140   0.187E+00    0.538E-01
RMM:  10    -0.168257595002E+03   -0.16626E-01   -0.11946E-01 35934   0.767E-01    0.423E-01
RMM:  11    -0.168262764043E+03   -0.51690E-02   -0.40706E-02 33251   0.570E-01    0.170E-01
RMM:  12    -0.168263862587E+03   -0.10985E-02   -0.14836E-02 35189   0.286E-01    0.818E-02
RMM:  13    -0.168264536198E+03   -0.67361E-03   -0.66584E-03 35896   0.187E-01    0.961E-02
RMM:  14    -0.168264577178E+03   -0.40980E-04   -0.20621E-03 35555   0.116E-01    0.392E-02
RMM:  15    -0.168264645221E+03   -0.68043E-04   -0.90315E-04 33761   0.654E-02    0.261E-02
RMM:  16    -0.168264644457E+03    0.76385E-06   -0.20621E-04 32177   0.394E-02    0.843E-03
RMM:  17    -0.168264643039E+03    0.14189E-05   -0.66571E-07 16933   0.252E-02
   1 F= -.16826464E+03 E0= -.16826464E+03  d E =-.168265E+03  mag=    -0.0000
       N       E                     dE             d eps       ncg     rms          rms(c)
DAV:   1    -0.168297892329E+03   -0.33248E-01   -0.22270E+00 27248   0.625E+00    0.125E+00
RMM:   2    -0.168277755510E+03    0.20137E-01   -0.15117E-01 23297   0.129E+00    0.332E-01
RMM:   3    -0.168272790233E+03    0.49653E-02   -0.14991E-02 24993   0.349E-01    0.147E-01
RMM:   4    -0.168272180835E+03    0.60940E-03   -0.21088E-03 25170   0.126E-01    0.861E-02
RMM:   5    -0.168272157140E+03    0.23696E-04   -0.21006E-04 29822   0.496E-02    0.387E-02
RMM:   6    -0.168272162639E+03   -0.54996E-05   -0.43288E-05 18696   0.233E-02
   2 F= -.16827216E+03 E0= -.16827216E+03  d E =-.751960E-02  mag=    -0.0000
       N       E                     dE             d eps       ncg     rms          rms(c)
DAV:   1    -0.168275959398E+03   -0.38023E-02   -0.27869E-01 26648   0.221E+00    0.445E-01
RMM:   2    -0.168273275491E+03    0.26839E-02   -0.18206E-02 23301   0.454E-01    0.117E-01
RMM:   3    -0.168272723642E+03    0.55185E-03   -0.18287E-03 25582   0.123E-01    0.525E-02
RMM:   4    -0.168272652085E+03    0.71556E-04   -0.26242E-04 26355   0.454E-02    0.304E-02
RMM:   5    -0.168272651934E+03    0.15137E-06   -0.27614E-05 16677   0.186E-02
   3 F= -.16827265E+03 E0= -.16827265E+03  d E =-.800890E-02  mag=    -0.0000
       N       E                     dE             d eps       ncg     rms          rms(c)
DAV:   1    -0.168283397383E+03   -0.10745E-01   -0.42702E-01 24992   0.284E+00    0.727E-01
RMM:   2    -0.168277197559E+03    0.61998E-02   -0.40186E-02 23507   0.651E-01    0.218E-01
RMM:   3    -0.168275796905E+03    0.14007E-02   -0.43644E-03 25647   0.193E-01    0.865E-02
RMM:   4    -0.168275621644E+03    0.17526E-03   -0.44752E-04 27478   0.656E-02    0.429E-02
RMM:   5    -0.168275615387E+03    0.62570E-05   -0.65601E-05 22795   0.269E-02
   4 F= -.16827562E+03 E0= -.16827562E+03  d E =-.296345E-02  mag=    -0.0000
       N       E                     dE             d eps       ncg     rms          rms(c)
DAV:   1    -0.168276158568E+03   -0.53692E-03   -0.24469E-02 27232   0.681E-01    0.171E-01
RMM:   2    -0.168275818837E+03    0.33973E-03   -0.23439E-03 24053   0.155E-01    0.533E-02
RMM:   3    -0.168275731601E+03    0.87236E-04   -0.26447E-04 26272   0.478E-02    0.211E-02
RMM:   4    -0.168275722041E+03    0.95593E-05   -0.25032E-05 15888   0.168E-02
   5 F= -.16827572E+03 E0= -.16827572E+03  d E =-.307011E-02  mag=    -0.0000
       N       E                     dE             d eps       ncg     rms          rms(c)
DAV:   1    -0.168276076616E+03   -0.34502E-03   -0.29751E-02 25024   0.729E-01    0.116E-01
RMM:   2    -0.168276108275E+03   -0.31659E-04   -0.11543E-03 25678   0.118E-01    0.417E-02
RMM:   3    -0.168276063770E+03    0.44505E-04   -0.76734E-05 22959   0.300E-02    0.185E-02
RMM:   4    -0.168276057600E+03    0.61704E-05   -0.17464E-05 14771   0.150E-02
   6 F= -.16827606E+03 E0= -.16827606E+03  d E =-.335558E-03  mag=     0.0000
       N       E                     dE             d eps       ncg     rms          rms(c)
DAV:   1    -0.168276084179E+03   -0.20409E-04   -0.48128E-03 27264   0.294E-01    0.465E-02
RMM:   2    -0.168276089799E+03   -0.56202E-05   -0.19218E-04 25105   0.485E-02    0.172E-02
RMM:   3    -0.168276082210E+03    0.75891E-05   -0.96591E-06 13755   0.141E-02
   7 F= -.16827608E+03 E0= -.16827608E+03  d E =-.360168E-03  mag=    -0.0000
       N       E                     dE             d eps       ncg     rms          rms(c)
DAV:   1    -0.168276262950E+03   -0.17315E-03   -0.30056E-02 24768   0.728E-01    0.727E-02
RMM:   2    -0.168276310790E+03   -0.47840E-04   -0.72305E-04 27511   0.980E-02    0.263E-02
RMM:   3    -0.168276295804E+03    0.14986E-04   -0.41317E-05 19897   0.214E-02    0.133E-02
RMM:   4    -0.168276292811E+03    0.29925E-05   -0.76130E-06 13993   0.138E-02
   8 F= -.16827629E+03 E0= -.16827629E+03  d E =-.210602E-03  mag=    -0.0000
       N       E                     dE             d eps       ncg     rms          rms(c)
DAV:   1    -0.168276264687E+03    0.31117E-04   -0.95141E-02 24032   0.130E+00    0.129E-01
RMM:   2    -0.168276421577E+03   -0.15689E-03   -0.23102E-03 27678   0.175E-01    0.454E-02
RMM:   3    -0.168276376894E+03    0.44683E-04   -0.12698E-04 26725   0.386E-02    0.234E-02
RMM:   4    -0.168276372057E+03    0.48377E-05   -0.56902E-05 21567   0.230E-02
   9 F= -.16827637E+03 E0= -.16827637E+03  d E =-.289847E-03  mag=    -0.0000
       N       E                     dE             d eps       ncg     rms          rms(c)
DAV:   1    -0.168276477247E+03   -0.10035E-03   -0.29037E-02 24912   0.705E-01    0.139E-01
RMM:   2    -0.168276540714E+03   -0.63466E-04   -0.97898E-04 26191   0.108E-01    0.325E-02
RMM:   3    -0.168276513061E+03    0.27653E-04   -0.51641E-05 21379   0.243E-02    0.147E-02
RMM:   4    -0.168276509907E+03    0.31539E-05   -0.19803E-05 15914   0.144E-02
  10 F= -.16827651E+03 E0= -.16827651E+03  d E =-.137850E-03  mag=     0.0000
       N       E                     dE             d eps       ncg     rms          rms(c)
DAV:   1    -0.168276515588E+03   -0.25270E-05   -0.62319E-04 27208   0.102E-01    0.207E-02
RMM:   2    -0.168276516364E+03   -0.77637E-06   -0.18164E-05 14264   0.162E-02
  11 F= -.16827652E+03 E0= -.16827652E+03  d E =-.144307E-03  mag=     0.0000
       N       E                     dE             d eps       ncg     rms          rms(c)
DAV:   1    -0.168276570947E+03   -0.55360E-04   -0.14807E-02 24120   0.515E-01    0.601E-02
RMM:   2    -0.168276601729E+03   -0.30782E-04   -0.40798E-04 26427   0.728E-02    0.181E-02
RMM:   3    -0.168276591568E+03    0.10162E-04   -0.16305E-05 14362   0.151E-02    0.925E-03
RMM:   4    -0.168276590167E+03    0.14001E-05   -0.12451E-05 14156   0.112E-02
  12 F= -.16827659E+03 E0= -.16827659E+03  d E =-.738034E-04  mag=     0.0000
       N       E                     dE             d eps       ncg     rms          rms(c)
DAV:   1    -0.168276591032E+03    0.53532E-06   -0.18211E-03 27264   0.181E-01    0.214E-02
RMM:   2    -0.168276595220E+03   -0.41883E-05   -0.53373E-05 20143   0.269E-02
  13 F= -.16827660E+03 E0= -.16827660E+03  d E =-.788564E-04  mag=     0.0000
