unknown system                          
           1
    -5.260542    0.000000    0.000000
     2.599490    6.730959    0.000000
    -0.002996   -2.035903   -8.419349
   Li   P    O 
   8   4  14
Direct configuration=     1
   0.25553700  0.14497700  0.01202900
   0.74446300  0.85502300  0.98797100
   0.60432300  0.58872700  0.24834700
   0.39567700  0.41127300  0.75165300
   0.97223100  0.32773800  0.20872400
   0.02776900  0.67226200  0.79127600
   0.94304800  0.24188600  0.54920400
   0.05695200  0.75811400  0.45079600
   0.42601000  0.21329800  0.36804400
   0.57399000  0.78670200  0.63195600
   0.21572800  0.77924100  0.15449800
   0.78427200  0.22075900  0.84550200
   0.48008800  0.74175900  0.12566000
   0.99387000  0.60572000  0.20931600
   0.00613000  0.39428000  0.79068400
   0.11708900  0.84859100  0.01802400
   0.26743900  0.74335000  0.62354500
   0.73256100  0.25665000  0.37645500
   0.68515600  0.73218900  0.47381000
   0.31484400  0.26781100  0.52619000
   0.66177800  0.70240300  0.76349600
   0.33822200  0.29759700  0.23650400
   0.26693100  0.96238400  0.31610600
   0.73306900  0.03761600  0.68389400
   0.88291100  0.15140900  0.98197600
   0.51991200  0.25824100  0.87434000
unknown system                          
           1
    -5.249542   -0.000118    0.000166
     2.594205    6.720310   -0.002239
    -0.002770   -2.029966   -8.402064
   Li   P    O 
   8   4  14
Direct configuration=     2
   0.25567158  0.14510435  0.01200312
   0.74432842  0.85489565  0.98799688
   0.60435538  0.58899310  0.24849709
   0.39564462  0.41100690  0.75150291
   0.97212723  0.32785242  0.20880948
   0.02787277  0.67214758  0.79119052
   0.94324543  0.24186127  0.54892651
   0.05675457  0.75813873  0.45107349
   0.42595899  0.21322395  0.36783931
   0.57404101  0.78677605  0.63216069
   0.21570138  0.77924624  0.15456315
   0.78429862  0.22075376  0.84543685
   0.48094736  0.74177382  0.12564527
   0.99342050  0.60530174  0.20949654
   0.00657950  0.39469826  0.79050346
   0.11664460  0.84872876  0.01772615
   0.26643505  0.74332684  0.62349389
   0.73356495  0.25667316  0.37650611
   0.68592958  0.73196744  0.47327513
   0.31407042  0.26803256  0.52672487
   0.66195173  0.70228704  0.76383210
   0.33804827  0.29771296  0.23616790
   0.26667897  0.96227898  0.31613696
   0.73332103  0.03772102  0.68386304
   0.88335540  0.15127124  0.98227385
   0.51905264  0.25822618  0.87435473
unknown system                          
           1
    -5.245653   -0.000159    0.000224
     2.592337    6.716545   -0.003031
    -0.002690   -2.027867   -8.395953
   Li   P    O 
   8   4  14
Direct configuration=     3
   0.25571924  0.14514944  0.01199394
   0.74428076  0.85485056  0.98800606
   0.60436682  0.58908730  0.24855024
   0.39563318  0.41091270  0.75144976
   0.97209046  0.32789292  0.20883975
   0.02790954  0.67210708  0.79116025
   0.94331539  0.24185255  0.54882821
   0.05668461  0.75814745  0.45117179
   0.42594093  0.21319776  0.36776680
   0.57405907  0.78680224  0.63223320
   0.21569194  0.77924808  0.15458623
   0.78430806  0.22075192  0.84541377
   0.48125180  0.74177908  0.12564006
   0.99326129  0.60515364  0.20956053
   0.00673871  0.39484636  0.79043947
   0.11648716  0.84877755  0.01762062
   0.26607938  0.74331863  0.62347578
   0.73392062  0.25668137  0.37652422
   0.68620368  0.73188906  0.47308567
   0.31379632  0.26811094  0.52691433
   0.66201328  0.70224596  0.76395118
   0.33798672  0.29775404  0.23604882
   0.26658969  0.96224179  0.31614793
   0.73341031  0.03775821  0.68385207
   0.88351284  0.15122245  0.98237938
   0.51874820  0.25822092  0.87435994
unknown system                          
           1
    -5.237909   -0.000337   -0.000510
     2.588736    6.711953   -0.004380
    -0.003930   -2.024310   -8.385653
   Li   P    O 
   8   4  14
Direct configuration=     4
   0.25576867  0.14521616  0.01197406
   0.74423133  0.85478384  0.98802594
   0.60439845  0.58923862  0.24863623
   0.39560155  0.41076138  0.75136377
   0.97203732  0.32796210  0.20887765
   0.02796268  0.67203790  0.79112235
   0.94342961  0.24184728  0.54867522
   0.05657039  0.75815272  0.45132478
   0.42605118  0.21342178  0.36807990
   0.57394882  0.78657822  0.63192010
   0.21568272  0.77903820  0.15443439
   0.78431728  0.22096180  0.84556561
   0.48153250  0.74182905  0.12566406
   0.99308744  0.60495336  0.20964055
   0.00691256  0.39504664  0.79035945
   0.11633032  0.84881826  0.01751173
   0.26587987  0.74337569  0.62346492
   0.73412013  0.25662431  0.37653508
   0.68633954  0.73188724  0.47313883
   0.31366046  0.26811276  0.52686117
   0.66208407  0.70215505  0.76417159
   0.33791593  0.29784495  0.23582841
   0.26644152  0.96223163  0.31625563
   0.73355848  0.03776837  0.68374437
   0.88366968  0.15118174  0.98248827
   0.51846750  0.25817095  0.87433594
unknown system                          
           1
    -5.236058   -0.000380   -0.000685
     2.587876    6.710856   -0.004702
    -0.004226   -2.023460   -8.383192
   Li   P    O 
   8   4  14
Direct configuration=     5
   0.25578049  0.14523212  0.01196930
   0.74421951  0.85476788  0.98803070
   0.60440600  0.58927480  0.24865680
   0.39559400  0.41072520  0.75134320
   0.97202459  0.32797864  0.20888672
   0.02797541  0.67202136  0.79111328
   0.94345696  0.24184602  0.54863861
   0.05654304  0.75815398  0.45136139
   0.42607752  0.21347534  0.36815481
   0.57392248  0.78652466  0.63184519
   0.21568054  0.77898801  0.15439806
   0.78431946  0.22101199  0.84560194
   0.48159968  0.74184100  0.12566979
   0.99304585  0.60490546  0.20965971
   0.00695415  0.39509454  0.79034029
   0.11629278  0.84882800  0.01748568
   0.26583212  0.74338933  0.62346232
   0.73416788  0.25661067  0.37653768
   0.68637205  0.73188680  0.47315154
   0.31362795  0.26811320  0.52684846
   0.66210101  0.70213330  0.76422433
   0.33789899  0.29786670  0.23577567
   0.26640605  0.96222920  0.31628140
   0.73359395  0.03777080  0.68371860
   0.88370722  0.15117200  0.98251432
   0.51840032  0.25815900  0.87433021
unknown system                          
           1
    -5.234948   -0.000379   -0.000570
     2.587327    6.710918   -0.005597
    -0.004040   -2.022432   -8.382613
   Li   P    O 
   8   4  14
Direct configuration=     6
   0.25575763  0.14523586  0.01197117
   0.74424237  0.85476414  0.98802883
   0.60442339  0.58929970  0.24867038
   0.39557661  0.41070030  0.75132962
   0.97202203  0.32799205  0.20888300
   0.02797797  0.67200795  0.79111700
   0.94346823  0.24184497  0.54861680
   0.05653177  0.75815503  0.45138320
   0.42613199  0.21355185  0.36810620
   0.57386801  0.78644815  0.63189380
   0.21555759  0.77890118  0.15432433
   0.78444241  0.22109882  0.84567567
   0.48170167  0.74184455  0.12567627
   0.99303252  0.60484275  0.20965456
   0.00696748  0.39515725  0.79034544
   0.11633009  0.84879030  0.01745929
   0.26589716  0.74341486  0.62344448
   0.73410284  0.25658514  0.37655552
   0.68631602  0.73184615  0.47313684
   0.31368398  0.26815385  0.52686316
   0.66201345  0.70209059  0.76419965
   0.33798655  0.29790941  0.23580035
   0.26635597  0.96224786  0.31638423
   0.73364403  0.03775214  0.68361577
   0.88366991  0.15120970  0.98254071
   0.51829833  0.25815545  0.87432373
unknown system                          
           1
    -5.234499   -0.000379   -0.000523
     2.587105    6.710943   -0.005959
    -0.003965   -2.022016   -8.382378
   Li   P    O 
   8   4  14
Direct configuration=     7
   0.25574838  0.14523737  0.01197192
   0.74425162  0.85476263  0.98802808
   0.60443043  0.58930978  0.24867587
   0.39556957  0.41069022  0.75132413
   0.97202099  0.32799748  0.20888149
   0.02797901  0.67200252  0.79111851
   0.94347279  0.24184455  0.54860797
   0.05652721  0.75815545  0.45139203
   0.42615404  0.21358282  0.36808651
   0.57384596  0.78641718  0.63191349
   0.21550781  0.77886602  0.15429448
   0.78449219  0.22113398  0.84570552
   0.48174297  0.74184598  0.12567890
   0.99302712  0.60481736  0.20965247
   0.00697288  0.39518264  0.79034753
   0.11634520  0.84877504  0.01744860
   0.26592349  0.74342520  0.62343726
   0.73407651  0.25657480  0.37656274
   0.68629333  0.73182970  0.47313089
   0.31370667  0.26817030  0.52686911
   0.66197799  0.70207330  0.76418966
   0.33802201  0.29792670  0.23581034
   0.26633569  0.96225541  0.31642587
   0.73366431  0.03774459  0.68357413
   0.88365480  0.15122496  0.98255140
   0.51825703  0.25815402  0.87432110
unknown system                          
           1
    -5.233983   -0.000404   -0.000656
     2.586882    6.711562   -0.006343
    -0.004186   -2.021637   -8.382828
   Li   P    O 
   8   4  14
Direct configuration=     8
   0.25571389  0.14523856  0.01197881
   0.74428611  0.85476144  0.98802119
   0.60445473  0.58933893  0.24869494
   0.39554527  0.41066107  0.75130506
   0.97202134  0.32801062  0.20887937
   0.02797866  0.67198938  0.79112063
   0.94347651  0.24183354  0.54858965
   0.05652349  0.75816646  0.45141035
   0.42610367  0.21357824  0.36808416
   0.57389633  0.78642176  0.63191584
   0.21550586  0.77882422  0.15431839
   0.78449414  0.22117578  0.84568161
   0.48179945  0.74185096  0.12568967
   0.99299785  0.60472886  0.20963362
   0.00700215  0.39527114  0.79036638
   0.11637158  0.84873202  0.01737294
   0.26590804  0.74343526  0.62341976
   0.73409196  0.25656474  0.37658024
   0.68618166  0.73176182  0.47312602
   0.31381834  0.26823818  0.52687398
   0.66188010  0.70198058  0.76419862
   0.33811990  0.29801942  0.23580138
   0.26625124  0.96223384  0.31650198
   0.73374876  0.03776616  0.68349802
   0.88362842  0.15126798  0.98262706
   0.51820055  0.25814904  0.87431033
unknown system                          
           1
    -5.233064   -0.000449   -0.000891
     2.586485    6.712664   -0.007027
    -0.004580   -2.020964   -8.383629
   Li   P    O 
   8   4  14
Direct configuration=     9
   0.25565250  0.14524068  0.01199106
   0.74434750  0.85475932  0.98800894
   0.60449798  0.58939081  0.24872887
   0.39550202  0.41060919  0.75127113
   0.97202197  0.32803401  0.20887561
   0.02797803  0.67196599  0.79112439
   0.94348313  0.24181394  0.54855703
   0.05651687  0.75818606  0.45144297
   0.42601400  0.21357009  0.36807999
   0.57398600  0.78642991  0.63192001
   0.21550240  0.77874981  0.15436096
   0.78449760  0.22125019  0.84563904
   0.48189998  0.74185981  0.12570883
   0.99294577  0.60457134  0.20960008
   0.00705423  0.39542866  0.79039992
   0.11641854  0.84865547  0.01723826
   0.26588055  0.74345318  0.62338861
   0.73411945  0.25654682  0.37661139
   0.68598287  0.73164101  0.47311735
   0.31401713  0.26835899  0.52688265
   0.66170584  0.70181555  0.76421459
   0.33829416  0.29818445  0.23578541
   0.26610089  0.96219544  0.31663746
   0.73389911  0.03780456  0.68336254
   0.88358146  0.15134453  0.98276174
   0.51810002  0.25814019  0.87429117
unknown system                          
           1
    -5.232946   -0.000358   -0.000703
     2.586311    6.712077   -0.007192
    -0.004243   -2.020710   -8.383109
   Li   P    O 
   8   4  14
Direct configuration=    10
   0.25562698  0.14523599  0.01200374
   0.74437302  0.85476401  0.98799626
   0.60451607  0.58940407  0.24874544
   0.39548393  0.41059593  0.75125456
   0.97201468  0.32803147  0.20887870
   0.02798532  0.67196853  0.79112130
   0.94348989  0.24180713  0.54854428
   0.05651011  0.75819287  0.45145572
   0.42610562  0.21354373  0.36806507
   0.57389438  0.78645627  0.63193493
   0.21552079  0.77883892  0.15435206
   0.78447921  0.22116108  0.84564794
   0.48187191  0.74187553  0.12574032
   0.99298960  0.60458753  0.20957766
   0.00701040  0.39541247  0.79042234
   0.11650516  0.84858912  0.01731790
   0.26589462  0.74347921  0.62340901
   0.73410538  0.25652079  0.37659099
   0.68597811  0.73158095  0.47308711
   0.31402189  0.26841905  0.52691289
   0.66167714  0.70180499  0.76421733
   0.33832286  0.29819501  0.23578267
   0.26599896  0.96211356  0.31656404
   0.73400104  0.03788644  0.68343596
   0.88349484  0.15141088  0.98268210
   0.51812809  0.25812447  0.87425968
unknown system                          
           1
    -5.232963   -0.000371   -0.000730
     2.586336    6.712161   -0.007168
    -0.004292   -2.020747   -8.383183
   Li   P    O 
   8   4  14
Direct configuration=    11
   0.25563062  0.14523666  0.01200193
   0.74436938  0.85476334  0.98799807
   0.60451349  0.58940218  0.24874308
   0.39548651  0.41059782  0.75125692
   0.97201572  0.32803183  0.20887826
   0.02798428  0.67196817  0.79112174
   0.94348893  0.24180810  0.54854610
   0.05651107  0.75819190  0.45145390
   0.42609255  0.21354749  0.36806720
   0.57390745  0.78645251  0.63193280
   0.21551816  0.77882621  0.15435333
   0.78448184  0.22117379  0.84564667
   0.48187592  0.74187328  0.12573583
   0.99298335  0.60458522  0.20958085
   0.00701665  0.39541478  0.79041915
   0.11649281  0.84859858  0.01730654
   0.26589262  0.74347550  0.62340610
   0.73410738  0.25652450  0.37659390
   0.68597879  0.73158951  0.47309142
   0.31402121  0.26841049  0.52690858
   0.66168123  0.70180649  0.76421694
   0.33831877  0.29819351  0.23578306
   0.26601350  0.96212524  0.31657451
   0.73398650  0.03787476  0.68342549
   0.88350719  0.15140142  0.98269346
   0.51812408  0.25812672  0.87426417
unknown system                          
           1
    -5.233224   -0.000388   -0.000824
     2.586486    6.711697   -0.007009
    -0.004450   -2.020745   -8.383173
   Li   P    O 
   8   4  14
Direct configuration=    12
   0.25560066  0.14523469  0.01201580
   0.74439934  0.85476531  0.98798420
   0.60453741  0.58942195  0.24876173
   0.39546259  0.41057805  0.75123827
   0.97201160  0.32803750  0.20887912
   0.02798840  0.67196250  0.79112088
   0.94350080  0.24180043  0.54853409
   0.05649920  0.75819957  0.45146591
   0.42608388  0.21352308  0.36808310
   0.57391612  0.78647692  0.63191690
   0.21556385  0.77882873  0.15440157
   0.78443615  0.22117127  0.84559843
   0.48187761  0.74190410  0.12577365
   0.99303559  0.60460109  0.20955140
   0.00696441  0.39539891  0.79044860
   0.11653872  0.84856976  0.01731606
   0.26585215  0.74351286  0.62343103
   0.73414785  0.25648714  0.37656897
   0.68593105  0.73153930  0.47310568
   0.31406895  0.26846070  0.52689432
   0.66163916  0.70180121  0.76422044
   0.33836084  0.29819879  0.23577956
   0.26591581  0.96209230  0.31652411
   0.73408419  0.03790770  0.68347589
   0.88346128  0.15143024  0.98268394
   0.51812239  0.25809590  0.87422635
unknown system                          
           1
    -5.233316   -0.000394   -0.000858
     2.586539    6.711535   -0.006953
    -0.004505   -2.020744   -8.383169
   Li   P    O 
   8   4  14
Direct configuration=    13
   0.25559014  0.14523400  0.01202068
   0.74440986  0.85476600  0.98797932
   0.60454581  0.58942889  0.24876828
   0.39545419  0.41057111  0.75123172
   0.97201015  0.32803950  0.20887943
   0.02798985  0.67196050  0.79112057
   0.94350497  0.24179774  0.54852987
   0.05649503  0.75820226  0.45147013
   0.42608083  0.21351450  0.36808868
   0.57391917  0.78648550  0.63191132
   0.21557990  0.77882962  0.15441852
   0.78442010  0.22117038  0.84558148
   0.48187820  0.74191493  0.12578693
   0.99305394  0.60460667  0.20954105
   0.00694606  0.39539333  0.79045895
   0.11655485  0.84855963  0.01731941
   0.26583794  0.74352599  0.62343979
   0.73416206  0.25647401  0.37656021
   0.68591427  0.73152165  0.47311070
   0.31408573  0.26847835  0.52688930
   0.66162438  0.70179936  0.76422167
   0.33837562  0.29820064  0.23577833
   0.26588149  0.96208073  0.31650641
   0.73411851  0.03791927  0.68349359
   0.88344515  0.15144037  0.98268059
   0.51812180  0.25808507  0.87421307
