       N       E                     dE             d eps       ncg     rms          rms(c)
DAV:   1     0.452580533472E+02    0.45258E+02   -0.55753E+03 20864   0.101E+03
DAV:   2    -0.937887263981E+01   -0.54637E+02   -0.52539E+02 24924   0.223E+02
DAV:   3    -0.151942169309E+02   -0.58153E+01   -0.57755E+01 39512   0.532E+01
DAV:   4    -0.152476949864E+02   -0.53478E-01   -0.53466E-01 23888   0.656E+00
DAV:   5    -0.152481062079E+02   -0.41122E-03   -0.41122E-03 29428   0.475E-01    0.116E+01
RMM:   6    -0.141181306008E+02    0.11300E+01   -0.37503E+00 22876   0.126E+01    0.508E+00
RMM:   7    -0.142031263818E+02   -0.84996E-01   -0.15182E-01 25540   0.321E+00    0.200E+00
RMM:   8    -0.141986498774E+02    0.44765E-02   -0.61929E-02 29222   0.247E+00    0.116E+00
RMM:   9    -0.142116231156E+02   -0.12973E-01   -0.32576E-02 29996   0.205E+00    0.264E-01
RMM:  10    -0.142124856439E+02   -0.86253E-03   -0.10148E-02 34726   0.751E-01    0.153E-01
RMM:  11    -0.142136396207E+02   -0.11540E-02   -0.61148E-03 32647   0.612E-01    0.191E-01
RMM:  12    -0.142133861825E+02    0.25344E-03   -0.19216E-03 33882   0.338E-01    0.838E-02
RMM:  13    -0.142133982666E+02   -0.12084E-04   -0.90190E-04 33789   0.229E-01    0.208E-02
RMM:  14    -0.142134479350E+02   -0.49668E-04   -0.40844E-04 33740   0.129E-01    0.253E-02
RMM:  15    -0.142134728376E+02   -0.24903E-04   -0.14804E-04 30572   0.831E-02    0.383E-02
RMM:  16    -0.142134689179E+02    0.39197E-05   -0.66918E-05 28679   0.584E-02
   1 F= -.14213469E+02 E0= -.14213469E+02  d E =0.000000E+00  mag=    -0.0000
