    4    4    1    2
  0.1066698E+02  0.3232048E-09  0.3232048E-09  0.4886580E-09  0.5000000E-15
  1.000000000000000E-004
  CAR 
 unknown system                          
     18    234     16
 
  0.0000000E+00  0.0000000E+00  0.0000000E+00  0.1180638E-02
    1      -42.711026    -42.710432   1.000000   1.000000
    2      -21.857922    -21.857974   1.000000   1.000000
    3      -17.437554    -17.437615   1.000000   1.000000
    4       -6.404702     -6.404769   1.000000   1.000000
    5       -5.058918     -5.058982   1.000000   1.000000
    6       -4.990282     -4.990343   1.000000   1.000000
    7       -3.259825     -3.259907   1.000000   1.000000
    8        1.017439      1.017337   1.000000   1.000000
    9        1.097700      1.097595   1.000000   1.000000
   10        6.950484      6.950491   0.000000   0.000000
   11        7.030405      7.030355   0.000000   0.000000
   12        7.445846      7.445773   0.000000   0.000000
   13       10.804217     10.804368   0.000000   0.000000
   14       12.636163     12.636161   0.000000   0.000000
   15       15.367295     15.367502   0.000000   0.000000
   16       15.407565     15.407658   0.000000   0.000000
 
  0.9090909E-01 -0.1110202E-16 -0.2392037E-17  0.4722550E-02
    1      -42.710477    -42.709883   1.000000   1.000000
    2      -21.839743    -21.839796   1.000000   1.000000
    3      -17.427557    -17.427619   1.000000   1.000000
    4       -6.371323     -6.371390   1.000000   1.000000
    5       -5.156161     -5.156226   1.000000   1.000000
    6       -5.025546     -5.025608   1.000000   1.000000
    7       -3.262547     -3.262630   1.000000   1.000000
    8        0.898244      0.898145   1.000000   1.000000
    9        1.003152      1.003050   1.000000   1.000000
   10        6.894654      6.894640   0.000000   0.000000
   11        7.172316      7.172270   0.000000   0.000000
   12        7.487998      7.487942   0.000000   0.000000
   13       11.018962     11.019109   0.000000   0.000000
   14       12.651683     12.651680   0.000000   0.000000
   15       15.116182     15.117006   0.000000   0.000000
   16       15.479933     15.483051   0.000000   0.000000
 
  0.1818182E+00 -0.3260910E-16 -0.2631369E-17  0.4722550E-02
    1      -42.708994    -42.708400   1.000000   1.000000
    2      -21.790305    -21.790358   1.000000   1.000000
    3      -17.400606    -17.400668   1.000000   1.000000
    4       -6.298572     -6.298634   1.000000   1.000000
    5       -5.407609     -5.407677   1.000000   1.000000
    6       -5.089655     -5.089717   1.000000   1.000000
    7       -3.272970     -3.273056   1.000000   1.000000
    8        0.485626      0.485541   1.000000   1.000000
    9        0.867232      0.867135   1.000000   1.000000
   10        6.677477      6.677458   0.000000   0.000000
   11        7.174395      7.174331   0.000000   0.000000
   12        8.028452      8.028427   0.000000   0.000000
   13       11.583607     11.583741   0.000000   0.000000
   14       12.671964     12.672242   0.000000   0.000000
   15       14.183714     14.168258   0.000000   0.000000
   16       15.435259     15.375788   0.000000   0.000000
 
  0.2727273E+00 -0.2859476E-16 -0.1080442E-16  0.4722550E-02
    1      -42.706996    -42.706402   1.000000   1.000000
    2      -21.724253    -21.724305   1.000000   1.000000
    3      -17.364960    -17.365022   1.000000   1.000000
    4       -6.304146     -6.304201   1.000000   1.000000
    5       -5.594414     -5.594492   1.000000   1.000000
    6       -5.166606     -5.166668   1.000000   1.000000
    7       -3.298105     -3.298195   1.000000   1.000000
    8       -0.022268     -0.022339   1.000000   1.000000
    9        0.705006      0.704914   1.000000   1.000000
   10        6.251288      6.251274   0.000000   0.000000
   11        7.198646      7.198580   0.000000   0.000000
   12        8.798228      8.798287   0.000000   0.000000
   13       12.205515     12.205510   0.000000   0.000000
   14       12.649105     12.645990   0.000000   0.000000
   15       13.548946     13.538815   0.000000   0.000000
   16       15.264958     15.209828   0.000000   0.000000
 
  0.3636364E+00 -0.6869220E-16 -0.3748259E-16  0.4722550E-02
    1      -42.705158    -42.704563   1.000000   1.000000
    2      -21.662320    -21.662373   1.000000   1.000000
    3      -17.332039    -17.332102   1.000000   1.000000
    4       -6.472376     -6.472428   1.000000   1.000000
    5       -5.554555     -5.554641   1.000000   1.000000
    6       -5.235494     -5.235557   1.000000   1.000000
    7       -3.342418     -3.342513   1.000000   1.000000
    8       -0.453432     -0.453490   1.000000   1.000000
    9        0.563304      0.563216   1.000000   1.000000
   10        5.833676      5.833669   0.000000   0.000000
   11        7.223447      7.223379   0.000000   0.000000
   12        9.365834      9.365601   0.000000   0.000000
   13       12.454353     12.454379   0.000000   0.000000
   14       12.688154     12.682299   0.000000   0.000000
   15       13.787296     13.784937   0.000000   0.000000
   16       15.098347     15.081508   0.000000   0.000000
 
  0.4545455E+00 -0.4215275E-17 -0.1228001E-16  0.4722550E-02
    1      -42.704074    -42.703480   1.000000   1.000000
    2      -21.624995    -21.625048   1.000000   1.000000
    3      -17.312412    -17.312475   1.000000   1.000000
    4       -6.616941     -6.616994   1.000000   1.000000
    5       -5.459677     -5.459767   1.000000   1.000000
    6       -5.276873     -5.276936   1.000000   1.000000
    7       -3.385388     -3.385484   1.000000   1.000000
    8       -0.694252     -0.694304   1.000000   1.000000
    9        0.482695      0.482610   1.000000   1.000000
   10        5.582730      5.582727   0.000000   0.000000
   11        7.235031      7.234962   0.000000   0.000000
   12        9.554829      9.554851   0.000000   0.000000
   13       12.473058     12.473121   0.000000   0.000000
   14       12.943568     12.943007   0.000000   0.000000
   15       14.130152     14.131266   0.000000   0.000000
   16       14.991757     14.990302   0.000000   0.000000
 
  0.9090909E-01  0.9090909E-01 -0.2791233E-16  0.2361275E-02
    1      -42.710441    -42.709847   1.000000   1.000000
    2      -21.837597    -21.837649   1.000000   1.000000
    3      -17.429186    -17.429248   1.000000   1.000000
    4       -6.350727     -6.350795   1.000000   1.000000
    5       -5.105078     -5.105140   1.000000   1.000000
    6       -5.095850     -5.095914   1.000000   1.000000
    7       -3.284406     -3.284489   1.000000   1.000000
    8        0.833646      0.833550   1.000000   1.000000
    9        1.091856      1.091751   1.000000   1.000000
   10        6.826622      6.826615   0.000000   0.000000
   11        7.337797      7.337727   0.000000   0.000000
   12        7.437909      7.437868   0.000000   0.000000
   13       10.966149     10.966290   0.000000   0.000000
   14       12.571858     12.571866   0.000000   0.000000
   15       15.413627     15.413798   0.000000   0.000000
   16       15.423683     15.423848   0.000000   0.000000
 
  0.1818182E+00  0.9090909E-01 -0.3277689E-16  0.4722550E-02
    1      -42.709361    -42.708766   1.000000   1.000000
    2      -21.801750    -21.801803   1.000000   1.000000
    3      -17.412107    -17.412169   1.000000   1.000000
    4       -6.276695     -6.276762   1.000000   1.000000
    5       -5.319764     -5.319829   1.000000   1.000000
    6       -5.121305     -5.121368   1.000000   1.000000
    7       -3.312303     -3.312389   1.000000   1.000000
    8        0.564835      0.564746   1.000000   1.000000
    9        1.001608      1.001507   1.000000   1.000000
   10        6.765879      6.765867   0.000000   0.000000
   11        7.198106      7.198040   0.000000   0.000000
   12        7.884749      7.884714   0.000000   0.000000
   13       11.335700     11.335813   0.000000   0.000000
   14       12.523731     12.524038   0.000000   0.000000
   15       14.485307     14.484504   0.000000   0.000000
   16       15.407475     15.401074   0.000000   0.000000
 
  0.2727273E+00  0.9090909E-01 -0.3748259E-16  0.4722550E-02
    1      -42.707573    -42.706978   1.000000   1.000000
    2      -21.742810    -21.742863   1.000000   1.000000
    3      -17.381701    -17.381763   1.000000   1.000000
    4       -6.225628     -6.225687   1.000000   1.000000
    5       -5.545934     -5.546008   1.000000   1.000000
    6       -5.192923     -5.192985   1.000000   1.000000
    7       -3.348041     -3.348130   1.000000   1.000000
    8        0.159481      0.159405   1.000000   1.000000
    9        0.813070      0.812976   1.000000   1.000000
   10        6.437219      6.437202   0.000000   0.000000
   11        7.160323      7.160262   0.000000   0.000000
   12        8.610028      8.609998   0.000000   0.000000
   13       11.946299     11.946407   0.000000   0.000000
   14       12.495655     12.495958   0.000000   0.000000
   15       13.625050     13.623807   0.000000   0.000000
   16       15.345902     15.339594   0.000000   0.000000
 
  0.3636364E+00  0.9090909E-01 -0.3062207E-16  0.4722550E-02
    1      -42.705667    -42.705073   1.000000   1.000000
    2      -21.678814    -21.678867   1.000000   1.000000
    3      -17.347463    -17.347526   1.000000   1.000000
    4       -6.343569     -6.343622   1.000000   1.000000
    5       -5.571472     -5.571555   1.000000   1.000000
    6       -5.270502     -5.270565   1.000000   1.000000
    7       -3.395745     -3.395837   1.000000   1.000000
    8       -0.256687     -0.256751   1.000000   1.000000
    9        0.613701      0.613614   1.000000   1.000000
   10        5.999589      5.999579   0.000000   0.000000
   11        7.152262      7.152201   0.000000   0.000000
   12        9.369183      9.369115   0.000000   0.000000
   13       12.273647     12.273027   0.000000   0.000000
   14       12.559079     12.557916   0.000000   0.000000
   15       13.553364     13.552508   0.000000   0.000000
   16       15.241853     15.236494   0.000000   0.000000
 
  0.4545455E+00  0.9090909E-01 -0.6555378E-16  0.4722550E-02
    1      -42.704261    -42.703667   1.000000   1.000000
    2      -21.630439    -21.630492   1.000000   1.000000
    3      -17.320259    -17.320322   1.000000   1.000000
    4       -6.523545     -6.523597   1.000000   1.000000
    5       -5.503375     -5.503455   1.000000   1.000000
    6       -5.291382     -5.291453   1.000000   1.000000
    7       -3.443355     -3.443450   1.000000   1.000000
    8       -0.558194     -0.558251   1.000000   1.000000
    9        0.459878      0.459794   1.000000   1.000000
   10        5.666480      5.666475   0.000000   0.000000
   11        7.128566      7.128506   0.000000   0.000000
   12        9.784323      9.784310   0.000000   0.000000
   13       12.500178     12.499718   0.000000   0.000000
   14       12.653521     12.652816   0.000000   0.000000
   15       13.913923     13.914446   0.000000   0.000000
   16       15.130992     15.128882   0.000000   0.000000
 
 -0.4545455E+00  0.9090909E-01 -0.1092662E-16  0.4722550E-02
    1      -42.703775    -42.703180   1.000000   1.000000
    2      -21.613904    -21.613957   1.000000   1.000000
    3      -17.308763    -17.308826   1.000000   1.000000
    4       -6.600784     -6.600837   1.000000   1.000000
    5       -5.498702     -5.498777   1.000000   1.000000
    6       -5.264237     -5.264316   1.000000   1.000000
    7       -3.447542     -3.447638   1.000000   1.000000
    8       -0.671344     -0.671397   1.000000   1.000000
    9        0.388104      0.388022   1.000000   1.000000
   10        5.553525      5.553523   0.000000   0.000000
   11        7.102378      7.102320   0.000000   0.000000
   12        9.873066      9.873087   0.000000   0.000000
   13       12.514142     12.514149   0.000000   0.000000
   14       12.946586     12.946314   0.000000   0.000000
   15       14.005998     14.006644   0.000000   0.000000
   16       15.043148     15.042799   0.000000   0.000000
 
 -0.3636364E+00  0.9090909E-01  0.2709745E-17  0.4722550E-02
    1      -42.704381    -42.703787   1.000000   1.000000
    2      -21.635025    -21.635081   1.000000   1.000000
    3      -17.316888    -17.316951   1.000000   1.000000
    4       -6.538573     -6.538625   1.000000   1.000000
    5       -5.514395     -5.514474   1.000000   1.000000
    6       -5.281182     -5.281255   1.000000   1.000000
    7       -3.385524     -3.385620   1.000000   1.000000
    8       -0.573342     -0.573396   1.000000   1.000000
    9        0.418634      0.418550   1.000000   1.000000
   10        5.691675      5.691669   0.000000   0.000000
   11        7.084605      7.084548   0.000000   0.000000
   12        9.783857      9.783769   0.000000   0.000000
   13       12.460748     12.460323   0.000000   0.000000
   14       12.919498     12.916428   0.000000   0.000000
   15       13.834195     13.835051   0.000000   0.000000
   16       14.996568     14.994580   0.000000   0.000000
 
 -0.2727273E+00  0.9090909E-01 -0.1995953E-17  0.4722550E-02
    1      -42.705890    -42.705296   1.000000   1.000000
    2      -21.686464    -21.686516   1.000000   1.000000
    3      -17.341979    -17.342042   1.000000   1.000000
    4       -6.393686     -6.393738   1.000000   1.000000
    5       -5.547724     -5.547807   1.000000   1.000000
    6       -5.264532     -5.264597   1.000000   1.000000
    7       -3.306919     -3.307013   1.000000   1.000000
    8       -0.275869     -0.275930   1.000000   1.000000
    9        0.545461      0.545373   1.000000   1.000000
   10        6.029618      6.029606   0.000000   0.000000
   11        7.071897      7.071841   0.000000   0.000000
   12        9.361752      9.360668   0.000000   0.000000
   13       12.390972     12.390536   0.000000   0.000000
   14       12.840764     12.833147   0.000000   0.000000
   15       13.470371     13.470415   0.000000   0.000000
   16       15.006997     14.951003   0.000000   0.000000
 
 -0.1818182E+00  0.9090909E-01 -0.1479424E-16  0.4722550E-02
    1      -42.707810    -42.707216   1.000000   1.000000
    2      -21.750889    -21.750939   1.000000   1.000000
    3      -17.375986    -17.376049   1.000000   1.000000
    4       -6.309899     -6.309957   1.000000   1.000000
    5       -5.489685     -5.489759   1.000000   1.000000
    6       -5.179824     -5.179886   1.000000   1.000000
    7       -3.261086     -3.261175   1.000000   1.000000
    8        0.160047      0.159973   1.000000   1.000000
    9        0.725678      0.725585   1.000000   1.000000
   10        6.458187      6.458166   0.000000   0.000000
   11        7.053997      7.053943   0.000000   0.000000
   12        8.605392      8.604975   0.000000   0.000000
   13       12.022010     12.021924   0.000000   0.000000
   14       12.882915     12.881215   0.000000   0.000000
   15       13.598470     13.591290   0.000000   0.000000
   16       15.092496     14.974221   0.000000   0.000000
 
 -0.9090909E-01  0.9090909E-01 -0.2298265E-16  0.2361275E-02
    1      -42.709511    -42.708917   1.000000   1.000000
    2      -21.807762    -21.807812   1.000000   1.000000
    3      -17.407876    -17.407938   1.000000   1.000000
    4       -6.337560     -6.337622   1.000000   1.000000
    5       -5.308462     -5.308530   1.000000   1.000000
    6       -5.078356     -5.078418   1.000000   1.000000
    7       -3.251381     -3.251465   1.000000   1.000000
    8        0.614187      0.614099   1.000000   1.000000
    9        0.888505      0.888406   1.000000   1.000000
   10        6.836354      6.836331   0.000000   0.000000
   11        7.036193      7.036142   0.000000   0.000000
   12        7.876141      7.876301   0.000000   0.000000
   13       11.433362     11.433708   0.000000   0.000000
   14       12.769548     12.769544   0.000000   0.000000
   15       14.908857     14.608047   0.000000   0.000000
   16       15.627475     15.142341   0.000000   0.000000
 
  0.1818182E+00  0.1818182E+00 -0.5262739E-17  0.2361275E-02
    1      -42.708777    -42.708183   1.000000   1.000000
    2      -21.781894    -21.781947   1.000000   1.000000
    3      -17.407024    -17.407086   1.000000   1.000000
    4       -6.221494     -6.221559   1.000000   1.000000
    5       -5.361244     -5.361310   1.000000   1.000000
    6       -5.193263     -5.193327   1.000000   1.000000
    7       -3.365480     -3.365567   1.000000   1.000000
    8        0.371583      0.371501   1.000000   1.000000
    9        1.079270      1.079167   1.000000   1.000000
   10        6.790206      6.790197   0.000000   0.000000
   11        7.051578      7.051514   0.000000   0.000000
   12        8.133857      8.133831   0.000000   0.000000
   13       11.412936     11.412872   0.000000   0.000000
   14       12.458762     12.459124   0.000000   0.000000
   15       14.316937     14.331015   0.000000   0.000000
   16       15.365680     15.370871   0.000000   0.000000
 
  0.2727273E+00  0.1818182E+00  0.2009871E-16  0.4722550E-02
    1      -42.707438    -42.706843   1.000000   1.000000
    2      -21.736500    -21.736553   1.000000   1.000000
    3      -17.386976    -17.387038   1.000000   1.000000
    4       -6.182305     -6.182365   1.000000   1.000000
    5       -5.483238     -5.483311   1.000000   1.000000
    6       -5.269398     -5.269461   1.000000   1.000000
    7       -3.428757     -3.428846   1.000000   1.000000
    8        0.069299      0.069226   1.000000   1.000000
    9        0.982079      0.981980   1.000000   1.000000
   10        6.573239      6.573218   0.000000   0.000000
   11        6.961909      6.961859   0.000000   0.000000
   12        8.698675      8.698612   0.000000   0.000000
   13       11.738383     11.738341   0.000000   0.000000
   14       12.514066     12.514420   0.000000   0.000000
   15       13.674872     13.675084   0.000000   0.000000
   16       15.278134     15.277322   0.000000   0.000000
 
  0.3636364E+00  0.1818182E+00 -0.6555378E-16  0.4722550E-02
    1      -42.705727    -42.705133   1.000000   1.000000
    2      -21.679227    -21.679280   1.000000   1.000000
    3      -17.358207    -17.358270   1.000000   1.000000
    4       -6.254349     -6.254404   1.000000   1.000000
    5       -5.513003     -5.513080   1.000000   1.000000
    6       -5.349134     -5.349203   1.000000   1.000000
    7       -3.504900     -3.504992   1.000000   1.000000
    8       -0.229967     -0.230032   1.000000   1.000000
    9        0.747156      0.747066   1.000000   1.000000
   10        6.164718      6.164701   0.000000   0.000000
   11        6.925340      6.925293   0.000000   0.000000
   12        9.527977      9.527861   0.000000   0.000000
   13       11.921243     11.921326   0.000000   0.000000
   14       12.676380     12.676312   0.000000   0.000000
   15       13.444625     13.444765   0.000000   0.000000
   16       15.192228     15.191847   0.000000   0.000000
 
  0.4545455E+00  0.1818182E+00 -0.1004855E-15  0.4722550E-02
    1      -42.704266    -42.703672   1.000000   1.000000
    2      -21.628488    -21.628541   1.000000   1.000000
    3      -17.329774    -17.329837   1.000000   1.000000
    4       -6.387582     -6.387635   1.000000   1.000000
    5       -5.609525     -5.609590   1.000000   1.000000
    6       -5.252850     -5.252935   1.000000   1.000000
    7       -3.585541     -3.585634   1.000000   1.000000
    8       -0.442182     -0.442241   1.000000   1.000000
    9        0.468273      0.468192   1.000000   1.000000
   10        5.795560      5.795550   0.000000   0.000000
   11        6.869068      6.869025   0.000000   0.000000
   12       10.302663     10.302631   0.000000   0.000000
   13       12.072116     12.071852   0.000000   0.000000
   14       12.671571     12.671623   0.000000   0.000000
   15       13.709908     13.710016   0.000000   0.000000
   16       15.087202     15.087466   0.000000   0.000000
 
 -0.4545455E+00  0.1818182E+00 -0.3073363E-17  0.4722550E-02
    1      -42.703437    -42.702843   1.000000   1.000000
    2      -21.600722    -21.600775   1.000000   1.000000
    3      -17.310522    -17.310585   1.000000   1.000000
    4       -6.477705     -6.477759   1.000000   1.000000
    5       -5.696320     -5.696383   1.000000   1.000000
    6       -5.147046     -5.147138   1.000000   1.000000
    7       -3.619849     -3.619942   1.000000   1.000000
    8       -0.526917     -0.526973   1.000000   1.000000
    9        0.240974      0.240899   1.000000   1.000000
   10        5.590254      5.590248   0.000000   0.000000
   11        6.830249      6.830208   0.000000   0.000000
   12       10.595621     10.595626   0.000000   0.000000
   13       12.503619     12.503478   0.000000   0.000000
   14       12.728939     12.728892   0.000000   0.000000
   15       13.728451     13.728631   0.000000   0.000000
   16       14.976564     14.977231   0.000000   0.000000
 
 -0.3636364E+00  0.1818182E+00 -0.1140528E-16  0.4722550E-02
    1      -42.703565    -42.702970   1.000000   1.000000
    2      -21.605493    -21.605546   1.000000   1.000000
    3      -17.306851    -17.306914   1.000000   1.000000
    4       -6.491703     -6.491757   1.000000   1.000000
    5       -5.684241     -5.684303   1.000000   1.000000
    6       -5.178698     -5.178790   1.000000   1.000000
    7       -3.546686     -3.546781   1.000000   1.000000
    8       -0.503663     -0.503718   1.000000   1.000000
    9        0.158892      0.158818   1.000000   1.000000
   10        5.602192      5.602186   0.000000   0.000000
   11        6.835869      6.835829   0.000000   0.000000
   12       10.556776     10.556749   0.000000   0.000000
   13       12.445047     12.444645   0.000000   0.000000
   14       12.999002     12.998275   0.000000   0.000000
   15       13.665383     13.665442   0.000000   0.000000
   16       14.922862     14.923853   0.000000   0.000000
 
 -0.2727273E+00  0.1818182E+00 -0.2233195E-17  0.4722550E-02
    1      -42.704570    -42.703975   1.000000   1.000000
    2      -21.641033    -21.641086   1.000000   1.000000
    3      -17.320043    -17.320106   1.000000   1.000000
    4       -6.440182     -6.440233   1.000000   1.000000
    5       -5.560645     -5.560708   1.000000   1.000000
    6       -5.320651     -5.320739   1.000000   1.000000
    7       -3.407935     -3.408030   1.000000   1.000000
    8       -0.397139     -0.397195   1.000000   1.000000
    9        0.270818      0.270738   1.000000   1.000000
   10        5.809026      5.809016   0.000000   0.000000
   11        6.884851      6.884807   0.000000   0.000000
   12       10.186262     10.185868   0.000000   0.000000
   13       12.301904     12.301401   0.000000   0.000000
   14       13.082825     13.079258   0.000000   0.000000
   15       13.456555     13.454912   0.000000   0.000000
   16       14.930468     14.904958   0.000000   0.000000
 
 -0.1818182E+00  0.1818182E+00 -0.1159317E-16  0.2361275E-02
    1      -42.706131    -42.705537   1.000000   1.000000
    2      -21.695273    -21.695329   1.000000   1.000000
    3      -17.345828    -17.345891   1.000000   1.000000
    4       -6.360732     -6.360786   1.000000   1.000000
    5       -5.464406     -5.464490   1.000000   1.000000
    6       -5.359152     -5.359213   1.000000   1.000000
    7       -3.300404     -3.300497   1.000000   1.000000
    8       -0.173292     -0.173354   1.000000   1.000000
    9        0.502112      0.502024   1.000000   1.000000
   10        6.130734      6.130717   0.000000   0.000000
   11        6.959125      6.959077   0.000000   0.000000
   12        9.425311      9.423516   0.000000   0.000000
   13       12.354683     12.354814   0.000000   0.000000
   14       13.099783     13.099836   0.000000   0.000000
   15       13.135279     13.130302   0.000000   0.000000
   16       14.904270     14.859225   0.000000   0.000000
 
  0.2727273E+00  0.2727273E+00 -0.5419490E-17  0.2361275E-02
    1      -42.706615    -42.706021   1.000000   1.000000
    2      -21.707091    -21.707144   1.000000   1.000000
    3      -17.379313    -17.379376   1.000000   1.000000
    4       -6.207244     -6.207300   1.000000   1.000000
    5       -5.449669     -5.449748   1.000000   1.000000
    6       -5.317527     -5.317591   1.000000   1.000000
    7       -3.527926     -3.528017   1.000000   1.000000
    8       -0.174451     -0.174516   1.000000   1.000000
    9        1.069600      1.069499   1.000000   1.000000
   10        6.620376      6.620363   0.000000   0.000000
   11        6.684585      6.684530   0.000000   0.000000
   12        9.003982      9.003862   0.000000   0.000000
   13       11.650290     11.649397   0.000000   0.000000
   14       12.713512     12.713491   0.000000   0.000000
   15       13.560787     13.556494   0.000000   0.000000
   16       15.122667     15.122570   0.000000   0.000000
 
  0.3636364E+00  0.2727273E+00 -0.5869327E-16  0.4722550E-02
    1      -42.705329    -42.704734   1.000000   1.000000
    2      -21.663405    -21.663458   1.000000   1.000000
    3      -17.361082    -17.361145   1.000000   1.000000
    4       -6.298827     -6.298881   1.000000   1.000000
    5       -5.434588     -5.434653   1.000000   1.000000
    6       -5.320624     -5.320706   1.000000   1.000000
    7       -3.644429     -3.644522   1.000000   1.000000
    8       -0.412361     -0.412419   1.000000   1.000000
    9        0.965268      0.965170   1.000000   1.000000
   10        6.296475      6.296450   0.000000   0.000000
   11        6.635026      6.634990   0.000000   0.000000
   12        9.605995      9.605974   0.000000   0.000000
   13       11.680623     11.680522   0.000000   0.000000
   14       12.864650     12.864826   0.000000   0.000000
   15       13.486777     13.483230   0.000000   0.000000
   16       14.971148     14.964322   0.000000   0.000000
 
  0.4545455E+00  0.2727273E+00  0.3126675E-16  0.4722550E-02
    1      -42.704057    -42.703463   1.000000   1.000000
    2      -21.619396    -21.619449   1.000000   1.000000
    3      -17.338002    -17.338065   1.000000   1.000000
    4       -6.366499     -6.366553   1.000000   1.000000
    5       -5.639229     -5.639291   1.000000   1.000000
    6       -5.123508     -5.123598   1.000000   1.000000
    7       -3.772298     -3.772392   1.000000   1.000000
    8       -0.548407     -0.548461   1.000000   1.000000
    9        0.689567      0.689479   1.000000   1.000000
   10        5.953359      5.953340   0.000000   0.000000
   11        6.566725      6.566695   0.000000   0.000000
   12       10.518184     10.518175   0.000000   0.000000
   13       11.729802     11.729834   0.000000   0.000000
   14       12.805024     12.805149   0.000000   0.000000
   15       13.604099     13.604147   0.000000   0.000000
   16       14.889067     14.889276   0.000000   0.000000
 
 -0.4545455E+00  0.2727273E+00  0.1766494E-16  0.4722550E-02
    1      -42.703178    -42.702583   1.000000   1.000000
    2      -21.589250    -21.589303   1.000000   1.000000
    3      -17.317184    -17.317247   1.000000   1.000000
    4       -6.352722     -6.352776   1.000000   1.000000
    5       -5.873549     -5.873608   1.000000   1.000000
    6       -4.959390     -4.959485   1.000000   1.000000
    7       -3.857739     -3.857831   1.000000   1.000000
    8       -0.534185     -0.534241   1.000000   1.000000
    9        0.326720      0.326644   1.000000   1.000000
   10        5.700775      5.700763   0.000000   0.000000
   11        6.529124      6.529097   0.000000   0.000000
   12       11.421747     11.421739   0.000000   0.000000
   13       11.881526     11.881521   0.000000   0.000000
   14       12.818615     12.818709   0.000000   0.000000
   15       13.406521     13.406586   0.000000   0.000000
   16       14.846280     14.846402   0.000000   0.000000
 
 -0.3636364E+00  0.2727273E+00  0.4127806E-17  0.4722550E-02
    1      -42.702963    -42.702368   1.000000   1.000000
    2      -21.582880    -21.582933   1.000000   1.000000
    3      -17.305273    -17.305336   1.000000   1.000000
    4       -6.327941     -6.327997   1.000000   1.000000
    5       -5.976468     -5.976525   1.000000   1.000000
    6       -4.965637     -4.965735   1.000000   1.000000
    7       -3.792872     -3.792963   1.000000   1.000000
    8       -0.373367     -0.373427   1.000000   1.000000
    9       -0.021648     -0.021715   1.000000   1.000000
   10        5.595898      5.595890   0.000000   0.000000
   11        6.574084      6.574056   0.000000   0.000000
   12       11.458495     11.458485   0.000000   0.000000
   13       12.375375     12.375309   0.000000   0.000000
   14       12.923168     12.923206   0.000000   0.000000
   15       13.265474     13.265516   0.000000   0.000000
   16       14.799378     14.799255   0.000000   0.000000
 
 -0.2727273E+00  0.2727273E+00 -0.2352342E-16  0.2361275E-02
    1      -42.703494    -42.702900   1.000000   1.000000
    2      -21.602232    -21.602286   1.000000   1.000000
    3      -17.306347    -17.306410   1.000000   1.000000
    4       -6.404684     -6.404738   1.000000   1.000000
    5       -5.806524     -5.806583   1.000000   1.000000
    6       -5.133593     -5.133689   1.000000   1.000000
    7       -3.597423     -3.597517   1.000000   1.000000
    8       -0.324795     -0.324853   1.000000   1.000000
    9       -0.044709     -0.044780   1.000000   1.000000
   10        5.644958      5.644949   0.000000   0.000000
   11        6.703732      6.703698   0.000000   0.000000
   12       11.023445     11.023383   0.000000   0.000000
   13       12.200354     12.200415   0.000000   0.000000
   14       13.214483     13.214566   0.000000   0.000000
   15       13.386594     13.386101   0.000000   0.000000
   16       14.825469     14.818216   0.000000   0.000000
 
  0.3636364E+00  0.3636364E+00 -0.7496518E-16  0.2361275E-02