       N       E                     dE             d eps       ncg     rms          rms(c)
DAV:   1     0.790382946354E+02    0.79038E+02   -0.84461E+03 14984   0.104E+03
DAV:   2    -0.240661899151E+02   -0.10310E+03   -0.99401E+02 20504   0.251E+02
DAV:   3    -0.287056072987E+02   -0.46394E+01   -0.46229E+01 21472   0.548E+01
DAV:   4    -0.288441715409E+02   -0.13856E+00   -0.13851E+00 20896   0.834E+00
DAV:   5    -0.288456998523E+02   -0.15283E-02   -0.15283E-02 20432   0.809E-01    0.132E+01
RMM:   6    -0.274979084532E+02    0.13478E+01   -0.32053E+00 16457   0.112E+01    0.608E+00
RMM:   7    -0.274022594673E+02    0.95649E-01   -0.51576E-01 18789   0.595E+00    0.354E+00
RMM:   8    -0.273742984916E+02    0.27961E-01   -0.19828E-01 19949   0.334E+00    0.176E+00
RMM:   9    -0.273833730057E+02   -0.90745E-02   -0.43018E-02 21461   0.170E+00    0.653E-01
RMM:  10    -0.273844288396E+02   -0.10558E-02   -0.12187E-02 22923   0.826E-01    0.156E-01
RMM:  11    -0.273851734076E+02   -0.74457E-03   -0.28874E-03 23679   0.420E-01    0.818E-02
RMM:  12    -0.273854691469E+02   -0.29574E-03   -0.14062E-03 25114   0.250E-01    0.418E-02
RMM:  13    -0.273855686253E+02   -0.99478E-04   -0.50179E-04 24546   0.147E-01    0.130E-02
RMM:  14    -0.273856070046E+02   -0.38379E-04   -0.25121E-04 23793   0.987E-02    0.787E-03
RMM:  15    -0.273856225822E+02   -0.15578E-04   -0.11202E-04 21585   0.628E-02    0.441E-03
RMM:  16    -0.273856291049E+02   -0.65226E-05   -0.48450E-05 18922   0.431E-02
   1 F= -.27385629E+02 E0= -.27385629E+02  d E =0.000000E+00  mag=    -0.0000
