   16   16    1    2
  0.9423988E+01  0.4815511E-09  0.5181777E-09  0.6042736E-09  0.5000000E-15
  1.000000000000000E-004
  CAR 
 unknown system                          
     76     48     56
 
  0.0000000E+00  0.0000000E+00  0.0000000E+00  0.4761905E-02
    1      -40.702789    -40.702561   1.000000   1.000000
    2      -40.701668    -40.701440   1.000000   1.000000
    3      -40.381740    -40.381496   1.000000   1.000000
    4      -40.371421    -40.371177   1.000000   1.000000
    5      -40.371091    -40.370846   1.000000   1.000000
    6      -40.360602    -40.360357   1.000000   1.000000
    7      -18.399741    -18.399772   1.000000   1.000000
    8      -18.185320    -18.185353   1.000000   1.000000
    9      -15.691070    -15.691101   1.000000   1.000000
   10      -15.681786    -15.681823   1.000000   1.000000
   11      -15.617822    -15.617858   1.000000   1.000000
   12      -15.600814    -15.600847   1.000000   1.000000
   13      -15.567300    -15.567333   1.000000   1.000000
   14      -15.530430    -15.530472   1.000000   1.000000
   15       -5.253209     -5.253231   1.000000   1.000000
   16       -5.080247     -5.080277   1.000000   1.000000
   17       -3.431410     -3.431442   1.000000   1.000000
   18       -3.355429     -3.355454   1.000000   1.000000
   19       -3.171243     -3.171269   1.000000   1.000000
   20       -3.065615     -3.065643   1.000000   1.000000
   21       -2.913009     -2.913036   1.000000   1.000000
   22       -2.787162     -2.787186   1.000000   1.000000
   23       -1.037125     -1.037155   1.000000   1.000000
   24       -0.920543     -0.920567   1.000000   1.000000
   25       -0.875278     -0.875304   1.000000   1.000000
   26       -0.655692     -0.655715   1.000000   1.000000
   27       -0.486480     -0.486506   1.000000   1.000000
   28       -0.417549     -0.417579   1.000000   1.000000
   29       -0.335867     -0.335897   1.000000   1.000000
   30        0.416993      0.416962   1.000000   1.000000
   31        0.435983      0.435953   1.000000   1.000000
   32        0.571490      0.571458   1.000000   1.000000
   33        0.928227      0.928192   1.000000   1.000000
   34        1.054652      1.054627   1.000000   1.000000
   35        1.055083      1.055052   1.000000   1.000000
   36        1.202187      1.202159   1.000000   1.000000
   37        1.385546      1.385511   1.000000   1.000000
   38        1.487214      1.487176   1.000000   1.000000
   39        7.919581      7.919553   0.000000   0.000000
   40       10.158072     10.157961   0.000000   0.000000
   41       10.674520     10.674521   0.000000   0.000000
   42       11.017772     11.017737   0.000000   0.000000
   43       11.172757     11.172704   0.000000   0.000000
   44       11.244422     11.245036   0.000000   0.000000
   45       11.367067     11.366990   0.000000   0.000000
   46       12.218382     12.218278   0.000000   0.000000
   47       12.642347     12.640980   0.000000   0.000000
   48       13.310839     13.310720   0.000000   0.000000
   49       13.610466     13.612481   0.000000   0.000000
   50       14.187066     14.178718   0.000000   0.000000
   51       14.482810     14.484559   0.000000   0.000000
   52       14.786039     14.785858   0.000000   0.000000
   53       14.797269     14.797458   0.000000   0.000000
   54       14.895571     14.895722   0.000000   0.000000
   55       14.933026     14.925841   0.000000   0.000000
   56       15.370887     15.389143   0.000000   0.000000
 
  0.1428571E+00  0.0000000E+00  0.0000000E+00  0.9523810E-02
    1      -40.702713    -40.702485   1.000000   1.000000
    2      -40.701671    -40.701443   1.000000   1.000000
    3      -40.381265    -40.381021   1.000000   1.000000
    4      -40.371698    -40.371454   1.000000   1.000000
    5      -40.370865    -40.370621   1.000000   1.000000
    6      -40.361128    -40.360884   1.000000   1.000000
    7      -18.382158    -18.382188   1.000000   1.000000
    8      -18.187386    -18.187418   1.000000   1.000000
    9      -15.688648    -15.688685   1.000000   1.000000
   10      -15.685913    -15.685945   1.000000   1.000000
   11      -15.622789    -15.622825   1.000000   1.000000
   12      -15.605096    -15.605130   1.000000   1.000000
   13      -15.574352    -15.574385   1.000000   1.000000
   14      -15.552435    -15.552476   1.000000   1.000000
   15       -5.269717     -5.269740   1.000000   1.000000
   16       -5.073668     -5.073699   1.000000   1.000000
   17       -3.300782     -3.300814   1.000000   1.000000
   18       -3.299994     -3.300019   1.000000   1.000000
   19       -3.128145     -3.128172   1.000000   1.000000
   20       -3.036870     -3.036898   1.000000   1.000000
   21       -2.894091     -2.894118   1.000000   1.000000
   22       -2.784278     -2.784302   1.000000   1.000000
   23       -1.074463     -1.074493   1.000000   1.000000
   24       -0.993371     -0.993395   1.000000   1.000000
   25       -0.924722     -0.924747   1.000000   1.000000
   26       -0.739232     -0.739255   1.000000   1.000000
   27       -0.449982     -0.450012   1.000000   1.000000
   28       -0.390224     -0.390250   1.000000   1.000000
   29       -0.262232     -0.262262   1.000000   1.000000
   30        0.364153      0.364122   1.000000   1.000000
   31        0.385454      0.385423   1.000000   1.000000
   32        0.392512      0.392482   1.000000   1.000000
   33        0.969998      0.969960   1.000000   1.000000
   34        1.087255      1.087224   1.000000   1.000000
   35        1.123156      1.123130   1.000000   1.000000
   36        1.216799      1.216770   1.000000   1.000000
   37        1.356973      1.356936   1.000000   1.000000
   38        1.501576      1.501539   1.000000   1.000000
   39        8.116713      8.116683   0.000000   0.000000
   40       10.105550     10.105524   0.000000   0.000000
   41       10.449993     10.449971   0.000000   0.000000
   42       10.645784     10.645491   0.000000   0.000000
   43       11.237495     11.237386   0.000000   0.000000
   44       11.258264     11.258145   0.000000   0.000000
   45       11.738088     11.738322   0.000000   0.000000
   46       12.136221     12.136191   0.000000   0.000000
   47       12.722752     12.722947   0.000000   0.000000
   48       13.153125     13.153008   0.000000   0.000000
   49       13.440461     13.441934   0.000000   0.000000
   50       14.121168     14.127040   0.000000   0.000000
   51       14.224516     14.222590   0.000000   0.000000
   52       14.526601     14.527463   0.000000   0.000000
   53       14.701443     14.827134   0.000000   0.000000
   54       14.942652     14.955533   0.000000   0.000000
   55       14.990088     14.993737   0.000000   0.000000
   56       15.718428     15.732819   0.000000   0.000000
 
  0.2857143E+00  0.0000000E+00  0.0000000E+00  0.9523810E-02
    1      -40.702448    -40.702220   1.000000   1.000000
    2      -40.701702    -40.701474   1.000000   1.000000
    3      -40.379842    -40.379598   1.000000   1.000000
    4      -40.373221    -40.372976   1.000000   1.000000
    5      -40.369346    -40.369102   1.000000   1.000000
    6      -40.362614    -40.362369   1.000000   1.000000
    7      -18.335779    -18.335810   1.000000   1.000000
    8      -18.198324    -18.198356   1.000000   1.000000
    9      -15.704719    -15.704758   1.000000   1.000000
   10      -15.670762    -15.670794   1.000000   1.000000
   11      -15.627370    -15.627404   1.000000   1.000000
   12      -15.625763    -15.625800   1.000000   1.000000
   13      -15.596193    -15.596231   1.000000   1.000000
   14      -15.593580    -15.593612   1.000000   1.000000
   15       -5.281125     -5.281149   1.000000   1.000000
   16       -5.091953     -5.091982   1.000000   1.000000
   17       -3.179918     -3.179942   1.000000   1.000000
   18       -3.095124     -3.095153   1.000000   1.000000
   19       -2.961883     -2.961909   1.000000   1.000000
   20       -2.939295     -2.939324   1.000000   1.000000
   21       -2.783991     -2.784015   1.000000   1.000000
   22       -2.749035     -2.749066   1.000000   1.000000
   23       -1.159692     -1.159721   1.000000   1.000000
   24       -1.126893     -1.126917   1.000000   1.000000
   25       -1.020339     -1.020363   1.000000   1.000000
   26       -0.874659     -0.874682   1.000000   1.000000
   27       -0.569276     -0.569304   1.000000   1.000000
   28       -0.237726     -0.237752   1.000000   1.000000
   29       -0.124467     -0.124494   1.000000   1.000000
   30       -0.111972     -0.112002   1.000000   1.000000
   31        0.286882      0.286853   1.000000   1.000000
   32        0.304652      0.304621   1.000000   1.000000
   33        1.028568      1.028531   1.000000   1.000000
   34        1.215215      1.215183   1.000000   1.000000
   35        1.251288      1.251260   1.000000   1.000000
   36        1.262657      1.262628   1.000000   1.000000
   37        1.279341      1.279303   1.000000   1.000000
   38        1.521515      1.521478   1.000000   1.000000
   39        8.612318      8.612286   0.000000   0.000000
   40        9.777440      9.777860   0.000000   0.000000
   41       10.224815     10.224876   0.000000   0.000000
   42       10.541491     10.541391   0.000000   0.000000
   43       11.176613     11.176552   0.000000   0.000000
   44       11.387967     11.387656   0.000000   0.000000
   45       11.577904     11.578460   0.000000   0.000000
   46       11.936519     11.936480   0.000000   0.000000
   47       12.713823     12.713871   0.000000   0.000000
   48       12.935870     12.935813   0.000000   0.000000
   49       13.609200     13.615614   0.000000   0.000000
   50       13.753883     13.754262   0.000000   0.000000
   51       13.975505     13.975317   0.000000   0.000000
   52       14.115314     14.110284   0.000000   0.000000
   53       14.916094     14.917471   0.000000   0.000000
   54       14.924631     14.919525   0.000000   0.000000
   55       15.083418     15.084099   0.000000   0.000000
   56       15.656885     15.685834   0.000000   0.000000
 
  0.4285714E+00  0.0000000E+00  0.0000000E+00  0.9523810E-02
    1      -40.702138    -40.701910   1.000000   1.000000
    2      -40.701869    -40.701641   1.000000   1.000000
    3      -40.377772    -40.377528   1.000000   1.000000
    4      -40.375396    -40.375152   1.000000   1.000000
    5      -40.367205    -40.366960   1.000000   1.000000
    6      -40.364802    -40.364557   1.000000   1.000000
    7      -18.277613    -18.277645   1.000000   1.000000
    8      -18.227789    -18.227821   1.000000   1.000000
    9      -15.707409    -15.707449   1.000000   1.000000
   10      -15.676511    -15.676551   1.000000   1.000000
   11      -15.647630    -15.647663   1.000000   1.000000
   12      -15.623997    -15.624031   1.000000   1.000000
   13      -15.620127    -15.620160   1.000000   1.000000
   14      -15.614549    -15.614583   1.000000   1.000000
   15       -5.242838     -5.242864   1.000000   1.000000
   16       -5.162970     -5.162998   1.000000   1.000000
   17       -3.096221     -3.096245   1.000000   1.000000
   18       -3.057875     -3.057900   1.000000   1.000000
   19       -2.872702     -2.872727   1.000000   1.000000
   20       -2.808133     -2.808157   1.000000   1.000000
   21       -2.606199     -2.606232   1.000000   1.000000
   22       -2.503522     -2.503557   1.000000   1.000000
   23       -1.228421     -1.228448   1.000000   1.000000
   24       -1.220851     -1.220877   1.000000   1.000000
   25       -1.066968     -1.066991   1.000000   1.000000
   26       -1.000116     -1.000140   1.000000   1.000000
   27       -0.730839     -0.730864   1.000000   1.000000
   28       -0.641857     -0.641880   1.000000   1.000000
   29       -0.027309     -0.027337   1.000000   1.000000
   30        0.046825      0.046795   1.000000   1.000000
   31        0.143201      0.143173   1.000000   1.000000
   32        0.189404      0.189373   1.000000   1.000000
   33        1.092424      1.092387   1.000000   1.000000
   34        1.180789      1.180751   1.000000   1.000000
   35        1.318615      1.318586   1.000000   1.000000
   36        1.328252      1.328224   1.000000   1.000000
   37        1.379970      1.379935   1.000000   1.000000
   38        1.491796      1.491760   1.000000   1.000000
   39        9.161368      9.161335   0.000000   0.000000
   40        9.493503      9.493553   0.000000   0.000000
   41       10.300550     10.300580   0.000000   0.000000
   42       10.420160     10.420351   0.000000   0.000000
   43       10.953666     10.953647   0.000000   0.000000
   44       11.100034     11.099983   0.000000   0.000000
   45       11.550156     11.550055   0.000000   0.000000
   46       11.722939     11.722866   0.000000   0.000000
   47       12.728555     12.728428   0.000000   0.000000
   48       12.835566     12.835621   0.000000   0.000000
   49       13.684029     13.683807   0.000000   0.000000
   50       13.799172     13.797179   0.000000   0.000000
   51       13.857561     13.855602   0.000000   0.000000
   52       13.875808     13.872946   0.000000   0.000000
   53       14.786427     14.787323   0.000000   0.000000
   54       14.808596     14.809343   0.000000   0.000000
   55       15.338930     15.299336   0.000000   0.000000
   56       15.538021     15.521342   0.000000   0.000000
 
  0.0000000E+00  0.1666667E+00  0.0000000E+00  0.9523810E-02
    1      -40.702708    -40.702480   1.000000   1.000000
    2      -40.701685    -40.701457   1.000000   1.000000
    3      -40.381836    -40.381592   1.000000   1.000000
    4      -40.371366    -40.371122   1.000000   1.000000
    5      -40.371143    -40.370898   1.000000   1.000000
    6      -40.360643    -40.360398   1.000000   1.000000
    7      -18.387997    -18.388028   1.000000   1.000000
    8      -18.191585    -18.191617   1.000000   1.000000
    9      -15.693808    -15.693843   1.000000   1.000000
   10      -15.685010    -15.685041   1.000000   1.000000
   11      -15.626443    -15.626482   1.000000   1.000000
   12      -15.593256    -15.593290   1.000000   1.000000
   13      -15.574731    -15.574764   1.000000   1.000000
   14      -15.532639    -15.532681   1.000000   1.000000
   15       -5.236480     -5.236503   1.000000   1.000000
   16       -5.070537     -5.070567   1.000000   1.000000
   17       -3.422040     -3.422071   1.000000   1.000000
   18       -3.346202     -3.346228   1.000000   1.000000
   19       -3.147489     -3.147515   1.000000   1.000000
   20       -3.083516     -3.083544   1.000000   1.000000
   21       -2.862322     -2.862348   1.000000   1.000000
   22       -2.752977     -2.753000   1.000000   1.000000
   23       -1.078138     -1.078166   1.000000   1.000000
   24       -0.941116     -0.941141   1.000000   1.000000
   25       -0.874222     -0.874248   1.000000   1.000000
   26       -0.676178     -0.676205   1.000000   1.000000
   27       -0.537663     -0.537688   1.000000   1.000000
   28       -0.341057     -0.341087   1.000000   1.000000
   29       -0.221480     -0.221509   1.000000   1.000000
   30        0.238275      0.238246   1.000000   1.000000
   31        0.413741      0.413709   1.000000   1.000000
   32        0.532941      0.532909   1.000000   1.000000
   33        0.960222      0.960187   1.000000   1.000000
   34        1.007869      1.007836   1.000000   1.000000
   35        1.055379      1.055353   1.000000   1.000000
   36        1.205091      1.205064   1.000000   1.000000
   37        1.403762      1.403728   1.000000   1.000000
   38        1.483943      1.483904   1.000000   1.000000
   39        8.158290      8.158261   0.000000   0.000000
   40       10.039952     10.040017   0.000000   0.000000
   41       10.600565     10.600427   0.000000   0.000000
   42       10.690521     10.690615   0.000000   0.000000
   43       11.113936     11.113884   0.000000   0.000000
   44       11.456295     11.456098   0.000000   0.000000
   45       11.783475     11.783222   0.000000   0.000000
   46       12.140000     12.139801   0.000000   0.000000
   47       12.433107     12.433241   0.000000   0.000000
   48       13.095512     13.095311   0.000000   0.000000
   49       13.664523     13.664571   0.000000   0.000000
   50       13.929105     13.932792   0.000000   0.000000
   51       14.253096     14.254558   0.000000   0.000000
   52       14.598351     14.604076   0.000000   0.000000
   53       14.650895     14.652144   0.000000   0.000000
   54       15.119179     15.115599   0.000000   0.000000
   55       15.354862     15.329110   0.000000   0.000000
   56       15.617815     15.582286   0.000000   0.000000
 
  0.1428571E+00  0.1666667E+00  0.0000000E+00  0.1904762E-01
    1      -40.702607    -40.702379   1.000000   1.000000
    2      -40.701672    -40.701444   1.000000   1.000000
    3      -40.381321    -40.381077   1.000000   1.000000
    4      -40.371680    -40.371435   1.000000   1.000000
    5      -40.370835    -40.370591   1.000000   1.000000
    6      -40.361161    -40.360916   1.000000   1.000000
    7      -18.371084    -18.371115   1.000000   1.000000
    8      -18.192652    -18.192684   1.000000   1.000000
    9      -15.697731    -15.697767   1.000000   1.000000
   10      -15.680387    -15.680419   1.000000   1.000000
   11      -15.632999    -15.633037   1.000000   1.000000
   12      -15.600825    -15.600859   1.000000   1.000000
   13      -15.581069    -15.581102   1.000000   1.000000
   14      -15.552778    -15.552819   1.000000   1.000000
   15       -5.251201     -5.251225   1.000000   1.000000
   16       -5.068754     -5.068784   1.000000   1.000000
   17       -3.308345     -3.308373   1.000000   1.000000
   18       -3.258785     -3.258814   1.000000   1.000000
   19       -3.104545     -3.104572   1.000000   1.000000
   20       -3.059263     -3.059291   1.000000   1.000000
   21       -2.856065     -2.856091   1.000000   1.000000
   22       -2.754239     -2.754262   1.000000   1.000000
   23       -1.120339     -1.120367   1.000000   1.000000
   24       -0.959321     -0.959346   1.000000   1.000000
   25       -0.914966     -0.914992   1.000000   1.000000
   26       -0.714145     -0.714170   1.000000   1.000000
   27       -0.565228     -0.565254   1.000000   1.000000
   28       -0.281687     -0.281717   1.000000   1.000000
   29       -0.209400     -0.209428   1.000000   1.000000
   30        0.153628      0.153600   1.000000   1.000000
   31        0.380232      0.380200   1.000000   1.000000
   32        0.387908      0.387878   1.000000   1.000000
   33        0.992118      0.992081   1.000000   1.000000
   34        1.046036      1.046005   1.000000   1.000000
   35        1.102471      1.102445   1.000000   1.000000
   36        1.230528      1.230501   1.000000   1.000000
   37        1.393816      1.393781   1.000000   1.000000
   38        1.482487      1.482449   1.000000   1.000000
   39        8.336269      8.336238   0.000000   0.000000
   40       10.023278     10.023145   0.000000   0.000000
   41       10.166601     10.166582   0.000000   0.000000
   42       10.775759     10.775751   0.000000   0.000000
   43       11.130693     11.130670   0.000000   0.000000
   44       11.438840     11.438711   0.000000   0.000000
   45       11.805051     11.805000   0.000000   0.000000
   46       12.060368     12.060332   0.000000   0.000000
   47       12.596382     12.596400   0.000000   0.000000
   48       13.049271     13.049227   0.000000   0.000000
   49       13.383018     13.383166   0.000000   0.000000
   50       13.860347     13.859588   0.000000   0.000000
   51       14.171284     14.171913   0.000000   0.000000
   52       14.677433     14.677833   0.000000   0.000000
   53       14.768493     14.759136   0.000000   0.000000
   54       15.136754     15.147988   0.000000   0.000000
   55       15.180347     15.179257   0.000000   0.000000
   56       15.516884     15.552036   0.000000   0.000000
 
  0.2857143E+00  0.1666667E+00  0.0000000E+00  0.1904762E-01
    1      -40.702363    -40.702135   1.000000   1.000000
    2      -40.701699    -40.701471   1.000000   1.000000
    3      -40.379911    -40.379667   1.000000   1.000000
    4      -40.373216    -40.372971   1.000000   1.000000
    5      -40.369337    -40.369093   1.000000   1.000000
    6      -40.362623    -40.362379   1.000000   1.000000
    7      -18.326802    -18.326833   1.000000   1.000000
    8      -18.200881    -18.200913   1.000000   1.000000
    9      -15.710131    -15.710169   1.000000   1.000000
   10      -15.667068    -15.667100   1.000000   1.000000
   11      -15.640179    -15.640214   1.000000   1.000000
   12      -15.630199    -15.630236   1.000000   1.000000
   13      -15.598319    -15.598352   1.000000   1.000000
   14      -15.589876    -15.589913   1.000000   1.000000
   15       -5.262658     -5.262683   1.000000   1.000000
   16       -5.091382     -5.091411   1.000000   1.000000
   17       -3.161067     -3.161091   1.000000   1.000000
   18       -3.034736     -3.034764   1.000000   1.000000
   19       -2.992398     -2.992424   1.000000   1.000000
   20       -2.906063     -2.906093   1.000000   1.000000
   21       -2.769146     -2.769169   1.000000   1.000000
   22       -2.766663     -2.766693   1.000000   1.000000
   23       -1.189673     -1.189700   1.000000   1.000000
   24       -1.015790     -1.015816   1.000000   1.000000
   25       -1.000281     -1.000305   1.000000   1.000000
   26       -0.824416     -0.824440   1.000000   1.000000
   27       -0.642358     -0.642386   1.000000   1.000000
   28       -0.246756     -0.246782   1.000000   1.000000
   29       -0.151188     -0.151215   1.000000   1.000000
   30       -0.145693     -0.145723   1.000000   1.000000
   31        0.199359      0.199330   1.000000   1.000000
   32        0.291962      0.291931   1.000000   1.000000
   33        1.033741      1.033704   1.000000   1.000000
   34        1.171900      1.171867   1.000000   1.000000
   35        1.196025      1.195997   1.000000   1.000000
   36        1.294088      1.294060   1.000000   1.000000
   37        1.341260      1.341223   1.000000   1.000000
   38        1.495252      1.495215   1.000000   1.000000
   39        8.786891      8.786858   0.000000   0.000000
   40        9.710238      9.710182   0.000000   0.000000
   41       10.036998     10.036966   0.000000   0.000000
   42       10.719132     10.719182   0.000000   0.000000
   43       11.152155     11.152100   0.000000   0.000000
   44       11.180920     11.180932   0.000000   0.000000
   45       11.599880     11.599868   0.000000   0.000000
   46       11.832661     11.832642   0.000000   0.000000
   47       12.653254     12.653277   0.000000   0.000000
   48       12.998856     12.998828   0.000000   0.000000
   49       13.459514     13.459609   0.000000   0.000000
   50       13.841489     13.841174   0.000000   0.000000
   51       13.880914     13.881180   0.000000   0.000000
   52       14.601022     14.598420   0.000000   0.000000
   53       14.753698     14.753682   0.000000   0.000000
   54       15.116309     15.104899   0.000000   0.000000
   55       15.149866     15.145104   0.000000   0.000000
   56       15.607471     15.623755   0.000000   0.000000
 
  0.4285714E+00  0.1666667E+00  0.0000000E+00  0.1904762E-01
    1      -40.702062    -40.701834   1.000000   1.000000
    2      -40.701843    -40.701615   1.000000   1.000000
    3      -40.377799    -40.377554   1.000000   1.000000
    4      -40.375415    -40.375170   1.000000   1.000000
    5      -40.367189    -40.366944   1.000000   1.000000
    6      -40.364803    -40.364558   1.000000   1.000000
    7      -18.271980    -18.272012   1.000000   1.000000
    8      -18.226290    -18.226322   1.000000   1.000000
    9      -15.712927    -15.712966   1.000000   1.000000
   10      -15.684008    -15.684047   1.000000   1.000000
   11      -15.646598    -15.646630   1.000000   1.000000
   12      -15.629397    -15.629432   1.000000   1.000000
   13      -15.622063    -15.622095   1.000000   1.000000
   14      -15.613177    -15.613212   1.000000   1.000000
   15       -5.229736     -5.229762   1.000000   1.000000
   16       -5.157981     -5.158009   1.000000   1.000000
   17       -3.063010     -3.063034   1.000000   1.000000
   18       -3.001821     -3.001845   1.000000   1.000000
   19       -2.901791     -2.901816   1.000000   1.000000
   20       -2.818248     -2.818272   1.000000   1.000000
   21       -2.594164     -2.594198   1.000000   1.000000
   22       -2.513654     -2.513690   1.000000   1.000000
   23       -1.201093     -1.201119   1.000000   1.000000
   24       -1.130434     -1.130460   1.000000   1.000000
   25       -1.017170     -1.017194   1.000000   1.000000
   26       -0.957891     -0.957914   1.000000   1.000000
   27       -0.763299     -0.763324   1.000000   1.000000
   28       -0.681168     -0.681191   1.000000   1.000000
   29       -0.070222     -0.070250   1.000000   1.000000
   30        0.013204      0.013174   1.000000   1.000000
   31        0.059841      0.059813   1.000000   1.000000
   32        0.165231      0.165200   1.000000   1.000000
   33        1.100908      1.100871   1.000000   1.000000
   34        1.187491      1.187454   1.000000   1.000000
   35        1.285414      1.285386   1.000000   1.000000
   36        1.327739      1.327710   1.000000   1.000000
   37        1.381279      1.381243   1.000000   1.000000
   38        1.472799      1.472763   1.000000   1.000000
   39        9.262615      9.262588   0.000000   0.000000
   40        9.494891      9.494861   0.000000   0.000000
   41       10.182153     10.182186   0.000000   0.000000
   42       10.558412     10.558501   0.000000   0.000000
   43       10.862953     10.862919   0.000000   0.000000
   44       11.073297     11.073306   0.000000   0.000000
   45       11.301239     11.301345   0.000000   0.000000
   46       11.535968     11.535967   0.000000   0.000000
   47       12.761221     12.761123   0.000000   0.000000
   48       12.978599     12.978603   0.000000   0.000000
   49       13.558375     13.558305   0.000000   0.000000
   50       13.870580     13.869158   0.000000   0.000000
   51       14.002712     14.004425   0.000000   0.000000
   52       14.282649     14.286130   0.000000   0.000000
   53       14.638587     14.639341   0.000000   0.000000
   54       14.800125     14.798171   0.000000   0.000000
   55       15.336966     15.336565   0.000000   0.000000
   56       15.569824     15.661198   0.000000   0.000000
 
  0.0000000E+00  0.3333333E+00  0.0000000E+00  0.9523810E-02
    1      -40.702469    -40.702241   1.000000   1.000000
    2      -40.701726    -40.701497   1.000000   1.000000
    3      -40.382011    -40.381767   1.000000   1.000000
    4      -40.371290    -40.371045   1.000000   1.000000
    5      -40.371115    -40.370870   1.000000   1.000000
    6      -40.360677    -40.360432   1.000000   1.000000
    7      -18.360838    -18.360869   1.000000   1.000000
    8      -18.207789    -18.207821   1.000000   1.000000
    9      -15.720903    -15.720936   1.000000   1.000000
   10      -15.669545    -15.669577   1.000000   1.000000
   11      -15.623929    -15.623970   1.000000   1.000000
   12      -15.592816    -15.592849   1.000000   1.000000
   13      -15.592303    -15.592337   1.000000   1.000000
   14      -15.538852    -15.538894   1.000000   1.000000
   15       -5.187243     -5.187268   1.000000   1.000000
   16       -5.072544     -5.072572   1.000000   1.000000
   17       -3.420746     -3.420776   1.000000   1.000000
   18       -3.313499     -3.313527   1.000000   1.000000
   19       -3.107679     -3.107707   1.000000   1.000000
   20       -3.086982     -3.087008   1.000000   1.000000
   21       -2.741773     -2.741798   1.000000   1.000000
   22       -2.697712     -2.697734   1.000000   1.000000
   23       -1.082765     -1.082794   1.000000   1.000000
   24       -0.962553     -0.962579   1.000000   1.000000
   25       -0.890905     -0.890932   1.000000   1.000000
   26       -0.773859     -0.773887   1.000000   1.000000
   27       -0.484108     -0.484134   1.000000   1.000000
   28       -0.300842     -0.300870   1.000000   1.000000
   29       -0.182786     -0.182812   1.000000   1.000000
   30       -0.002425     -0.002454   1.000000   1.000000
   31        0.388952      0.388919   1.000000   1.000000
   32        0.428534      0.428503   1.000000   1.000000
   33        0.927512      0.927480   1.000000   1.000000
   34        1.036892      1.036867   1.000000   1.000000
   35        1.053996      1.053960   1.000000   1.000000
   36        1.235433      1.235406   1.000000   1.000000
   37        1.321519      1.321484   1.000000   1.000000
   38        1.554508      1.554470   1.000000   1.000000
   39        8.760153      8.760121   0.000000   0.000000
   40        9.740241      9.740189   0.000000   0.000000
   41       10.216825     10.216766   0.000000   0.000000
   42       10.648204     10.648217   0.000000   0.000000
   43       10.992986     10.992938   0.000000   0.000000
   44       11.820817     11.820848   0.000000   0.000000
   45       11.964027     11.964192   0.000000   0.000000
   46       12.077921     12.077861   0.000000   0.000000
   47       12.267155     12.267169   0.000000   0.000000
   48       12.998020     12.998484   0.000000   0.000000
   49       13.401790     13.401630   0.000000   0.000000
   50       13.667997     13.666582   0.000000   0.000000
   51       14.181227     14.181455   0.000000   0.000000
   52       14.512289     14.509306   0.000000   0.000000
   53       14.525088     14.524972   0.000000   0.000000
   54       15.362222     15.363209   0.000000   0.000000
   55       15.806436     15.817280   0.000000   0.000000
   56       15.971071     15.917461   0.000000   0.000000
 