 running on    8 total cores
 distrk:  each k-point on    8 cores,    1 groups
 distr:  one band on    1 cores,    8 groups
 using from now: INCAR     
 vasp.6.1.2 22Jul20 (build Mar 20 2021 11:25:07) complex                        
  
 POSCAR found type information on POSCAR LiP O 
 POSCAR found :  3 types and      16 ions
 scaLAPACK will be used
 -----------------------------------------------------------------------------
|                                                                             |
|           W    W    AA    RRRRR   N    N  II  N    N   GGGG   !!!           |
|           W    W   A  A   R    R  NN   N  II  NN   N  G    G  !!!           |
|           W    W  A    A  R    R  N N  N  II  N N  N  G       !!!           |
|           W WW W  AAAAAA  RRRRR   N  N N  II  N  N N  G  GGG   !            |
|           WW  WW  A    A  R   R   N   NN  II  N   NN  G    G                |
|           W    W  A    A  R    R  N    N  II  N    N   GGGG   !!!           |
|                                                                             |
|     The value NCORE = 6 specified in the INCAR file was overwritten,        |
|     because it was not compatible with the 8 processes available:           |
|     NCORE = 1                                                               |
|     was used instead, please check that this makes sense for your           |
|     machine.                                                                |
|                                                                             |
 -----------------------------------------------------------------------------

 -----------------------------------------------------------------------------
|                                                                             |
|           W    W    AA    RRRRR   N    N  II  N    N   GGGG   !!!           |
|           W    W   A  A   R    R  NN   N  II  NN   N  G    G  !!!           |
|           W    W  A    A  R    R  N N  N  II  N N  N  G       !!!           |
|           W WW W  AAAAAA  RRRRR   N  N N  II  N  N N  G  GGG   !            |
|           WW  WW  A    A  R   R   N   NN  II  N   NN  G    G                |
|           W    W  A    A  R    R  N    N  II  N    N   GGGG   !!!           |
|                                                                             |
|     For optimal performance we recommend to set                             |
|       NCORE = 4 - approx SQRT(number of cores).                             |
|     NCORE specifies how many cores store one orbital (NPAR=cpu/NCORE).      |
|     This setting can greatly improve the performance of VASP for DFT.       |
|     The default, NCORE=1 might be grossly inefficient on modern             |
|     multi-core architectures or massively parallel machines. Do your        |
|     own testing!!!!                                                         |
|     Unfortunately you need to use the default for GW and RPA                |
|     calculations (for HF NCORE is supported but not extensively tested      |
|     yet).                                                                   |
|                                                                             |
 -----------------------------------------------------------------------------

 LDA part: xc-table for Pade appr. of Perdew
 -----------------------------------------------------------------------------
|                                                                             |
|           W    W    AA    RRRRR   N    N  II  N    N   GGGG   !!!           |
|           W    W   A  A   R    R  NN   N  II  NN   N  G    G  !!!           |
|           W    W  A    A  R    R  N N  N  II  N N  N  G       !!!           |
|           W WW W  AAAAAA  RRRRR   N  N N  II  N  N N  G  GGG   !            |
|           WW  WW  A    A  R   R   N   NN  II  N   NN  G    G                |
|           W    W  A    A  R    R  N    N  II  N    N   GGGG   !!!           |
|                                                                             |
|     The determination of the symmetry of your systems shows a strong        |
|     dependence on the tolerance parameter SYMPREC. This is often the        |
|     result of "noise" in the structural parameters (lattice vectors         |
|     and/or ionic positions). Set NWRITE=3 for more details.                 |
|                                                                             |
 -----------------------------------------------------------------------------

 generate k-points for:    7    6    5
 POSCAR, INCAR and KPOINTS ok, starting setup
 FFT: planning ...
 WAVECAR not read
 entering main loop
       N       E                     dE             d eps       ncg     rms          rms(c)
DAV:   1     0.608703748704E+03    0.60870E+03   -0.36867E+04 10752   0.144E+03
DAV:   2    -0.462597723225E+02   -0.65496E+03   -0.61915E+03 12344   0.381E+02
DAV:   3    -0.103235542787E+03   -0.56976E+02   -0.56664E+02 14848   0.104E+02
DAV:   4    -0.108705538836E+03   -0.54700E+01   -0.54383E+01 17688   0.266E+01
DAV:   5    -0.109173077231E+03   -0.46754E+00   -0.46741E+00 15264   0.559E+00    0.393E+01
RMM:   6    -0.991368910388E+02    0.10036E+02   -0.37581E+01 11708   0.220E+01    0.159E+01
RMM:   7    -0.100132615097E+03   -0.99572E+00   -0.41529E+00 15371   0.777E+00    0.843E+00
RMM:   8    -0.100356416036E+03   -0.22380E+00   -0.87442E-01 17297   0.395E+00    0.416E+00
RMM:   9    -0.100426253994E+03   -0.69838E-01   -0.32661E-01 17313   0.282E+00    0.817E-01
RMM:  10    -0.100455957471E+03   -0.29703E-01   -0.23035E-01 19982   0.165E+00    0.365E-01
RMM:  11    -0.100469575404E+03   -0.13618E-01   -0.99848E-02 20576   0.990E-01    0.300E-01
RMM:  12    -0.100475353651E+03   -0.57782E-02   -0.38705E-02 20835   0.606E-01    0.194E-01
RMM:  13    -0.100477409218E+03   -0.20556E-02   -0.13968E-02 20073   0.412E-01    0.864E-02
RMM:  14    -0.100478283055E+03   -0.87384E-03   -0.73896E-03 20635   0.287E-01    0.275E-02
RMM:  15    -0.100478648243E+03   -0.36519E-03   -0.32718E-03 20336   0.176E-01    0.288E-02
RMM:  16    -0.100478791481E+03   -0.14324E-03   -0.13554E-03 19985   0.113E-01    0.199E-02
RMM:  17    -0.100478849963E+03   -0.58482E-04   -0.53110E-04 19504   0.768E-02    0.124E-02
RMM:  18    -0.100478876868E+03   -0.26905E-04   -0.25665E-04 18912   0.503E-02    0.140E-02
RMM:  19    -0.100478888203E+03   -0.11335E-04   -0.83918E-05 16085   0.345E-02    0.208E-02
RMM:  20    -0.100478888019E+03    0.18366E-06   -0.49661E-05 16547   0.287E-02
   1 F= -.10047889E+03 E0= -.10047889E+03  d E =0.000000E+00  mag=    -0.0001
