Automatically generated mesh
     104
Reciprocal lattice
    0.00000000000000    0.00000000000000    0.00000000000000             1
    0.07142857142857   -0.00000000000000    0.00000000000000            12
    0.14285714285715    0.00000000000000    0.00000000000000            12
    0.21428571428572    0.00000000000000   -0.00000000000000            12
    0.28571428571428    0.00000000000000    0.00000000000000            12
    0.35714285714285    0.00000000000000   -0.00000000000000            12
    0.42857142857143    0.00000000000000   -0.00000000000000            12
    0.50000000000000    0.00000000000000   -0.00000000000000             6
    0.07142857142857    0.07142857142857   -0.00000000000000            24
    0.14285714285715    0.07142857142857   -0.00000000000000            48
    0.21428571428572    0.07142857142857   -0.00000000000000            48
    0.28571428571428    0.07142857142857   -0.00000000000000            48
    0.35714285714285    0.07142857142857   -0.00000000000000            48
    0.42857142857143    0.07142857142857   -0.00000000000000            48
    0.14285714285715    0.14285714285715   -0.00000000000000            24
    0.21428571428572    0.14285714285715   -0.00000000000000            48
    0.28571428571428    0.14285714285715   -0.00000000000000            48
    0.35714285714285    0.14285714285715   -0.00000000000000            48
    0.42857142857143    0.14285714285715   -0.00000000000000            24
    0.21428571428572    0.21428571428572   -0.00000000000001            24
    0.28571428571428    0.21428571428572   -0.00000000000001            48
    0.35714285714285    0.21428571428572   -0.00000000000001            48
    0.28571428571428    0.28571428571428    0.00000000000001            24
    0.35714285714285    0.28571428571428    0.00000000000001            24
    0.07142857142857    0.07142857142857    0.07142857142857             8
    0.14285714285715    0.07142857142857    0.07142857142857            24
    0.21428571428572    0.07142857142857    0.07142857142857            24
    0.28571428571428    0.07142857142857    0.07142857142857            24
    0.35714285714285    0.07142857142857    0.07142857142857            24
    0.42857142857143    0.07142857142857    0.07142857142857            12
   -0.07142857142857    0.07142857142857    0.07142857142857             6
    0.14285714285715    0.14285714285715    0.07142857142857            24
    0.21428571428572    0.14285714285715    0.07142857142857            48
    0.28571428571428    0.14285714285715    0.07142857142857            48
    0.35714285714285    0.14285714285715    0.07142857142857            48
   -0.14285714285715    0.14285714285715    0.07142857142857            24
    0.21428571428572    0.21428571428572    0.07142857142858            24
    0.28571428571428    0.21428571428572    0.07142857142858            48
    0.35714285714285    0.21428571428572    0.07142857142858            24
   -0.21428571428572    0.21428571428572    0.07142857142858            24
   -0.14285714285715    0.21428571428572    0.07142857142858            24
    0.28571428571428    0.28571428571428    0.07142857142857            24
   -0.28571428571428    0.28571428571428    0.07142857142857            24
   -0.21428571428572    0.28571428571428    0.07142857142857            48
   -0.35714285714285    0.35714285714285    0.07142857142857            24
   -0.28571428571428    0.35714285714285    0.07142857142857            48
   -0.21428571428572    0.35714285714285    0.07142857142857            24
   -0.42857142857143    0.42857142857143    0.07142857142857            24
   -0.35714285714285    0.42857142857143    0.07142857142857            48
   -0.28571428571428    0.42857142857143    0.07142857142857            48
    0.50000000000000    0.50000000000000    0.07142857142857            12
   -0.42857142857143    0.50000000000000    0.07142857142857            48
   -0.35714285714285    0.50000000000000    0.07142857142857            48
   -0.28571428571428    0.50000000000000    0.07142857142857            24
   -0.42857142857143   -0.42857142857143    0.07142857142857            24
   -0.35714285714285   -0.42857142857143    0.07142857142857            48
   -0.35714285714285   -0.35714285714285    0.07142857142857             8
    0.14285714285715    0.14285714285715    0.14285714285715             8
    0.21428571428572    0.14285714285715    0.14285714285715            24
    0.28571428571428    0.14285714285715    0.14285714285715            24
    0.35714285714285    0.14285714285715    0.14285714285715            12
   -0.14285714285715    0.14285714285715    0.14285714285715             6
    0.21428571428572    0.21428571428572    0.14285714285715            24
    0.28571428571428    0.21428571428572    0.14285714285715            48
   -0.21428571428572    0.21428571428572    0.14285714285715            24
    0.28571428571428    0.28571428571428    0.14285714285715             8
   -0.28571428571428    0.28571428571428    0.14285714285714            24
   -0.21428571428572    0.28571428571428    0.14285714285714            24
   -0.35714285714285    0.35714285714285    0.14285714285714            24
   -0.28571428571428    0.35714285714285    0.14285714285714            48
   -0.42857142857143    0.42857142857143    0.14285714285714            24
   -0.35714285714285    0.42857142857143    0.14285714285714            48
   -0.28571428571428    0.42857142857143    0.14285714285714            24
    0.50000000000000    0.50000000000000    0.14285714285714            12
   -0.42857142857143    0.50000000000000    0.14285714285714            48
   -0.35714285714285    0.50000000000000    0.14285714285714            48
   -0.42857142857143   -0.42857142857143    0.14285714285714            24
   -0.35714285714285   -0.42857142857143    0.14285714285714            24
    0.21428571428572    0.21428571428572    0.21428571428572             8
    0.28571428571428    0.21428571428572    0.21428571428572            12
   -0.21428571428572    0.21428571428572    0.21428571428572             6
   -0.28571428571428    0.28571428571428    0.21428571428571            24
   -0.35714285714285    0.35714285714285    0.21428571428571            24
   -0.28571428571428    0.35714285714285    0.21428571428571            24
   -0.42857142857143    0.42857142857143    0.21428571428571            24
   -0.35714285714285    0.42857142857143    0.21428571428571            48
    0.50000000000000    0.50000000000000    0.21428571428571            12
   -0.42857142857143    0.50000000000000    0.21428571428571            48
   -0.35714285714285    0.50000000000000    0.21428571428571            24
   -0.42857142857143   -0.42857142857143    0.21428571428572            24
   -0.28571428571428    0.28571428571428    0.28571428571428             6
   -0.35714285714285    0.35714285714285    0.28571428571428            24
   -0.42857142857143    0.42857142857143    0.28571428571428            24
   -0.35714285714285    0.42857142857143    0.28571428571428            24
    0.50000000000000    0.50000000000000    0.28571428571429            12
   -0.42857142857143    0.50000000000000    0.28571428571429            48
   -0.42857142857143   -0.42857142857143    0.28571428571429             8
   -0.35714285714285    0.35714285714285    0.35714285714285             6
   -0.42857142857143    0.42857142857143    0.35714285714286            24
    0.50000000000000    0.50000000000000    0.35714285714286            12
   -0.42857142857143    0.50000000000000    0.35714285714286            24
   -0.42857142857143    0.42857142857143    0.42857142857143             6
    0.50000000000000    0.50000000000000    0.42857142857143            12
    0.50000000000000    0.50000000000000    0.50000000000000             1
Tetrahedra
      3105    0.00006073858115
         4         1         2         2         9
        12         2         2         9         9
         4         2         9         9        25
         4         2         3         9        10
         4         2         9         9        10
        12         9         9        10        25
        12         3         9        10        10
         8         9        10        10        26
         8         9        10        25        26
         4         3         4        10        11
         4         3        10        10        11
        12        10        10        11        26
        12         4        10        11        11
         4        10        11        11        27
         4        10        11        26        27
         4         4         5        11        12
         4         4        11        11        12
         8        11        11        12        27
        12         5        11        12        12
         4        11        12        12        28
         4        11        12        27        28
         4         5         6        12        13
         4         5        12        12        13
         8        12        12        13        28
        12         6        12        13        13
         4        12        13        13        29
         4        12        13        28        29
         4         6         7        13        14
         4         6        13        13        14
         8        13        13        14        29
        12         7        13        14        14
         4        13        14        14        30
         4        13        14        29        30
         8         7         8        14        14
         8         7        14        14        14
         8        14        14        14        30
        16         8        14        14        14
         4        14        14        14        29
         4        14        14        29        30
         4         7         8        13        14
         4         8        13        14        14
         8        13        14        14        29
        12         7        13        13        14
         4        13        13        14        28
         4        13        14        28        29
         4         6         7        12        13
         4         7        12        13        13
         8        12        13        13        28
        12         6        12        12        13
         4        12        12        13        27
         4        12        13        27        28
         4         5         6        11        12
         4         6        11        12        12
         8        11        12        12        27
        12         5        11        11        12
         4        11        11        12        26
         4        11        12        26        27
         4         4         5        10        11
         4         5        10        11        11
         8        10        11        11        26
        12         4        10        10        11
         4        10        10        11        25
         4        10        11        25        26
         4         3         4         9        10
         4         4         9        10        10
        16         9        10        10        25
        12         3         9         9        10
         4         9         9         9        10
         4         2         2         3         9
        12         2         3         9         9
         8         2         9         9         9
         8         2         2         2         9
        12         2         2         9        31
        12         2         9         9        31
         8         1         2         2         2
         4         2         2         2         2
         4         2         2         2        31
         4         9        10        15        25
        12        10        15        25        26
         4        15        25        26        32
         4        10        11        16        26
         4        10        15        16        26
         8        15        16        26        32
        12        11        16        26        27
         4        16        26        27        33
         4        16        26        32        33
         4        11        12        17        27
         4        11        16        17        27
         8        16        17        27        33
        12        12        17        27        28
         4        17        27        28        34
         4        17        27        33        34
         4        12        13        18        28
         4        12        17        18        28
         8        17        18        28        34
        12        13        18        28        29
         4        18        28        29        35
         4        18        28        34        35
         4        13        14        19        29
         4        13        18        19        29
         8        18        19        29        35
        16        14        19        29        30
        16        19        29        30        35
         8        19        29        35        35
         8        14        14        18        30
        12        14        18        19        30
        12        18        19        30        35
        12        14        18        29        30
         4        18        29        30        34
         4        18        30        34        35
         4        13        14        17        29
         4        14        17        18        29
         8        17        18        29        34
        12        13        17        28        29
         4        17        28        29        33
         4        17        29        33        34
         4        12        13        16        28
         4        13        16        17        28
         8        16        17        28        33
        12        12        16        27        28
         4        16        27        28        32
         4        16        28        32        33
         4        11        12        15        27
         4        12        15        16        27
        12        15        16        27        32
        12        11        15        26        27
         4        15        26        26        27
        16        15        26        27        32
        16        10        11        15        26
         8        10        15        26        26
        16        10        10        25        26
         4        10        10        26        26
        12         3         9        10        25
         8         3        10        10        25
         8         3         9         9        25
         4         3         9        25        36
         4         3        10        25        36
         4         3         9         9         9
         4         3         9         9        36
         8         9         9        31        36
         4         9         9        36        36
         4         2         2         3        31
        16         2         3         9        31
        12         3         9        31        36
         4         3         9        10        31
         4         3        10        31        36
         4        15        16        20        32
         8        16        20        32        33
         4        20        32        33        37
         4        16        17        21        33
         4        16        20        21        33
         8        20        21        33        37
         8        17        21        33        34
         4        21        33        34        38
         4        21        33        37        38
         4        17        18        22        34
         4        17        21        22        34
         8        21        22        34        38
         8        18        22        34        35
         4        22        34        35        39
         4        22        34        38        39
         8        18        19        22        35
         4        18        22        22        35
         8        22        22        35        39
         8        19        22        35        35
         4        22        35        35        38
         8        22        35        38        39
         4        18        19        21        35
         4        19        21        22        35
         8        21        22        35        38
         8        18        21        34        35
         4        21        34        35        37
         4        21        35        37        38
         4        17        18        20        34
         4        18        20        21        34
        12        20        21        34        37
         8        17        20        33        34
         4        20        33        33        34
        12        20        33        34        37
         4        16        16        17        33
         8        16        17        20        33
         8        16        20        33        33
         8        16        16        32        33
        16        16        27        32        33
         4        16        27        33        33
        12        11        15        16        32
         4        11        16        16        32
         8        11        16        27        32
        12        11        15        26        32
         4        11        11        26        32
         4        11        11        27        32
         4         4        10        15        26
         4         4        11        15        26
         4         4        11        11        26
         4         4        10        10        26
         4         4        10        26        40
         4         4        11        26        40
         4         3        10        10        10
         4         4        10        10        10
         4         4        10        10        40
         8         3        10        10        36
        12        10        10        36        41
         4        10        10        40        41
        16         3         9        10        36
         8         9        10        36        36
         4        10        36        36        40
         8        10        36        40        41
         4         3         4         9        36
         4         4         9        10        36
         8         4        10        36        40
        12         3         4        10        36
         4         4        10        11        36
         4         4        11        36        40
         4        20        21        23        37
         8        21        23        37        38
         4        23        37        38        42
         4        21        22        24        38
         4        21        23        24        38
         8        23        24        38        42
        12        22        24        38        39
        12        24        38        39        42
         4        24        38        42        42
         4        22        22        23        39
        12        22        23        24        39
        16        23        24        39        42
         8        22        23        38        39
         4        23        38        38        39
        12        23        38        39        42
         4        21        21        22        38
         8        21        22        23        38
         8        21        23        38        38
         8        21        21        37        38
         8        21        34        37        38
         4        21        34        38        38
        12        17        20        21        37
         4        17        21        21        37
         8        17        21        34        37
        12        17        20        33        37
         4        17        28        33        37
         4        17        28        34        37
         4        12        16        20        33
         4        12        17        20        33
         8        12        17        28        33
         8        12        16        27        33
         4        12        12        27        33
         4        12        12        28        33
         4         5        11        16        27
         4         5        12        16        27
         4         5        12        12        27
         4         5        11        11        27
         4         5        11        27        43
         4         5        12        27        43
         4         4        11        11        11
         4         5        11        11        11
         4         5        11        11        43
         4         4        11        11        40
         4        11        11        40        44
         4        11        11        43        44
         4         4        10        15        40
         4         4        11        15        40
         8        11        15        40        44
        12        10        15        40        41
        12        15        40        41        44
         4        15        40        44        44
         4        10        10        11        41
        12        10        11        15        41
        12        11        15        41        44
         8        10        11        40        41
         4        11        40        41        43
         4        11        41        43        44
         4         4         5        10        40
         4         5        10        11        40
         8         5        11        40        43
        12         4         5        11        40
         4         5        11        12        40
         4         5        12        40        43
         8        23        24        24        42
         8        24        24        42        42
         8        24        39        42        42
        12        22        23        24        42
         4        22        24        24        42
         8        22        24        39        42
        12        22        23        38        42
         4        22        35        38        42
         4        22        35        39        42
         4        18        21        23        38
         4        18        22        23        38
         8        18        22        35        38
         8        18        21        34        38
         4        18        29        34        38
         4        18        29        35        38
         4        13        17        21        34
         4        13        18        21        34
         8        13        18        29        34
         8        13        17        28        34
         4        13        13        28        34
         4        13        13        29        34
         4         6        12        17        28
         4         6        13        17        28
         4         6        13        13        28
         4         6        12        12        28
         4         6        12        28        45
         4         6        13        28        45
         4         5        12        12        12
         4         6        12        12        12
         4         6        12        12        45
         4         5        12        12        43
         4        12        12        43        46
         4        12        12        45        46
         4         5        11        16        43
         4         5        12        16        43
         8        12        16        43        46
         8        11        16        43        44
         4        16        43        44        47
         4        16        43        46        47
         8        11        15        16        44
         4        11        16        16        44
         8        16        16        44        47
         8        15        16        44        44
         4        16        44        44        46
         8        16        44        46        47
         4        11        12        15        44
         4        12        15        16        44
         8        12        16        44        46
         8        11        12        43        44
         4        12        43        44        45
         4        12        44        45        46
         4         5         6        11        43
         4         6        11        12        43
         8         6        12        43        45
        12         5         6        12        43
         4         6        12        13        43
         4         6        13        43        45
         4        19        22        24        39
         8        19        22        35        39
         4        19        30        35        39
         4        14        18        22        35
         4        14        19        22        35
         8        14        19        30        35
         8        14        18        29        35
         4        14        14        29        35
         8        14        14        30        35
         4         7        13        18        29
         4         7        14        18        29
         4         7        14        14        29
         4         7        13        13        29
         4         7        13        29        48
         4         7        14        29        48
         4         6        13        13        13
         4         7        13        13        13
         4         7        13        13        48
         4         6        13        13        45
         4        13        13        45        49
         4        13        13        48        49
         4         6        12        17        45
         4         6        13        17        45
         8        13        17        45        49
         8        12        17        45        46
         4        17        45        46        50
         4        17        45        49        50
         4        12        16        20        46
         4        12        17        20        46
         8        17        20        46        50
        12        16        20        46        47
        12        20        46        47        50
         4        20        46        50        50
         4        16        16        17        47
        12        16        17        20        47
        12        17        20        47        50
         8        16        17        46        47
         4        17        46        47        49
         4        17        47        49        50
         4        12        13        16        46
         4        13        16        17        46
         8        13        17        46        49
         8        12        13        45        46
         4        13        45        46        48
         4        13        46        48        49
         4         6         7        12        45
         4         7        12        13        45
         8         7        13        45        48
        12         6         7        13        45
         4         7        13        14        45
         4         7        14        45        48
         4         8        14        19        30
         8         8        14        14        30
         4         8        14        30        51
         8         8        14        14        51
         4         7        14        14        48
         8        14        14        48        52
        12        14        14        51        52
         4         7        13        18        48
         4         7        14        18        48
         8        14        18        48        52
         8        13        18        48        49
         4        18        48        49        53
         4        18        48        52        53
         4        13        17        21        49
         4        13        18        21        49
         8        18        21        49        53
         8        17        21        49        50
         4        21        49        50        54
         4        21        49        53        54
         8        17        20        21        50
         4        17        21        21        50
         8        21        21        50        54
         8        20        21        50        50
         4        21        50        50        53
         8        21        50        53        54
         4        17        18        20        50
         4        18        20        21        50
         8        18        21        50        53
         8        17        18        49        50
         4        18        49        50        52
         4        18        50        52        53
         4        13        14        17        49
         4        14        17        18        49
         8        14        18        49        52
         8        13        14        48        49
         4        14        48        49        51
         4        14        49        51        52
         4         7         8        13        48
         4         8        13        14        48
        12         8        14        48        51
        12         7         8        14        48
         8         8        14        14        48
         4         8        14        19        51
         8        14        19        51        52
         4        19        51        52        55
         4        14        18        22        52
         4        14        19        22        52
         8        19        22        52        55
         8        18        22        52        53