       N       E                     dE             d eps       ncg     rms          rms(c)
DAV:   1     0.886238648193E-01    0.88624E-01   -0.74587E+02  3360   0.269E+02
DAV:   2    -0.155847999678E+01   -0.16471E+01   -0.16147E+01  4824   0.337E+01
DAV:   3    -0.158794550244E+01   -0.29466E-01   -0.29419E-01  3832   0.298E+00
DAV:   4    -0.158834844105E+01   -0.40294E-03   -0.40293E-03  4824   0.290E-01
DAV:   5    -0.158835117993E+01   -0.27389E-05   -0.27385E-05  3952   0.131E-02    0.545E+00
RMM:   6    -0.182100170945E+01   -0.23265E+00   -0.50805E-02  4055   0.165E+00    0.258E+00
RMM:   7    -0.189013448993E+01   -0.69133E-01   -0.14658E-02  3575   0.941E-01    0.157E-01
RMM:   8    -0.189116118844E+01   -0.10267E-02   -0.42967E-03  3947   0.556E-01    0.971E-02
RMM:   9    -0.189154061250E+01   -0.37942E-03   -0.16335E-03  4650   0.325E-01    0.360E-02
RMM:  10    -0.189180910868E+01   -0.26850E-03   -0.12761E-03  4321   0.276E-01    0.285E-02
RMM:  11    -0.189186301152E+01   -0.53903E-04   -0.20956E-04  4732   0.119E-01    0.234E-02
RMM:  12    -0.189188751967E+01   -0.24508E-04   -0.13348E-04  4492   0.879E-02    0.723E-03
RMM:  13    -0.189189568114E+01   -0.81615E-05   -0.32261E-05  4327   0.473E-02
   1 F= -.18918957E+01 E0= -.18918957E+01  d E =0.000000E+00  mag=    -0.0000
