    8    8    1    2
  0.1503107E+02  0.4266676E-09  0.4266676E-09  0.7627285E-09  0.5000000E-15
  1.000000000000000E-004
  CAR 
 unknown system                          
     28     36     22
 
  0.0000000E+00  0.0000000E+00  0.0000000E+00  0.3086420E-02
    1      -43.124808    -43.124260   1.000000   1.000000
    2      -43.101277    -43.100726   1.000000   1.000000
    3      -43.098084    -43.097533   1.000000   1.000000
    4      -43.074953    -43.074399   1.000000   1.000000
    5      -42.745714    -42.744900   1.000000   1.000000
    6      -42.745463    -42.744648   1.000000   1.000000
    7       -6.783646     -6.783728   1.000000   1.000000
    8       -6.415842     -6.415871   1.000000   1.000000
    9       -0.793243     -0.793400   1.000000   1.000000
   10        1.887364      1.887378   1.000000   1.000000
   11        2.041139      2.041073   1.000000   1.000000
   12        2.041155      2.041090   1.000000   1.000000
   13        2.438150      2.438186   1.000000   1.000000
   14        2.438155      2.438190   1.000000   1.000000
   15        4.714212      4.713882   0.000000   0.000000
   16        6.263502      6.262841   0.000000   0.000000
   17        6.358600      6.358315   0.000000   0.000000
   18        6.358628      6.358411   0.000000   0.000000
   19        6.612193      6.611439   0.000000   0.000000
   20        6.694942      6.694648   0.000000   0.000000
   21        6.695079      6.694702   0.000000   0.000000
   22        8.190808      8.150127   0.000000   0.000000
 
  0.1111111E+00  0.5791866E-17  0.0000000E+00  0.1851852E-01
    1      -43.123966    -43.123418   1.000000   1.000000
    2      -43.100550    -43.099999   1.000000   1.000000
    3      -43.098630    -43.098079   1.000000   1.000000
    4      -43.075639    -43.075086   1.000000   1.000000
    5      -42.745776    -42.744961   1.000000   1.000000
    6      -42.745544    -42.744729   1.000000   1.000000
    7       -6.736283     -6.736363   1.000000   1.000000
    8       -6.382873     -6.382899   1.000000   1.000000
    9       -0.705425     -0.705580   1.000000   1.000000
   10        1.564841      1.564741   1.000000   1.000000
   11        1.799269      1.799197   1.000000   1.000000
   12        1.871750      1.871761   1.000000   1.000000
   13        2.005705      2.005663   1.000000   1.000000
   14        2.353280      2.353302   1.000000   1.000000
   15        4.929707      4.929405   0.000000   0.000000
   16        6.104507      6.104017   0.000000   0.000000
   17        6.506255      6.505797   0.000000   0.000000
   18        6.716655      6.716363   0.000000   0.000000
   19        7.124083      7.123834   0.000000   0.000000
   20        7.196060      7.183003   0.000000   0.000000
   21        7.213098      7.219160   0.000000   0.000000
   22        7.269264      7.256595   0.000000   0.000000
 
  0.2222222E+00  0.2545375E-16  0.0000000E+00  0.1851852E-01
    1      -43.121600    -43.121052   1.000000   1.000000
    2      -43.100282    -43.099732   1.000000   1.000000
    3      -43.098519    -43.097968   1.000000   1.000000
    4      -43.077650    -43.077096   1.000000   1.000000
    5      -42.746005    -42.745190   1.000000   1.000000
    6      -42.745754    -42.744939   1.000000   1.000000
    7       -6.606124     -6.606197   1.000000   1.000000
    8       -6.298054     -6.298096   1.000000   1.000000
    9       -0.446111     -0.446262   1.000000   1.000000
   10        0.661828      0.661680   1.000000   1.000000
   11        1.202758      1.202630   1.000000   1.000000
   12        1.367997      1.367910   1.000000   1.000000
   13        1.793800      1.793804   1.000000   1.000000
   14        2.090312      2.090313   1.000000   1.000000
   15        5.091673      5.091333   0.000000   0.000000
   16        5.926016      5.925982   0.000000   0.000000
   17        6.294787      6.294309   0.000000   0.000000
   18        6.637415      6.636915   0.000000   0.000000
   19        7.096148      7.095728   0.000000   0.000000
   20        7.749042      7.748945   0.000000   0.000000
   21        8.139354      8.139740   0.000000   0.000000
   22        8.256204      8.261029   0.000000   0.000000
 
  0.3333333E+00 -0.1223819E-16  0.0000000E+00  0.1851852E-01
    1      -43.118272    -43.117723   1.000000   1.000000
    2      -43.102861    -43.102311   1.000000   1.000000
    3      -43.095614    -43.095062   1.000000   1.000000
    4      -43.080485    -43.079932   1.000000   1.000000
    5      -42.746255    -42.745440   1.000000   1.000000
    6      -42.745995    -42.745180   1.000000   1.000000
    7       -6.432575     -6.432640   1.000000   1.000000
    8       -6.204386     -6.204438   1.000000   1.000000
    9       -0.121662     -0.121841   1.000000   1.000000
   10       -0.032397     -0.032537   1.000000   1.000000
   11        0.486605      0.486424   1.000000   1.000000
   12        1.008048      1.007950   1.000000   1.000000
   13        1.567519      1.567486   1.000000   1.000000
   14        1.813938      1.813924   1.000000   1.000000
   15        4.981136      4.980648   0.000000   0.000000
   16        5.164907      5.164522   0.000000   0.000000
   17        6.453979      6.453531   0.000000   0.000000
   18        6.622265      6.621800   0.000000   0.000000
   19        6.966675      6.966248   0.000000   0.000000
   20        8.223866      8.223483   0.000000   0.000000
   21        8.975032      8.954773   0.000000   0.000000
   22        9.319452      9.270322   0.000000   0.000000
 
  0.4444444E+00  0.5090750E-16  0.0000000E+00  0.1851852E-01
    1      -43.115236    -43.114688   1.000000   1.000000
    2      -43.105430    -43.104881   1.000000   1.000000
    3      -43.092902    -43.092350   1.000000   1.000000
    4      -43.083140    -43.082587   1.000000   1.000000
    5      -42.746458    -42.745643   1.000000   1.000000
    6      -42.746123    -42.745308   1.000000   1.000000
    7       -6.288712     -6.288769   1.000000   1.000000
    8       -6.157881     -6.157931   1.000000   1.000000
    9       -0.563988     -0.564182   1.000000   1.000000
   10        0.074721      0.074515   1.000000   1.000000
   11        0.474714      0.474596   1.000000   1.000000
   12        0.812887      0.812786   1.000000   1.000000
   13        1.153508      1.153427   1.000000   1.000000
   14        1.651990      1.651970   1.000000   1.000000
   15        4.521693      4.521510   0.000000   0.000000
   16        5.212656      5.212249   0.000000   0.000000
   17        6.377062      6.376604   0.000000   0.000000
   18        6.523955      6.523508   0.000000   0.000000
   19        7.325104      7.324656   0.000000   0.000000
   20        8.117593      8.117204   0.000000   0.000000
   21        8.698217      8.697964   0.000000   0.000000
   22       10.295650     10.308906   0.000000   0.000000
 
  0.1111111E+00  0.1111111E+00  0.0000000E+00  0.1851852E-01
    1      -43.122362    -43.121814   1.000000   1.000000
    2      -43.099764    -43.099214   1.000000   1.000000
    3      -43.099175    -43.098624   1.000000   1.000000
    4      -43.077016    -43.076463   1.000000   1.000000
    5      -42.745950    -42.745136   1.000000   1.000000
    6      -42.745699    -42.744885   1.000000   1.000000
    7       -6.647315     -6.647392   1.000000   1.000000
    8       -6.323732     -6.323775   1.000000   1.000000
    9       -0.531761     -0.531913   1.000000   1.000000
   10        1.052329      1.052177   1.000000   1.000000
   11        1.137112      1.137019   1.000000   1.000000
   12        1.656463      1.656366   1.000000   1.000000
   13        1.827956      1.827961   1.000000   1.000000
   14        2.094814      2.094817   1.000000   1.000000
   15        5.158439      5.158129   0.000000   0.000000
   16        6.189505      6.205306   0.000000   0.000000
   17        6.421615      6.421148   0.000000   0.000000
   18        6.509026      6.508576   0.000000   0.000000
   19        7.261828      7.262476   0.000000   0.000000
   20        7.312357      7.310538   0.000000   0.000000
   21        7.486938      7.486794   0.000000   0.000000
   22        8.208487      8.180267   0.000000   0.000000
 
  0.2222222E+00  0.1111111E+00  0.0000000E+00  0.3703704E-01
    1      -43.119447    -43.118899   1.000000   1.000000
    2      -43.101925    -43.101375   1.000000   1.000000
    3      -43.096698    -43.096146   1.000000   1.000000
    4      -43.079459    -43.078905   1.000000   1.000000
    5      -42.746176    -42.745362   1.000000   1.000000
    6      -42.745930    -42.745115   1.000000   1.000000
    7       -6.493978     -6.494047   1.000000   1.000000
    8       -6.233238     -6.233293   1.000000   1.000000
    9       -0.194181     -0.194325   1.000000   1.000000
   10        0.253844      0.253679   1.000000   1.000000
   11        0.591825      0.591666   1.000000   1.000000
   12        1.100406      1.100282   1.000000   1.000000
   13        1.693760      1.693747   1.000000   1.000000
   14        1.777244      1.777230   1.000000   1.000000
   15        5.069566      5.069468   0.000000   0.000000
   16        5.428006      5.427666   0.000000   0.000000
   17        6.714209      6.713757   0.000000   0.000000
   18        6.859095      6.858651   0.000000   0.000000
   19        6.980856      6.980417   0.000000   0.000000
   20        8.058878      8.058596   0.000000   0.000000
   21        8.318777      8.318383   0.000000   0.000000
   22        8.425906      8.425254   0.000000   0.000000
 
  0.3333333E+00  0.1111111E+00  0.0000000E+00  0.3703704E-01
    1      -43.116077    -43.115529   1.000000   1.000000
    2      -43.104698    -43.104148   1.000000   1.000000
    3      -43.093640    -43.093088   1.000000   1.000000
    4      -43.082389    -43.081835   1.000000   1.000000
    5      -42.746386    -42.745571   1.000000   1.000000
    6      -42.746095    -42.745280   1.000000   1.000000
    7       -6.329924     -6.329983   1.000000   1.000000
    8       -6.162617     -6.162668   1.000000   1.000000
    9       -0.352509     -0.352694   1.000000   1.000000
   10        0.183354      0.183152   1.000000   1.000000
   11        0.274991      0.274862   1.000000   1.000000
   12        0.701310      0.701184   1.000000   1.000000
   13        1.392904      1.392851   1.000000   1.000000
   14        1.546365      1.546337   1.000000   1.000000
   15        4.323971      4.323766   0.000000   0.000000
   16        5.595520      5.595145   0.000000   0.000000
   17        6.814778      6.814363   0.000000   0.000000
   18        6.876669      6.876226   0.000000   0.000000
   19        7.244649      7.244197   0.000000   0.000000
   20        8.264682      8.264310   0.000000   0.000000
   21        8.825689      8.827709   0.000000   0.000000
   22        9.295322      9.298960   0.000000   0.000000
 
  0.4444444E+00  0.1111111E+00  0.0000000E+00  0.1851852E-01
    1      -43.114133    -43.113584   1.000000   1.000000
    2      -43.106406    -43.105857   1.000000   1.000000
    3      -43.091882    -43.091329   1.000000   1.000000
    4      -43.084164    -43.083611   1.000000   1.000000
    5      -42.746527    -42.745712   1.000000   1.000000
    6      -42.746149    -42.745334   1.000000   1.000000
    7       -6.245635     -6.245690   1.000000   1.000000
    8       -6.148018     -6.148067   1.000000   1.000000
    9       -0.572909     -0.573101   1.000000   1.000000
   10        0.019135      0.018919   1.000000   1.000000
   11        0.571495      0.571368   1.000000   1.000000
   12        0.680662      0.680558   1.000000   1.000000
   13        1.043690      1.043597   1.000000   1.000000
   14        1.463164      1.463132   1.000000   1.000000
   15        4.072591      4.072408   0.000000   0.000000
   16        5.654937      5.654548   0.000000   0.000000
   17        6.775415      6.775038   0.000000   0.000000
   18        6.919973      6.919531   0.000000   0.000000
   19        7.475763      7.476179   0.000000   0.000000
   20        8.140152      8.139762   0.000000   0.000000
   21        8.648683      8.648431   0.000000   0.000000
   22        9.891969      9.885167   0.000000   0.000000
 
  0.2222222E+00  0.2222222E+00  0.0000000E+00  0.1851852E-01
    1      -43.116385    -43.115837   1.000000   1.000000
    2      -43.104406    -43.103856   1.000000   1.000000
    3      -43.093926    -43.093374   1.000000   1.000000
    4      -43.082129    -43.081576   1.000000   1.000000
    5      -42.746383    -42.745568   1.000000   1.000000
    6      -42.746068    -42.745253   1.000000   1.000000
    7       -6.346463     -6.346523   1.000000   1.000000
    8       -6.164083     -6.164134   1.000000   1.000000
    9       -0.052928     -0.053072   1.000000   1.000000
   10        0.045196      0.044974   1.000000   1.000000
   11        0.202813      0.202682   1.000000   1.000000
   12        0.636833      0.636668   1.000000   1.000000
   13        1.401221      1.401193   1.000000   1.000000
   14        1.517148      1.517114   1.000000   1.000000
   15        4.127642      4.127401   0.000000   0.000000
   16        6.107283      6.106952   0.000000   0.000000
   17        7.140241      7.139832   0.000000   0.000000
   18        7.252016      7.251516   0.000000   0.000000
   19        7.506895      7.506447   0.000000   0.000000
   20        8.205428      8.205150   0.000000   0.000000
   21        8.572444      8.571660   0.000000   0.000000
   22        8.611220      8.610857   0.000000   0.000000
 
  0.3333333E+00  0.2222222E+00  0.0000000E+00  0.3703704E-01
    1      -43.113245    -43.112697   1.000000   1.000000
    2      -43.107203    -43.106653   1.000000   1.000000
    3      -43.091024    -43.090472   1.000000   1.000000
    4      -43.085004    -43.084451   1.000000   1.000000
    5      -42.746553    -42.745738   1.000000   1.000000
    6      -42.746169    -42.745353   1.000000   1.000000
    7       -6.223099     -6.223152   1.000000   1.000000
    8       -6.135591     -6.135639   1.000000   1.000000
    9       -0.382026     -0.382200   1.000000   1.000000
   10       -0.030815     -0.031037   1.000000   1.000000
   11        0.234681      0.234505   1.000000   1.000000
   12        0.672547      0.672439   1.000000   1.000000
   13        1.192154      1.192116   1.000000   1.000000
   14        1.225832      1.225765   1.000000   1.000000
   15        3.543575      3.543332   0.000000   0.000000
   16        6.619298      6.618951   0.000000   0.000000
   17        7.431206      7.430825   0.000000   0.000000
   18        7.531226      7.530713   0.000000   0.000000
   19        7.973226      7.972713   0.000000   0.000000
   20        8.348368      8.347941   0.000000   0.000000
   21        8.683076      8.679072   0.000000   0.000000
   22        8.849101      8.803151   0.000000   0.000000
 
  0.3333333E+00  0.3333333E+00  0.0000000E+00  0.6172840E-02
    1      -43.110161    -43.109613   1.000000   1.000000
    2      -43.110159    -43.109610   1.000000   1.000000
    3      -43.087979    -43.087426   1.000000   1.000000
    4      -43.087977    -43.087424   1.000000   1.000000
    5      -42.746549    -42.745734   1.000000   1.000000
    6      -42.746231    -42.745416   1.000000   1.000000
    7       -6.151933     -6.151982   1.000000   1.000000
    8       -6.151929     -6.151977   1.000000   1.000000
    9       -0.268073     -0.268181   1.000000   1.000000
   10       -0.087718     -0.087961   1.000000   1.000000
   11       -0.087713     -0.087955   1.000000   1.000000
   12        1.021428      1.021347   1.000000   1.000000
   13        1.021443      1.021360   1.000000   1.000000
   14        1.038691      1.038653   1.000000   1.000000
   15        3.191170      3.190906   0.000000   0.000001
   16        7.781079      7.784600   0.000000   0.000000
   17        7.793487      7.795691   0.000000   0.000000
   18        7.799001      7.810388   0.000000   0.000000
   19        8.122102      8.121783   0.000000   0.000000
   20        8.122873      8.122698   0.000000   0.000000
   21        8.841313      8.826858   0.000000   0.000000
   22        9.020882      9.058378   0.000000   0.000000
 
  0.0000000E+00  0.0000000E+00  0.2500000E+00  0.6172840E-02
    1      -43.122845    -43.122297   1.000000   1.000000
    2      -43.109350    -43.108800   1.000000   1.000000
    3      -43.090011    -43.089459   1.000000   1.000000
    4      -43.076793    -43.076239   1.000000   1.000000
    5      -42.745631    -42.744817   1.000000   1.000000
    6      -42.745483    -42.744668   1.000000   1.000000
    7       -6.735943     -6.736023   1.000000   1.000000
    8       -6.476981     -6.477033   1.000000   1.000000
    9       -0.521299     -0.521445   1.000000   1.000000
   10        1.239899      1.239840   1.000000   1.000000
   11        2.097832      2.097780   1.000000   1.000000
   12        2.097847      2.097796   1.000000   1.000000
   13        2.379514      2.379533   1.000000   1.000000
   14        2.379521      2.379541   1.000000   1.000000
   15        5.367742      5.367404   0.000000   0.000000
   16        6.268038      6.267729   0.000000   0.000000
   17        6.268048      6.267764   0.000000   0.000000
   18        6.441425      6.440751   0.000000   0.000000
   19        6.528085      6.527801   0.000000   0.000000
   20        6.528110      6.527854   0.000000   0.000000
   21        6.529254      6.528736   0.000000   0.000000
   22        8.122968      8.122696   0.000000   0.000000
 
  0.1111111E+00  0.5791866E-17  0.2500000E+00  0.3703704E-01
    1      -43.122080    -43.121532   1.000000   1.000000
    2      -43.108879    -43.108330   1.000000   1.000000
    3      -43.090337    -43.089785   1.000000   1.000000
    4      -43.077454    -43.076901   1.000000   1.000000
    5      -42.745724    -42.744910   1.000000   1.000000
    6      -42.745580    -42.744765   1.000000   1.000000
    7       -6.690170     -6.690249   1.000000   1.000000
    8       -6.441217     -6.441271   1.000000   1.000000
    9       -0.444539     -0.444684   1.000000   1.000000
   10        1.213843      1.213782   1.000000   1.000000
   11        1.655347      1.655254   1.000000   1.000000
   12        1.871437      1.871376   1.000000   1.000000
   13        1.998592      1.998551   1.000000   1.000000
   14        2.262011      2.262015   1.000000   1.000000
   15        5.428653      5.428379   0.000000   0.000000
   16        6.116449      6.115974   0.000000   0.000000
   17        6.490652      6.490296   0.000000   0.000000
   18        6.608654      6.608353   0.000000   0.000000
   19        6.752735      6.752306   0.000000   0.000000
   20        6.948349      6.948078   0.000000   0.000000
   21        7.247416      7.247007   0.000000   0.000000
   22        7.905335      7.904790   0.000000   0.000000
 
  0.2222222E+00  0.2545375E-16  0.2500000E+00  0.3703704E-01
    1      -43.119873    -43.119325   1.000000   1.000000
    2      -43.107881    -43.107331   1.000000   1.000000
    3      -43.091035    -43.090483   1.000000   1.000000
    4      -43.079297    -43.078743   1.000000   1.000000
    5      -42.745965    -42.745151   1.000000   1.000000
    6      -42.745812    -42.744998   1.000000   1.000000
    7       -6.565216     -6.565289   1.000000   1.000000
    8       -6.348011     -6.348059   1.000000   1.000000
    9       -0.234753     -0.234895   1.000000   1.000000
   10        0.692592      0.692458   1.000000   1.000000
   11        1.032997      1.032866   1.000000   1.000000
   12        1.455355      1.455278   1.000000   1.000000
   13        1.535587      1.535528   1.000000   1.000000
   14        1.960550      1.960531   1.000000   1.000000
   15        5.142979      5.142659   0.000000   0.000000
   16        5.817009      5.816568   0.000000   0.000000
   17        6.673801      6.673184   0.000000   0.000000
   18        6.801667      6.801230   0.000000   0.000000
   19        7.214417      7.216255   0.000000   0.000000
   20        7.926681      7.931004   0.000000   0.000000
   21        8.050101      8.068518   0.000000   0.000000
   22        8.168547      8.242468   0.000000   0.000000
 
  0.3333333E+00 -0.1223819E-16  0.2500000E+00  0.3703704E-01
    1      -43.116849    -43.116301   1.000000   1.000000
    2      -43.107228    -43.106678   1.000000   1.000000
    3      -43.091306    -43.090754   1.000000   1.000000
    4      -43.081853    -43.081300   1.000000   1.000000
    5      -42.746217    -42.745402   1.000000   1.000000
    6      -42.746032    -42.745217   1.000000   1.000000
    7       -6.401266     -6.401329   1.000000   1.000000
    8       -6.240120     -6.240175   1.000000   1.000000
    9       -0.182627     -0.182798   1.000000   1.000000
   10        0.115616      0.115462   1.000000   1.000000
   11        0.510523      0.510364   1.000000   1.000000
   12        1.102580      1.102490   1.000000   1.000000
   13        1.448803      1.448757   1.000000   1.000000
   14        1.663906      1.663873   1.000000   1.000000
   15        4.676147      4.675854   0.000000   0.000000
   16        5.247695      5.247384   0.000000   0.000000
   17        6.652138      6.651727   0.000000   0.000000
   18        7.010407      7.009954   0.000000   0.000000
   19        7.140375      7.140081   0.000000   0.000000
   20        7.982381      7.982244   0.000000   0.000000
   21        8.946812      8.950752   0.000000   0.000000
   22        9.434865      9.432513   0.000000   0.000000
 
  0.4444444E+00  0.5090750E-16  0.2500000E+00  0.3703704E-01
    1      -43.114189    -43.113640   1.000000   1.000000
    2      -43.107592    -43.107043   1.000000   1.000000
    3      -43.090752    -43.090199   1.000000   1.000000
    4      -43.084181    -43.083628   1.000000   1.000000
    5      -42.746409    -42.745593   1.000000   1.000000
    6      -42.746173    -42.745358   1.000000   1.000000
    7       -6.269880     -6.269936   1.000000   1.000000
    8       -6.177366     -6.177417   1.000000   1.000000
    9       -0.550486     -0.550681   1.000000   1.000000
   10       -0.149614     -0.149813   1.000000   1.000000
   11        0.721332      0.721224   1.000000   1.000000
   12        0.910223      0.910127   1.000000   1.000000
   13        1.259110      1.259038   1.000000   1.000000
   14        1.493706      1.493665   1.000000   1.000000
   15        4.311763      4.311530   0.000000   0.000000
   16        4.977574      4.977199   0.000000   0.000000
   17        6.686166      6.685745   0.000000   0.000000
   18        6.802973      6.802534   0.000000   0.000000
   19        7.222854      7.222494   0.000000   0.000000
   20        7.831007      7.830576   0.000000   0.000000
   21        9.337363      9.337248   0.000000   0.000000
   22       10.045407      9.993166   0.000000   0.000000
 
  0.1111111E+00  0.1111111E+00  0.2500000E+00  0.3703704E-01
    1      -43.120580    -43.120031   1.000000   1.000000
    2      -43.108169    -43.107619   1.000000   1.000000
    3      -43.090854    -43.090302   1.000000   1.000000
    4      -43.078714    -43.078161   1.000000   1.000000
    5      -42.745894    -42.745079   1.000000   1.000000
    6      -42.745756    -42.744942   1.000000   1.000000
    7       -6.604602     -6.604676   1.000000   1.000000
    8       -6.376534     -6.376579   1.000000   1.000000
    9       -0.299312     -0.299454   1.000000   1.000000
   10        0.982152      0.982061   1.000000   1.000000
   11        1.129356      1.129213   1.000000   1.000000
   12        1.504918      1.504861   1.000000   1.000000
   13        1.681982      1.681899   1.000000   1.000000
   14        1.968305      1.968307   1.000000   1.000000
   15        5.423331      5.423054   0.000000   0.000000
   16        6.176986      6.176594   0.000000   0.000000
   17        6.424035      6.423569   0.000000   0.000000
   18        6.480101      6.479671   0.000000   0.000000
   19        7.344271      7.344133   0.000000   0.000000
   20        7.417888      7.418288   0.000000   0.000000
   21        7.967548      7.997426   0.000000   0.000000
   22        8.080460      8.080408   0.000000   0.000000
 
  0.2222222E+00  0.1111111E+00  0.2500000E+00  0.7407407E-01
    1      -43.117950    -43.117402   1.000000   1.000000
    2      -43.107344    -43.106794   1.000000   1.000000
    3      -43.091300    -43.090748   1.000000   1.000000
    4      -43.080935    -43.080382   1.000000   1.000000
    5      -42.746149    -42.745334   1.000000   1.000000
    6      -42.745958    -42.745143   1.000000   1.000000
    7       -6.458736     -6.458802   1.000000   1.000000
    8       -6.274670     -6.274725   1.000000   1.000000
    9       -0.087695     -0.087840   1.000000   1.000000
   10        0.318174      0.318028   1.000000   1.000000
   11        0.614448      0.614277   1.000000   1.000000
   12        1.116907      1.116801   1.000000   1.000000
   13        1.490757      1.490710   1.000000   1.000000
   14        1.614655      1.614620   1.000000   1.000000
   15        5.106891      5.106612   0.000000   0.000000
   16        5.509468      5.509178   0.000000   0.000000
   17        6.611040      6.610571   0.000000   0.000000
   18        6.872385      6.871951   0.000000   0.000000
   19        7.698537      7.698088   0.000000   0.000000
   20        7.878635      7.878231   0.000000   0.000000
   21        8.239509      8.238932   0.000000   0.000000
   22        8.505154      8.505196   0.000000   0.000000
 
  0.3333333E+00  0.1111111E+00  0.2500000E+00  0.7407407E-01
    1      -43.114942    -43.114393   1.000000   1.000000
    2      -43.107391    -43.106841   1.000000   1.000000
    3      -43.090992    -43.090440   1.000000   1.000000
    4      -43.083539    -43.082986   1.000000   1.000000
    5      -42.746369    -42.745554   1.000000   1.000000
    6      -42.746148    -42.745332   1.000000   1.000000
    7       -6.306345     -6.306404   1.000000   1.000000
    8       -6.188075     -6.188126   1.000000   1.000000
    9       -0.353338     -0.353526   1.000000   1.000000
   10       -0.026227     -0.026415   1.000000   1.000000
   11        0.590212      0.590085   1.000000   1.000000
   12        0.776937      0.776820   1.000000   1.000000
   13        1.357440      1.357383   1.000000   1.000000
   14        1.384163      1.384113   1.000000   1.000000
   15        4.445361      4.445121   0.000000   0.000000
   16        5.347077      5.346738   0.000000   0.000000
   17        6.593578      6.593102   0.000000   0.000000
   18        7.058935      7.058516   0.000000   0.000000
   19        7.557609      7.557223   0.000000   0.000000
   20        8.162382      8.160318   0.000000   0.000000
   21        8.510804      8.510097   0.000000   0.000000
   22        9.884353      9.447594   0.000000   0.000000
 
  0.4444444E+00  0.1111111E+00  0.2500000E+00  0.3703704E-01
    1      -43.113254    -43.112705   1.000000   1.000000
    2      -43.107954    -43.107405   1.000000   1.000000
    3      -43.090309    -43.089757   1.000000   1.000000
    4      -43.085020    -43.084467   1.000000   1.000000
    5      -42.746451    -42.745636   1.000000   1.000000
    6      -42.746199    -42.745384   1.000000   1.000000
    7       -6.231293     -6.231346   1.000000   1.000000
    8       -6.162243     -6.162293   1.000000   1.000000
    9       -0.554209     -0.554403   1.000000   1.000000
   10       -0.173623     -0.173831   1.000000   1.000000
   11        0.643145      0.643031   1.000000   1.000000
   12        0.876032      0.875934   1.000000   1.000000
   13        1.178850      1.178759   1.000000   1.000000
   14        1.286090      1.286042   1.000000   1.000000
   15        4.192269      4.192042   0.000000   0.000000
   16        5.302360      5.302000   0.000000   0.000000
   17        6.536852      6.536382   0.000000   0.000000
   18        7.142046      7.141628   0.000000   0.000000
   19        7.377713      7.377344   0.000000   0.000000
   20        8.244805      8.244391   0.000000   0.000000
   21        8.581711      8.581317   0.000000   0.000000
   22       10.016518     10.017647   0.000000   0.000000
 
  0.2222222E+00  0.2222222E+00  0.2500000E+00  0.3703704E-01
    1      -43.115207    -43.114659   1.000000   1.000000
    2      -43.107329    -43.106779   1.000000   1.000000
    3      -43.091044    -43.090492   1.000000   1.000000
    4      -43.083318    -43.082765   1.000000   1.000000
    5      -42.746364    -42.745549   1.000000   1.000000
    6      -42.746117    -42.745302   1.000000   1.000000
    7       -6.320959     -6.321018   1.000000   1.000000
    8       -6.192064     -6.192114   1.000000   1.000000
    9       -0.092566     -0.092762   1.000000   1.000000
   10       -0.053296     -0.053455   1.000000   1.000000
   11        0.551167      0.551026   1.000000   1.000000
   12        0.631105      0.630962   1.000000   1.000000
   13        1.184145      1.184092   1.000000   1.000000
   14        1.438754      1.438692   1.000000   1.000000
   15        4.526723      4.526560   0.000000   0.000000
   16        5.626871      5.626537   0.000000   0.000000
   17        7.033646      7.033168   0.000000   0.000000
   18        7.249160      7.248814   0.000000   0.000000
   19        7.822612      7.822052   0.000000   0.000000
   20        7.875240      7.875710   0.000000   0.000000
   21        8.355442      8.355923   0.000000   0.000000
   22        9.023408      8.858849   0.000000   0.000000
 
  0.3333333E+00  0.2222222E+00  0.2500000E+00  0.7407407E-01
    1      -43.112529    -43.111980   1.000000   1.000000
    2      -43.108323    -43.107774   1.000000   1.000000
    3      -43.089886    -43.089333   1.000000   1.000000
    4      -43.085731    -43.085178   1.000000   1.000000