       N       E                     dE             d eps       ncg     rms          rms(c)
DAV:   1     0.105144979136E+04    0.10514E+04   -0.68674E+04  6144   0.128E+03
DAV:   2    -0.327718099058E+02   -0.10842E+04   -0.99519E+03  7264   0.280E+02
DAV:   3    -0.166707309826E+03   -0.13394E+03   -0.13211E+03  8328   0.934E+01
DAV:   4    -0.182595894155E+03   -0.15889E+02   -0.15769E+02 11096   0.278E+01
DAV:   5    -0.185376284955E+03   -0.27804E+01   -0.27788E+01  9872   0.779E+00    0.353E+01
DAV:   6    -0.185580884129E+03   -0.20460E+00   -0.87246E+00  8008   0.677E+00    0.195E+01
DAV:   7    -0.187788651250E+03   -0.22078E+01   -0.31880E+00  7712   0.426E+00    0.118E+01
DAV:   8    -0.188621758953E+03   -0.83311E+00   -0.14319E+00  7504   0.301E+00    0.247E+00
DAV:   9    -0.188688726085E+03   -0.66967E-01   -0.19996E-01  8448   0.129E+00    0.120E+00
DAV:  10    -0.188699871870E+03   -0.11146E-01   -0.39768E-02  8096   0.500E-01    0.438E-01
DAV:  11    -0.188703720485E+03   -0.38486E-02   -0.60580E-03  7352   0.244E-01    0.210E-01
DAV:  12    -0.188705470150E+03   -0.17497E-02   -0.21524E-03  8424   0.126E-01    0.106E-01
DAV:  13    -0.188706321623E+03   -0.85147E-03   -0.62160E-04  7584   0.638E-02    0.432E-02
DAV:  14    -0.188706630929E+03   -0.30931E-03   -0.30068E-04  7680   0.433E-02    0.233E-02
DAV:  15    -0.188706705870E+03   -0.74941E-04   -0.89867E-05  7432   0.232E-02    0.127E-02
DAV:  16    -0.188706723143E+03   -0.17273E-04   -0.16973E-05  5824   0.122E-02    0.558E-03
DAV:  17    -0.188706727736E+03   -0.45925E-05   -0.52450E-06  4864   0.743E-03
   1 F= -.18870673E+03 E0= -.18870673E+03  d E =0.000000E+00  mag=    -0.0001
