    4    4    1    2
  0.1226268E+02  0.3564395E-09  0.3300365E-09  0.4988583E-09  0.5000000E-15
  1.000000000000000E-004
  CAR 
 unknown system                          
     18    386     14
 
  0.0000000E+00  0.0000000E+00  0.0000000E+00  0.1298701E-02
    1      -44.010449    -44.010150   1.000000   1.000000
    2      -22.023921    -22.023918   1.000000   1.000000
    3      -17.679863    -17.679860   1.000000   1.000000
    4       -6.983687     -6.983681   1.000000   1.000000
    5       -5.687831     -5.687828   1.000000   1.000000
    6       -5.495365     -5.495367   1.000000   1.000000
    7       -3.990116     -3.990109   1.000000   1.000000
    8        0.029110      0.029115   1.000000   1.000000
    9        0.249342      0.249341   1.000000   1.000000
   10        5.598082      5.598063   0.000000   0.000000
   11        5.760788      5.760788   0.000000   0.000000
   12        6.084020      6.084022   0.000000   0.000000
   13        9.240757      9.240697   0.000000   0.000000
   14       10.943587     10.939164   0.000000   0.000000
 
  0.1000000E+00  0.2505315E-17  0.2989963E-16  0.2597403E-02
    1      -44.010213    -44.009915   1.000000   1.000000
    2      -22.012493    -22.012490   1.000000   1.000000
    3      -17.673935    -17.673932   1.000000   1.000000
    4       -6.948087     -6.948082   1.000000   1.000000
    5       -5.781477     -5.781474   1.000000   1.000000
    6       -5.508889     -5.508890   1.000000   1.000000
    7       -4.001965     -4.001958   1.000000   1.000000
    8       -0.094313     -0.094310   1.000000   1.000000
    9        0.200705      0.200703   1.000000   1.000000
   10        5.509042      5.509041   0.000000   0.000000
   11        5.884814      5.884811   0.000000   0.000000
   12        6.183967      6.183963   0.000000   0.000000
   13        9.449461      9.449399   0.000000   0.000000
   14       10.994237     10.990062   0.000000   0.000000
 
  0.2000000E+00  0.5010630E-17  0.5979925E-16  0.2597403E-02
    1      -44.009599    -44.009301   1.000000   1.000000
    2      -21.982346    -21.982347   1.000000   1.000000
    3      -17.658564    -17.658561   1.000000   1.000000
    4       -6.855881     -6.855876   1.000000   1.000000
    5       -6.009716     -6.009713   1.000000   1.000000
    6       -5.543948     -5.543950   1.000000   1.000000
    7       -4.037106     -4.037098   1.000000   1.000000
    8       -0.419517     -0.419517   1.000000   1.000000
    9        0.096554      0.096553   1.000000   1.000000
   10        5.274020      5.274019   0.000000   0.000000
   11        5.932994      5.932993   0.000000   0.000000
   12        6.734295      6.733817   0.000000   0.000000
   13        9.982157      9.981717   0.000000   0.000000
   14       11.077045     11.076460   0.000000   0.000000
 
  0.3000000E+00 -0.2078746E-16  0.4358511E-16  0.2597403E-02
    1      -44.008829    -44.008531   1.000000   1.000000
    2      -21.944694    -21.944692   1.000000   1.000000
    3      -17.639494    -17.639491   1.000000   1.000000
    4       -6.762397     -6.762394   1.000000   1.000000
    5       -6.240053     -6.240048   1.000000   1.000000
    6       -5.586666     -5.586668   1.000000   1.000000
    7       -4.092126     -4.092117   1.000000   1.000000
    8       -0.796109     -0.796112   1.000000   1.000000
    9       -0.019588     -0.019589   1.000000   1.000000
   10        4.928415      4.928413   0.000000   0.000000
   11        5.996084      5.996083   0.000000   0.000000
   12        7.489643      7.489333   0.000000   0.000000
   13       10.518305     10.515865   0.000000   0.000000
   14       10.976061     10.974116   0.000000   0.000000
 
  0.4000000E+00 -0.3909882E-16  0.2374497E-16  0.2597403E-02
    1      -44.008204    -44.007905   1.000000   1.000000
    2      -21.913817    -21.913814   1.000000   1.000000
    3      -17.624043    -17.624040   1.000000   1.000000
    4       -6.762286     -6.762283   1.000000   1.000000
    5       -6.324715     -6.324710   1.000000   1.000000
    6       -5.620813     -5.620815   1.000000   1.000000
    7       -4.150479     -4.150470   1.000000   1.000000
    8       -1.077563     -1.077568   1.000000   1.000000
    9       -0.109157     -0.109160   1.000000   1.000000
   10        4.640834      4.640831   0.000000   0.000000
   11        6.048172      6.048171   0.000000   0.000000
   12        8.110374      8.110349   0.000000   0.000000
   13       10.625440     10.624910   0.000000   0.000000
   14       10.899074     10.898159   0.000000   0.000000
 
  0.5000000E+00 -0.8068359E-16  0.8950658E-16  0.1298701E-02
    1      -44.007949    -44.007650   1.000000   1.000000
    2      -21.901887    -21.901884   1.000000   1.000000
    3      -17.618095    -17.618092   1.000000   1.000000
    4       -6.794373     -6.794371   1.000000   1.000000
    5       -6.318199     -6.318193   1.000000   1.000000
    6       -5.633773     -5.633775   1.000000   1.000000
    7       -4.177200     -4.177191   1.000000   1.000000
    8       -1.179737     -1.179743   1.000000   1.000000
    9       -0.142535     -0.142537   1.000000   1.000000
   10        4.531161      4.531157   0.000000   0.000000
   11        6.067081      6.067080   0.000000   0.000000
   12        8.334077      8.334068   0.000000   0.000000
   13       10.599665     10.599525   0.000000   0.000000
   14       10.928441     10.928398   0.000000   0.000000
 
 -0.3874534E-17  0.9090909E-01 -0.6961240E-17  0.2597403E-02
    1      -44.010119    -44.009821   1.000000   1.000000
    2      -22.009906    -22.009903   1.000000   1.000000
    3      -17.672667    -17.672665   1.000000   1.000000
    4       -6.946615     -6.946610   1.000000   1.000000
    5       -5.719411     -5.719408   1.000000   1.000000
    6       -5.575226     -5.575228   1.000000   1.000000
    7       -3.998658     -3.998651   1.000000   1.000000
    8       -0.015099     -0.015095   1.000000   1.000000
    9        0.117405      0.117403   1.000000   1.000000
   10        5.560949      5.560947   0.000000   0.000000
   11        5.828940      5.828941   0.000000   0.000000
   12        6.178885      6.178882   0.000000   0.000000
   13        9.431915      9.431847   0.000000   0.000000
   14       10.978600     10.973887   0.000000   0.000000
 
  0.1000000E+00  0.9090909E-01  0.1880652E-16  0.2597403E-02
    1      -44.010134    -44.009835   1.000000   1.000000
    2      -22.009109    -22.009106   1.000000   1.000000
    3      -17.674821    -17.674818   1.000000   1.000000
    4       -6.925496     -6.925491   1.000000   1.000000
    5       -5.728044     -5.728041   1.000000   1.000000
    6       -5.580734     -5.580736   1.000000   1.000000
    7       -4.026325     -4.026318   1.000000   1.000000
    8       -0.075506     -0.075502   1.000000   1.000000
    9        0.199265      0.199263   1.000000   1.000000
   10        5.498932      5.498930   0.000000   0.000000
   11        5.983089      5.983091   0.000000   0.000000
   12        6.137218      6.137210   0.000000   0.000000
   13        9.389142      9.389079   0.000000   0.000000
   14       10.901714     10.898626   0.000000   0.000000
 
  0.2000000E+00  0.9090909E-01  0.4192459E-16  0.2597403E-02
    1      -44.009702    -44.009403   1.000000   1.000000
    2      -21.987444    -21.987441   1.000000   1.000000
    3      -17.665878    -17.665875   1.000000   1.000000
    4       -6.839575     -6.839570   1.000000   1.000000
    5       -5.905937     -5.905934   1.000000   1.000000
    6       -5.603401     -5.603403   1.000000   1.000000
    7       -4.075937     -4.075930   1.000000   1.000000
    8       -0.298188     -0.298186   1.000000   1.000000
    9        0.135699      0.135697   1.000000   1.000000
   10        5.404830      5.404829   0.000000   0.000000
   11        5.885027      5.885025   0.000000   0.000000
   12        6.602248      6.602090   0.000000   0.000000
   13        9.738987      9.738886   0.000000   0.000000
   14       10.927889     10.926332   0.000000   0.000000
 
  0.3000000E+00  0.9090909E-01  0.6141509E-16  0.2597403E-02
    1      -44.008996    -44.008698   1.000000   1.000000
    2      -21.952843    -21.952842   1.000000   1.000000
    3      -17.649229    -17.649227   1.000000   1.000000
    4       -6.723174     -6.723170   1.000000   1.000000
    5       -6.146476     -6.146472   1.000000   1.000000
    6       -5.647436     -5.647438   1.000000   1.000000
    7       -4.139475     -4.139467   1.000000   1.000000
    8       -0.610363     -0.610364   1.000000   1.000000
    9       -0.007576     -0.007578   1.000000   1.000000
   10        5.102859      5.102856   0.000000   0.000000
   11        5.909069      5.909069   0.000000   0.000000
   12        7.308324      7.307943   0.000000   0.000000
   13       10.248076     10.247421   0.000000   0.000000
   14       10.997306     10.994156   0.000000   0.000000
 
  0.4000000E+00  0.9090909E-01  0.4983869E-16  0.2597403E-02
    1      -44.008286    -44.007988   1.000000   1.000000
    2      -21.918364    -21.918361   1.000000   1.000000
    3      -17.631206    -17.631203   1.000000   1.000000
    4       -6.675020     -6.675017   1.000000   1.000000
    5       -6.298336     -6.298331   1.000000   1.000000
    6       -5.686199     -5.686201   1.000000   1.000000
    7       -4.201681     -4.201673   1.000000   1.000000
    8       -0.910488     -0.910491   1.000000   1.000000
    9       -0.142054     -0.142056   1.000000   1.000000
   10        4.763835      4.763832   0.000000   0.000000
   11        5.949341      5.949340   0.000000   0.000000
   12        8.064023      8.064010   0.000000   0.000000
   13       10.471712     10.470098   0.000000   0.000000
   14       11.012239     11.010173   0.000000   0.000000
 
  0.5000000E+00  0.9090909E-01  0.1460056E-15  0.2597403E-02
    1      -44.007845    -44.007546   1.000000   1.000000
    2      -21.897376    -21.897373   1.000000   1.000000
    3      -17.618648    -17.618644   1.000000   1.000000
    4       -6.742978     -6.742977   1.000000   1.000000
    5       -6.292320     -6.292315   1.000000   1.000000
    6       -5.702539     -5.702540   1.000000   1.000000
    7       -4.229797     -4.229789   1.000000   1.000000
    8       -1.099576     -1.099582   1.000000   1.000000
    9       -0.219390     -0.219392   1.000000   1.000000
   10        4.557201      4.557198   0.000000   0.000000
   11        5.960877      5.960874   0.000000   0.000000
   12        8.538478      8.538470   0.000000   0.000000
   13       10.502519     10.502443   0.000000   0.000000
   14       11.017821     11.016928   0.000000   0.000000
 
 -0.4000000E+00  0.9090909E-01 -0.1979279E-16  0.2597403E-02
    1      -44.007839    -44.007540   1.000000   1.000000
    2      -21.898166    -21.898163   1.000000   1.000000
    3      -17.616392    -17.616388   1.000000   1.000000
    4       -6.777481     -6.777479   1.000000   1.000000
    5       -6.275575     -6.275569   1.000000   1.000000
    6       -5.696191     -5.696193   1.000000   1.000000
    7       -4.194140     -4.194131   1.000000   1.000000
    8       -1.121022     -1.121028   1.000000   1.000000
    9       -0.219436     -0.219438   1.000000   1.000000
   10        4.558172      4.558169   0.000000   0.000000
   11        5.944960      5.944958   0.000000   0.000000
   12        8.531158      8.531114   0.000000   0.000000
   13       10.566266     10.565965   0.000000   0.000000
   14       10.995006     10.994908   0.000000   0.000000
 
 -0.3000000E+00  0.9090909E-01  0.1423871E-16  0.2597403E-02
    1      -44.008282    -44.007984   1.000000   1.000000
    2      -21.920657    -21.920654   1.000000   1.000000
    3      -17.625400    -17.625397   1.000000   1.000000
    4       -6.774534     -6.774531   1.000000   1.000000
    5       -6.242524     -6.242519   1.000000   1.000000
    6       -5.668812     -5.668814   1.000000   1.000000
    7       -4.113743     -4.113734   1.000000   1.000000
    8       -0.958706     -0.958711   1.000000   1.000000
    9       -0.148259     -0.148260   1.000000   1.000000
   10        4.760434      4.760432   0.000000   0.000000
   11        5.904943      5.904941   0.000000   0.000000
   12        8.032480      8.032393   0.000000   0.000000
   13       10.822991     10.820770   0.000000   0.000000
   14       10.839925     10.839143   0.000000   0.000000
 
 -0.2000000E+00  0.9090909E-01 -0.3783741E-16  0.2597403E-02
    1      -44.008992    -44.008693   1.000000   1.000000
    2      -21.955562    -21.955563   1.000000   1.000000
    3      -17.642159    -17.642156   1.000000   1.000000
    4       -6.822984     -6.822980   1.000000   1.000000
    5       -6.096075     -6.096071   1.000000   1.000000
    6       -5.625520     -5.625522   1.000000   1.000000
    7       -4.039660     -4.039652   1.000000   1.000000
    8       -0.642869     -0.642872   1.000000   1.000000
    9       -0.040185     -0.040186   1.000000   1.000000
   10        5.088899      5.088898   0.000000   0.000000
   11        5.845976      5.845974   0.000000   0.000000
   12        7.267397      7.266644   0.000000   0.000000
   13       10.404354     10.403715   0.000000   0.000000
   14       11.218921     11.219599   0.000000   0.000000
 
 -0.1000000E+00  0.9090909E-01  0.6029012E-17  0.2597403E-02
    1      -44.009689    -44.009390   1.000000   1.000000
    2      -21.989613    -21.989610   1.000000   1.000000
    3      -17.660209    -17.660206   1.000000   1.000000
    4       -6.902260     -6.902255   1.000000   1.000000
    5       -5.879711     -5.879708   1.000000   1.000000
    6       -5.586412     -5.586414   1.000000   1.000000
    7       -4.000762     -4.000754   1.000000   1.000000
    8       -0.268133     -0.268133   1.000000   1.000000
    9        0.052103      0.052103   1.000000   1.000000
   10        5.423982      5.423982   0.000000   0.000000
   11        5.783183      5.783181   0.000000   0.000000
   12        6.570016      6.569936   0.000000   0.000000
   13        9.831981      9.831917   0.000000   0.000000
   14       11.150890     11.147330   0.000000   0.000000
 
 -0.4890001E-17  0.1818182E+00 -0.7265956E-17  0.2597403E-02
    1      -44.009239    -44.008941   1.000000   1.000000
    2      -21.972042    -21.972042   1.000000   1.000000
    3      -17.653451    -17.653448   1.000000   1.000000
    4       -6.848965     -6.848961   1.000000   1.000000
    5       -5.865710     -5.865708   1.000000   1.000000
    6       -5.708654     -5.708653   1.000000   1.000000
    7       -4.024829     -4.024822   1.000000   1.000000
    8       -0.220096     -0.220099   1.000000   1.000000
    9       -0.131219     -0.131216   1.000000   1.000000
   10        5.385058      5.385058   0.000000   0.000000
   11        5.852445      5.852447   0.000000   0.000000
   12        6.652730      6.652534   0.000000   0.000000
   13        9.937941      9.937803   0.000000   0.000000
   14       11.043324     11.041201   0.000000   0.000000
 
  0.1000000E+00  0.1818182E+00  0.2941523E-16  0.2597403E-02
    1      -44.009460    -44.009162   1.000000   1.000000
    2      -21.980377    -21.980374   1.000000   1.000000
    3      -17.662592    -17.662589   1.000000   1.000000
    4       -6.837262     -6.837258   1.000000   1.000000
    5       -5.786365     -5.786366   1.000000   1.000000
    6       -5.728961     -5.728958   1.000000   1.000000
    7       -4.066792     -4.066785   1.000000   1.000000
    8       -0.258939     -0.258937   1.000000   1.000000
    9        0.088877      0.088878   1.000000   1.000000
   10        5.462621      5.462619   0.000000   0.000000
   11        5.885475      5.885478   0.000000   0.000000
   12        6.514663      6.514576   0.000000   0.000000
   13        9.703265      9.703196   0.000000   0.000000
   14       10.867350     10.866921   0.000000   0.000000
 
  0.2000000E+00  0.1818182E+00  0.3171662E-16  0.2597403E-02
    1      -44.009278    -44.008979   1.000000   1.000000
    2      -21.969197    -21.969197   1.000000   1.000000
    3      -17.661863    -17.661860   1.000000   1.000000
    4       -6.767653     -6.767648   1.000000   1.000000
    5       -5.873268     -5.873267   1.000000   1.000000
    6       -5.740301     -5.740299   1.000000   1.000000
    7       -4.139952     -4.139944   1.000000   1.000000
    8       -0.427707     -0.427705   1.000000   1.000000
    9        0.170728      0.170727   1.000000   1.000000
   10        5.493778      5.493777   0.000000   0.000000
   11        5.718275      5.718274   0.000000   0.000000
   12        6.808110      6.807967   0.000000   0.000000
   13        9.783475      9.783419   0.000000   0.000000
   14       10.849050     10.848790   0.000000   0.000000
 
  0.3000000E+00  0.1818182E+00  0.4325805E-16  0.2597403E-02
    1      -44.008765    -44.008467   1.000000   1.000000
    2      -21.942600    -21.942600   1.000000   1.000000
    3      -17.651653    -17.651651   1.000000   1.000000
    4       -6.660651     -6.660647   1.000000   1.000000
    5       -6.034500     -6.034497   1.000000   1.000000
    6       -5.790110     -5.790110   1.000000   1.000000
    7       -4.229683     -4.229675   1.000000   1.000000
    8       -0.635950     -0.635949   1.000000   1.000000
    9        0.064180      0.064178   1.000000   1.000000
   10        5.271494      5.271491   0.000000   0.000000
   11        5.681702      5.681699   0.000000   0.000000
   12        7.389787      7.389346   0.000000   0.000000
   13       10.081652     10.081446   0.000000   0.000000
   14       10.994957     10.996708   0.000000   0.000000
 
  0.4000000E+00  0.1818182E+00  0.1250448E-16  0.2597403E-02
    1      -44.008101    -44.007802   1.000000   1.000000
    2      -21.910487    -21.910484   1.000000   1.000000
    3      -17.635741    -17.635738   1.000000   1.000000
    4       -6.580600     -6.580598   1.000000   1.000000
    5       -6.188910     -6.188905   1.000000   1.000000
    6       -5.835526     -5.835526   1.000000   1.000000
    7       -4.318039     -4.318031   1.000000   1.000000
    8       -0.824252     -0.824253   1.000000   1.000000
    9       -0.148398     -0.148401   1.000000   1.000000
   10        4.913628      4.913623   0.000000   0.000000
   11        5.713365      5.713361   0.000000   0.000000
   12        8.191105      8.191095   0.000000   0.000000
   13       10.299131     10.297972   0.000000   0.000000
   14       11.155085     11.154371   0.000000   0.000000
 
  0.5000000E+00  0.1818182E+00  0.4521114E-16  0.2597403E-02
    1      -44.007575    -44.007276   1.000000   1.000000
    2      -21.885164    -21.885162   1.000000   1.000000
    3      -17.620183    -17.620180   1.000000   1.000000
    4       -6.612810     -6.612809   1.000000   1.000000
    5       -6.244673     -6.244669   1.000000   1.000000
    6       -5.838987     -5.838986   1.000000   1.000000
    7       -4.368500     -4.368492   1.000000   1.000000
    8       -0.952038     -0.952040   1.000000   1.000000
    9       -0.352580     -0.352583   1.000000   1.000000
   10        4.635900      4.635895   0.000000   0.000000
   11        5.723330      5.723326   0.000000   0.000000
   12        8.952821      8.952816   0.000000   0.000000
   13       10.341197     10.341172   0.000000   0.000000
   14       11.161037     11.163897   0.000000   0.000000
 
 -0.4000000E+00  0.1818182E+00 -0.4488872E-16  0.2597403E-02
    1      -44.007349    -44.007050   1.000000   1.000000
    2      -21.876522    -21.876518   1.000000   1.000000
    3      -17.610874    -17.610871   1.000000   1.000000
    4       -6.695085     -6.695083   1.000000   1.000000
    5       -6.216329     -6.216326   1.000000   1.000000
    6       -5.841213     -5.841212   1.000000   1.000000
    7       -4.333803     -4.333796   1.000000   1.000000
    8       -1.008373     -1.008377   1.000000   1.000000
    9       -0.452702     -0.452705   1.000000   1.000000
   10        4.532016      4.532012   0.000000   0.000000
   11        5.727546      5.727541   0.000000   0.000000
   12        9.230318      9.230299   0.000000   0.000000
   13       10.374397     10.374392   0.000000   0.000000
   14       11.170228     11.170507   0.000000   0.000000
 
 -0.3000000E+00  0.1818182E+00 -0.3779304E-16  0.2597403E-02
    1      -44.007528    -44.007230   1.000000   1.000000
    2      -21.888006    -21.888004   1.000000   1.000000
    3      -17.611444    -17.611441   1.000000   1.000000
    4       -6.743120     -6.743117   1.000000   1.000000
    5       -6.162673     -6.162669   1.000000   1.000000
    6       -5.854761     -5.854761   1.000000   1.000000
    7       -4.220254     -4.220247   1.000000   1.000000
    8       -0.977193     -0.977198   1.000000   1.000000
    9       -0.416828     -0.416830   1.000000   1.000000
   10        4.623630      4.623628   0.000000   0.000000
   11        5.733385      5.733382   0.000000   0.000000
   12        8.794175      8.794127   0.000000   0.000000
   13       10.603041     10.602661   0.000000   0.000000
   14       11.139792     11.140246   0.000000   0.000000
 
 -0.2000000E+00  0.1818182E+00 -0.2640299E-16  0.2597403E-02
    1      -44.008046    -44.007748   1.000000   1.000000
    2      -21.915173    -21.915171   1.000000   1.000000
    3      -17.621785    -17.621782   1.000000   1.000000
    4       -6.772139     -6.772136   1.000000   1.000000
    5       -6.102116     -6.102111   1.000000   1.000000
    6       -5.818032     -5.818033   1.000000   1.000000
    7       -4.099794     -4.099786   1.000000   1.000000
    8       -0.816624     -0.816629   1.000000   1.000000
    9       -0.299824     -0.299824   1.000000   1.000000
   10        4.867679      4.867678   0.000000   0.000000
   11        5.740435      5.740432   0.000000   0.000000
   12        7.998303      7.997633   0.000000   0.000000
   13       10.840869     10.797769   0.000000   0.000000
   14       11.245105     11.201346   0.000000   0.000000
 
 -0.1000000E+00  0.1818182E+00 -0.3303371E-16  0.2597403E-02
    1      -44.008702    -44.008403   1.000000   1.000000
    2      -21.947210    -21.947209   1.000000   1.000000
    3      -17.637854    -17.637851   1.000000   1.000000
    4       -6.814777     -6.814773   1.000000   1.000000
    5       -5.998415     -5.998411   1.000000   1.000000
    6       -5.746614     -5.746615   1.000000   1.000000
    7       -4.031156     -4.031148   1.000000   1.000000
    8       -0.527741     -0.527745   1.000000   1.000000
    9       -0.190227     -0.190225   1.000000   1.000000
   10        5.168614      5.168614   0.000000   0.000000
   11        5.765326      5.765325   0.000000   0.000000
   12        7.210453      7.209828   0.000000   0.000000
   13       10.374182     10.374231   0.000000   0.000000
   14       11.318389     11.315929   0.000000   0.000000
 
 -0.4149378E-16  0.2727273E+00 -0.4638612E-17  0.2597403E-02
    1      -44.008101    -44.007803   1.000000   1.000000
    2      -21.921704    -21.921704   1.000000   1.000000
    3      -17.628261    -17.628258   1.000000   1.000000
    4       -6.745409     -6.745406   1.000000   1.000000
    5       -6.086322     -6.086320   1.000000   1.000000
    6       -5.792004     -5.792003   1.000000   1.000000
    7       -4.071160     -4.071152   1.000000   1.000000
    8       -0.630813     -0.630818   1.000000   1.000000
    9       -0.276092     -0.276090   1.000000   1.000000
   10        5.071385      5.071384   0.000000   0.000000
   11        5.875912      5.875915   0.000000   0.000000
   12        7.305440      7.305087   0.000000   0.000000
   13       10.512446     10.511914   0.000000   0.000000
   14       11.069810     11.065065   0.000000   0.000000
 
  0.1000000E+00  0.2727273E+00 -0.2712844E-16  0.2597403E-02
    1      -44.008423    -44.008125   1.000000   1.000000
    2      -21.934871    -21.934871   1.000000   1.000000
    3      -17.641148    -17.641145   1.000000   1.000000
    4       -6.721673     -6.721670   1.000000   1.000000
    5       -6.026520     -6.026519   1.000000   1.000000
    6       -5.780888     -5.780886   1.000000   1.000000
    7       -4.120304     -4.120297   1.000000   1.000000
    8       -0.580964     -0.580964   1.000000   1.000000
    9       -0.075610     -0.075609   1.000000   1.000000
   10        5.222519      5.222519   0.000000   0.000000
   11        5.868220      5.868223   0.000000   0.000000
   12        7.129316      7.128928   0.000000   0.000000
   13       10.258117     10.257877   0.000000   0.000000
   14       10.835900     10.835881   0.000000   0.000000
 
  0.2000000E+00  0.2727273E+00  0.8227899E-17  0.2597403E-02
    1      -44.008452    -44.008153   1.000000   1.000000
    2      -21.933094    -21.933094   1.000000   1.000000
    3      -17.647929    -17.647926   1.000000   1.000000
    4       -6.672522     -6.672519   1.000000   1.000000
    5       -6.006361     -6.006360   1.000000   1.000000
    6       -5.800591     -5.800588   1.000000   1.000000
    7       -4.219045     -4.219038   1.000000   1.000000
    8       -0.698910     -0.698910   1.000000   1.000000
    9        0.128342      0.128343   1.000000   1.000000
   10        5.331630      5.331627   0.000000   0.000000
   11        5.688065      5.688064   0.000000   0.000000
   12        7.269658      7.269331   0.000000   0.000000
   13       10.072334     10.072280   0.000000   0.000000
   14       10.834864     10.835663   0.000000   0.000000
 
  0.3000000E+00  0.2727273E+00  0.5282429E-16  0.2597403E-02
    1      -44.008177    -44.007878   1.000000   1.000000
    2      -21.916911    -21.916912   1.000000   1.000000
    3      -17.646062    -17.646059   1.000000   1.000000
    4       -6.614403     -6.614401   1.000000   1.000000
    5       -6.014927     -6.014925   1.000000   1.000000
    6       -5.857010     -5.857008   1.000000   1.000000
    7       -4.343316     -4.343309   1.000000   1.000000
    8       -0.863151     -0.863150   1.000000   1.000000
    9        0.174873      0.174872   1.000000   1.000000
   10        5.383946      5.383943   0.000000   0.000000
   11        5.425330      5.425324   0.000000   0.000000
   12        7.645877      7.645560   0.000000   0.000000
   13       10.035735     10.035914   0.000000   0.000000
   14       11.054530     11.054096   0.000000   0.000000
 
  0.4000000E+00  0.2727273E+00  0.6900346E-16  0.2597403E-02
    1      -44.007701    -44.007403   1.000000   1.000000
    2      -21.892389    -21.892388   1.000000   1.000000
    3      -17.636298    -17.636296   1.000000   1.000000
    4       -6.573912     -6.573912   1.000000   1.000000
    5       -6.037128     -6.037123   1.000000   1.000000
    6       -5.921683     -5.921681   1.000000   1.000000
    7       -4.469621     -4.469614   1.000000   1.000000
    8       -0.989682     -0.989682   1.000000   1.000000
    9        0.029794      0.029793   1.000000   1.000000
   10        5.063834      5.063828   0.000000   0.000000
   11        5.444459      5.444453   0.000000   0.000000
   12        8.300082      8.299866   0.000000   0.000000
   13       10.154493     10.154448   0.000000   0.000000
   14       11.456239     11.394306   0.000000   0.000000
 
  0.5000000E+00  0.2727273E+00  0.1314401E-16  0.2597403E-02
    1      -44.007210    -44.006912   1.000000   1.000000
    2      -21.868844    -21.868838   1.000000   1.000000
    3      -17.622306    -17.622304   1.000000   1.000000
    4       -6.533114     -6.533114   1.000000   1.000000
    5       -6.222953     -6.222950   1.000000   1.000000
    6       -5.839592     -5.839587   1.000000   1.000000
    7       -4.556003     -4.555996   1.000000   1.000000
    8       -1.026060     -1.026060   1.000000   1.000000
    9       -0.243976     -0.243978   1.000000   1.000000
   10        4.761438      4.761433   0.000000   0.000000
   11        5.458927      5.458919   0.000000   0.000000
   12        9.178654      9.178775   0.000000   0.000000
   13       10.279973     10.279529   0.000000   0.000000
   14       11.596802     11.713997   0.000000   0.000000
 
 -0.4000000E+00  0.2727273E+00 -0.4573082E-16  0.2597403E-02
    1      -44.006890    -44.006592   1.000000   1.000000
    2      -21.855434    -21.855432   1.000000   1.000000
    3      -17.609301    -17.609298   1.000000   1.000000
    4       -6.527888     -6.527886   1.000000   1.000000
    5       -6.338688     -6.338688   1.000000   1.000000
    6       -5.810998     -5.810992   1.000000   1.000000
    7       -4.534834     -4.534828   1.000000   1.000000
    8       -0.955965     -0.955964   1.000000   1.000000
    9       -0.546190     -0.546195   1.000000   1.000000
   10        4.576176      4.576172   0.000000   0.000000
   11        5.489975      5.489968   0.000000   0.000000
   12        9.977939      9.977705   0.000000   0.000000
   13       10.170302     10.170566   0.000000   0.000000
   14       11.612179     11.532744   0.000000   0.000000
 
 -0.3000000E+00  0.2727273E+00 -0.6097021E-16  0.2597403E-02
    1      -44.006837    -44.006539   1.000000   1.000000
    2      -21.857202    -21.857200   1.000000   1.000000
    3      -17.602270    -17.602267   1.000000   1.000000
    4       -6.651000     -6.650997   1.000000   1.000000
    5       -6.217447     -6.217447   1.000000   1.000000
    6       -5.891917     -5.891911   1.000000   1.000000
    7       -4.392923     -4.392916   1.000000   1.000000
    8       -0.837683     -0.837686   1.000000   1.000000
    9       -0.742040     -0.742042   1.000000   1.000000
   10        4.550627      4.550625   0.000000   0.000000
   11        5.552399      5.552394   0.000000   0.000000
   12        9.467901      9.467888   0.000000   0.000000
   13       10.589254     10.582577   0.000000   0.000000
   14       11.288171     11.345115   0.000000   0.000000
 