 running on   12 total cores
 distrk:  each k-point on   12 cores,    1 groups
 distr:  one band on    6 cores,    2 groups
 using from now: INCAR     
 vasp.6.1.2 22Jul20 (build Mar 20 2021 11:25:07) complex                        
  
 POSCAR found type information on POSCAR LiN 
 POSCAR found :  2 types and       4 ions
 scaLAPACK will be used
 -----------------------------------------------------------------------------
|                                                                             |
|               ----> ADVICE to this user running VASP <----                  |
|                                                                             |
|     You have a (more or less) 'small supercell' and for smaller cells       |
|     it is recommended to use the reciprocal-space projection scheme!        |
|     The real-space optimization is not efficient for small cells and it     |
|     is also less accurate ...                                               |
|     Therefore, set LREAL=.FALSE. in the INCAR file.                         |
|                                                                             |
 -----------------------------------------------------------------------------

 LDA part: xc-table for Pade appr. of Perdew
 generate k-points for:   10   11    7
 POSCAR, INCAR and KPOINTS ok, starting setup
 FFT: planning ...
 WAVECAR not read
 entering main loop
       N       E                     dE             d eps       ncg     rms          rms(c)
DAV:   1     0.899672625093E+02    0.89967E+02   -0.83068E+03 21624   0.118E+03
DAV:   2    -0.223464485316E+02   -0.11231E+03   -0.10868E+03 28734   0.267E+02
DAV:   3    -0.283263141660E+02   -0.59799E+01   -0.59552E+01 29540   0.672E+01
DAV:   4    -0.285642491822E+02   -0.23794E+00   -0.23778E+00 33988   0.113E+01
DAV:   5    -0.285670436624E+02   -0.27945E-02   -0.27942E-02 29296   0.130E+00    0.127E+01
RMM:   6    -0.274527143507E+02    0.11143E+01   -0.38419E+00 23395   0.135E+01    0.583E+00
RMM:   7    -0.274051065131E+02    0.47608E-01   -0.70096E-01 27903   0.754E+00    0.335E+00
RMM:   8    -0.273952976534E+02    0.98089E-02   -0.28023E-01 30848   0.419E+00    0.166E+00
RMM:   9    -0.274090613307E+02   -0.13764E-01   -0.74180E-02 33124   0.228E+00    0.642E-01
RMM:  10    -0.274103298604E+02   -0.12685E-02   -0.23369E-02 34819   0.122E+00    0.148E-01
RMM:  11    -0.274117120888E+02   -0.13822E-02   -0.91959E-03 37317   0.685E-01    0.895E-02
RMM:  12    -0.274123401959E+02   -0.62811E-03   -0.41557E-03 39326   0.427E-01    0.498E-02
RMM:  13    -0.274125723230E+02   -0.23213E-03   -0.17612E-03 38704   0.273E-01    0.170E-02
RMM:  14    -0.274126819822E+02   -0.10966E-03   -0.84183E-04 38210   0.191E-01    0.134E-02
RMM:  15    -0.274127302301E+02   -0.48248E-04   -0.38946E-04 35611   0.124E-01    0.794E-03
RMM:  16    -0.274127519914E+02   -0.21761E-04   -0.17994E-04 32206   0.865E-02    0.216E-03
RMM:  17    -0.274127625526E+02   -0.10561E-04   -0.83062E-05 27840   0.652E-02    0.201E-03
RMM:  18    -0.274127668731E+02   -0.43206E-05   -0.42333E-05 25501   0.534E-02
   1 F= -.27412767E+02 E0= -.27412767E+02  d E =0.000000E+00  mag=    -0.0000
