       N       E                     dE             d eps       ncg     rms          rms(c)
DAV:   1     0.462578280819E+03    0.46258E+03   -0.40420E+04 13440   0.132E+03
DAV:   2    -0.103168021214E+03   -0.56575E+03   -0.54069E+03 17088   0.304E+02
DAV:   3    -0.137875039699E+03   -0.34707E+02   -0.34434E+02 16760   0.796E+01
DAV:   4    -0.138467236686E+03   -0.59220E+00   -0.58974E+00 17344   0.110E+01
DAV:   5    -0.138482889713E+03   -0.15653E-01   -0.15636E-01 16496   0.168E+00    0.492E+01
DAV:   6    -0.118141260348E+03    0.20342E+02   -0.64272E+01 15864   0.312E+01    0.248E+01
DAV:   7    -0.119889397392E+03   -0.17481E+01   -0.10253E+01 16328   0.113E+01    0.782E+00
DAV:   8    -0.119822203030E+03    0.67194E-01   -0.60622E-01 15856   0.340E+00    0.477E+00
DAV:   9    -0.119822527142E+03   -0.32411E-03   -0.66684E-02 16488   0.125E+00    0.227E+00
DAV:  10    -0.119821079562E+03    0.14476E-02   -0.27479E-02 15856   0.816E-01    0.478E-01
DAV:  11    -0.119824044744E+03   -0.29652E-02   -0.51267E-03 15584   0.375E-01    0.249E-01
DAV:  12    -0.119824608253E+03   -0.56351E-03   -0.45075E-04 16664   0.121E-01    0.140E-01
DAV:  13    -0.119824940215E+03   -0.33196E-03   -0.30279E-04 16144   0.830E-02    0.568E-02
DAV:  14    -0.119825009340E+03   -0.69125E-04   -0.40273E-05 14144   0.328E-02    0.183E-02
DAV:  15    -0.119825027046E+03   -0.17706E-04   -0.15640E-05 11352   0.191E-02    0.900E-03
DAV:  16    -0.119825031242E+03   -0.41964E-05   -0.45327E-06 11088   0.102E-02
   1 F= -.11982503E+03 E0= -.11982503E+03  d E =0.000000E+00  mag=    -0.0005
