 running on    8 total cores
 distrk:  each k-point on    8 cores,    1 groups
 distr:  one band on    1 cores,    8 groups
 using from now: INCAR     
 vasp.6.1.2 22Jul20 (build Mar 20 2021 11:25:07) complex                        
  
 POSCAR found type information on POSCAR P N 
 POSCAR found :  2 types and      16 ions
 scaLAPACK will be used
 -----------------------------------------------------------------------------
|                                                                             |
|           W    W    AA    RRRRR   N    N  II  N    N   GGGG   !!!           |
|           W    W   A  A   R    R  NN   N  II  NN   N  G    G  !!!           |
|           W    W  A    A  R    R  N N  N  II  N N  N  G       !!!           |
|           W WW W  AAAAAA  RRRRR   N  N N  II  N  N N  G  GGG   !            |
|           WW  WW  A    A  R   R   N   NN  II  N   NN  G    G                |
|           W    W  A    A  R    R  N    N  II  N    N   GGGG   !!!           |
|                                                                             |
|     The value NCORE = 6 specified in the INCAR file was overwritten,        |
|     because it was not compatible with the 8 processes available:           |
|     NCORE = 1                                                               |
|     was used instead, please check that this makes sense for your           |
|     machine.                                                                |
|                                                                             |
 -----------------------------------------------------------------------------

 -----------------------------------------------------------------------------
|                                                                             |
|           W    W    AA    RRRRR   N    N  II  N    N   GGGG   !!!           |
|           W    W   A  A   R    R  NN   N  II  NN   N  G    G  !!!           |
|           W    W  A    A  R    R  N N  N  II  N N  N  G       !!!           |
|           W WW W  AAAAAA  RRRRR   N  N N  II  N  N N  G  GGG   !            |
|           WW  WW  A    A  R   R   N   NN  II  N   NN  G    G                |
|           W    W  A    A  R    R  N    N  II  N    N   GGGG   !!!           |
|                                                                             |
|     For optimal performance we recommend to set                             |
|       NCORE = 4 - approx SQRT(number of cores).                             |
|     NCORE specifies how many cores store one orbital (NPAR=cpu/NCORE).      |
|     This setting can greatly improve the performance of VASP for DFT.       |
|     The default, NCORE=1 might be grossly inefficient on modern             |
|     multi-core architectures or massively parallel machines. Do your        |
|     own testing!!!!                                                         |
|     Unfortunately you need to use the default for GW and RPA                |
|     calculations (for HF NCORE is supported but not extensively tested      |
|     yet).                                                                   |
|                                                                             |
 -----------------------------------------------------------------------------

 LDA part: xc-table for Pade appr. of Perdew
 generate k-points for:    7    7    4
 POSCAR, INCAR and KPOINTS ok, starting setup
 FFT: planning ...
 WAVECAR not read
 entering main loop
       N       E                     dE             d eps       ncg     rms          rms(c)
DAV:   1     0.462578280819E+03    0.46258E+03   -0.40420E+04 13440   0.132E+03
DAV:   2    -0.103168021214E+03   -0.56575E+03   -0.54069E+03 17088   0.304E+02
DAV:   3    -0.137875039699E+03   -0.34707E+02   -0.34434E+02 16760   0.796E+01
DAV:   4    -0.138467236686E+03   -0.59220E+00   -0.58974E+00 17344   0.110E+01
DAV:   5    -0.138482889713E+03   -0.15653E-01   -0.15636E-01 16496   0.168E+00    0.492E+01
DAV:   6    -0.118141260348E+03    0.20342E+02   -0.64272E+01 15864   0.312E+01    0.248E+01
DAV:   7    -0.119889397392E+03   -0.17481E+01   -0.10253E+01 16328   0.113E+01    0.782E+00
DAV:   8    -0.119822203030E+03    0.67194E-01   -0.60622E-01 15856   0.340E+00    0.477E+00
DAV:   9    -0.119822527142E+03   -0.32411E-03   -0.66684E-02 16488   0.125E+00    0.227E+00
DAV:  10    -0.119821079562E+03    0.14476E-02   -0.27479E-02 15856   0.816E-01    0.478E-01
DAV:  11    -0.119824044744E+03   -0.29652E-02   -0.51267E-03 15584   0.375E-01    0.249E-01
DAV:  12    -0.119824608253E+03   -0.56351E-03   -0.45075E-04 16664   0.121E-01    0.140E-01
DAV:  13    -0.119824940215E+03   -0.33196E-03   -0.30279E-04 16144   0.830E-02    0.568E-02
DAV:  14    -0.119825009340E+03   -0.69125E-04   -0.40273E-05 14144   0.328E-02    0.183E-02
DAV:  15    -0.119825027046E+03   -0.17706E-04   -0.15640E-05 11352   0.191E-02    0.900E-03
DAV:  16    -0.119825031242E+03   -0.41964E-05   -0.45327E-06 11088   0.102E-02
   1 F= -.11982503E+03 E0= -.11982503E+03  d E =0.000000E+00  mag=    -0.0005
