 running on   12 total cores
 distrk:  each k-point on   12 cores,    1 groups
 distr:  one band on    6 cores,    2 groups
 using from now: INCAR     
 vasp.6.1.2 22Jul20 (build Mar 20 2021 11:25:07) complex                        
  
 POSCAR found type information on POSCAR P N 
 POSCAR found :  2 types and      16 ions
 scaLAPACK will be used
 LDA part: xc-table for Pade appr. of Perdew
 generate k-points for:    8    7    4
 POSCAR, INCAR and KPOINTS ok, starting setup
 FFT: planning ...
 WAVECAR not read
 entering main loop
       N       E                     dE             d eps       ncg     rms          rms(c)
DAV:   1     0.477262748608E+03    0.47726E+03   -0.40784E+04 24624   0.137E+03
DAV:   2    -0.100798784517E+03   -0.57806E+03   -0.55430E+03 31122   0.313E+02
DAV:   3    -0.136765111859E+03   -0.35966E+02   -0.35679E+02 30528   0.839E+01
DAV:   4    -0.137427997841E+03   -0.66289E+00   -0.66041E+00 31928   0.119E+01
DAV:   5    -0.137444729775E+03   -0.16732E-01   -0.16711E-01 30118   0.178E+00    0.504E+01
DAV:   6    -0.116180978345E+03    0.21264E+02   -0.68022E+01 28622   0.332E+01    0.257E+01
DAV:   7    -0.118094504717E+03   -0.19135E+01   -0.11637E+01 30056   0.126E+01    0.809E+00
DAV:   8    -0.118031254715E+03    0.63250E-01   -0.71200E-01 28798   0.382E+00    0.502E+00
DAV:   9    -0.118031994294E+03   -0.73958E-03   -0.76470E-02 30072   0.139E+00    0.257E+00
DAV:  10    -0.118030847288E+03    0.11470E-02   -0.30408E-02 28722   0.870E-01    0.512E-01
DAV:  11    -0.118033930360E+03   -0.30831E-02   -0.57663E-03 28056   0.426E-01    0.265E-01
DAV:  12    -0.118034514490E+03   -0.58413E-03   -0.72249E-04 31180   0.147E-01    0.148E-01
DAV:  13    -0.118034824011E+03   -0.30952E-03   -0.26209E-04 28214   0.822E-02    0.632E-02
DAV:  14    -0.118034909911E+03   -0.85900E-04   -0.58655E-05 28696   0.383E-02    0.205E-02
DAV:  15    -0.118034927138E+03   -0.17227E-04   -0.10649E-05 19540   0.174E-02    0.110E-02
DAV:  16    -0.118034932354E+03   -0.52164E-05   -0.61927E-06 19320   0.114E-02
   1 F= -.11803493E+03 E0= -.11803493E+03  d E =0.000000E+00  mag=    -0.0005
