       N       E                     dE             d eps       ncg     rms          rms(c)
DAV:   1     0.107735346206E+04    0.10774E+04   -0.69198E+04  5856   0.134E+03
DAV:   2    -0.269960655285E+02   -0.11043E+04   -0.10172E+04  6824   0.293E+02
DAV:   3    -0.165947304622E+03   -0.13895E+03   -0.13712E+03  7884   0.978E+01
DAV:   4    -0.181998787600E+03   -0.16051E+02   -0.15949E+02 10616   0.291E+01
DAV:   5    -0.184942360494E+03   -0.29436E+01   -0.29420E+01  9480   0.837E+00    0.357E+01
DAV:   6    -0.184990482087E+03   -0.48122E-01   -0.94173E+00  7536   0.719E+00    0.198E+01
DAV:   7    -0.187208411280E+03   -0.22179E+01   -0.34444E+00  7408   0.450E+00    0.120E+01
DAV:   8    -0.188090056408E+03   -0.88165E+00   -0.15001E+00  7136   0.315E+00    0.250E+00
DAV:   9    -0.188158473832E+03   -0.68417E-01   -0.20677E-01  8112   0.133E+00    0.123E+00
DAV:  10    -0.188169272588E+03   -0.10799E-01   -0.43319E-02  7656   0.517E-01    0.444E-01
DAV:  11    -0.188172628807E+03   -0.33562E-02   -0.61690E-03  7176   0.252E-01    0.214E-01
DAV:  12    -0.188174182102E+03   -0.15533E-02   -0.20702E-03  8168   0.127E-01    0.108E-01
DAV:  13    -0.188174971589E+03   -0.78949E-03   -0.57173E-04  7032   0.629E-02    0.441E-02
DAV:  14    -0.188175249762E+03   -0.27817E-03   -0.25377E-04  7024   0.408E-02    0.225E-02
DAV:  15    -0.188175317982E+03   -0.68219E-04   -0.71760E-05  6304   0.221E-02    0.120E-02
DAV:  16    -0.188175335519E+03   -0.17538E-04   -0.17194E-05  5512   0.115E-02    0.528E-03
DAV:  17    -0.188175339494E+03   -0.39751E-05   -0.44836E-06  4360   0.616E-03
   1 F= -.18817534E+03 E0= -.18817534E+03  d E =0.000000E+00  mag=    -0.0002
