    4    4    1    2
  0.1044003E+02  0.3208961E-09  0.3208961E-09  0.4851675E-09  0.5000000E-15
  1.000000000000000E-004
  CAR 
 unknown system                          
     18    277     16
 
  0.0000000E+00  0.0000000E+00  0.0000000E+00  0.9920635E-03
    1      -42.503045    -42.502497   1.000000   1.000000
    2      -21.890201    -21.890260   1.000000   1.000000
    3      -17.450615    -17.450684   1.000000   1.000000
    4       -6.282695     -6.282737   1.000000   1.000000
    5       -5.018789     -5.018854   1.000000   1.000000
    6       -4.948242     -4.948311   1.000000   1.000000
    7       -3.113818     -3.113894   1.000000   1.000000
    8        1.157815      1.157711   1.000000   1.000000
    9        1.241816      1.241711   1.000000   1.000000
   10        7.164293      7.164306   0.000000   0.000000
   11        7.291958      7.291909   0.000000   0.000000
   12        7.726102      7.726033   0.000000   0.000000
   13       11.051051     11.051239   0.000000   0.000000
   14       13.038956     13.039021   0.000000   0.000000
   15       15.659713     15.659955   0.000000   0.000000
   16       15.822399     15.822497   0.000000   0.000000
 
  0.8333333E-01  0.1538050E-17 -0.1503495E-16  0.3968254E-02
    1      -42.502538    -42.501990   1.000000   1.000000
    2      -21.874113    -21.874172   1.000000   1.000000
    3      -17.441847    -17.441916   1.000000   1.000000
    4       -6.256590     -6.256632   1.000000   1.000000
    5       -5.099966     -5.100032   1.000000   1.000000
    6       -4.980068     -4.980136   1.000000   1.000000
    7       -3.115457     -3.115533   1.000000   1.000000
    8        1.059544      1.059444   1.000000   1.000000
    9        1.154161      1.154059   1.000000   1.000000
   10        7.147517      7.147514   0.000000   0.000000
   11        7.420053      7.420014   0.000000   0.000000
   12        7.725411      7.725351   0.000000   0.000000
   13       11.234874     11.235060   0.000000   0.000000
   14       13.043560     13.043618   0.000000   0.000000
   15       15.457036     15.456659   0.000000   0.000000
   16       15.886540     15.885494   0.000000   0.000000
 
  0.1666667E+00 -0.1009848E-16 -0.2624006E-16  0.3968254E-02
    1      -42.501116    -42.500568   1.000000   1.000000
    2      -21.829633    -21.829692   1.000000   1.000000
    3      -17.417693    -17.417762   1.000000   1.000000
    4       -6.202278     -6.202318   1.000000   1.000000
    5       -5.315636     -5.315703   1.000000   1.000000
    6       -5.038376     -5.038444   1.000000   1.000000
    7       -3.122150     -3.122228   1.000000   1.000000
    8        0.694946      0.694861   1.000000   1.000000
    9        1.029785      1.029688   1.000000   1.000000
   10        6.996941      6.996938   0.000000   0.000000
   11        7.443298      7.443238   0.000000   0.000000
   12        8.140771      8.140747   0.000000   0.000000
   13       11.732055     11.732249   0.000000   0.000000
   14       13.034401     13.034795   0.000000   0.000000
   15       14.602895     14.583608   0.000000   0.000000
   16       15.849489     15.774867   0.000000   0.000000
 
  0.2500000E+00 -0.1620060E-17 -0.2173185E-16  0.3968254E-02
    1      -42.499140    -42.498592   1.000000   1.000000
    2      -21.767761    -21.767822   1.000000   1.000000
    3      -17.384432    -17.384501   1.000000   1.000000
    4       -6.219084     -6.219126   1.000000   1.000000
    5       -5.486855     -5.486925   1.000000   1.000000
    6       -5.110081     -5.110149   1.000000   1.000000
    7       -3.140029     -3.140109   1.000000   1.000000
    8        0.218616      0.218546   1.000000   1.000000
    9        0.878391      0.878300   1.000000   1.000000
   10        6.620467      6.620474   0.000000   0.000000
   11        7.459719      7.459654   0.000000   0.000000
   12        8.851723      8.851770   0.000000   0.000000
   13       12.347727     12.347748   0.000000   0.000000
   14       12.959077     12.956953   0.000000   0.000000
   15       13.879449     13.870418   0.000000   0.000000
   16       15.688899     15.614800   0.000000   0.000000
 
  0.3333333E+00  0.6856041E-17 -0.4133421E-16  0.3968254E-02
    1      -42.497169    -42.496621   1.000000   1.000000
    2      -21.704766    -21.704826   1.000000   1.000000
    3      -17.351017    -17.351087   1.000000   1.000000
    4       -6.390501     -6.390548   1.000000   1.000000
    5       -5.458773     -5.458845   1.000000   1.000000
    6       -5.179361     -5.179429   1.000000   1.000000
    7       -3.175694     -3.175776   1.000000   1.000000
    8       -0.223341     -0.223397   1.000000   1.000000
    9        0.733969      0.733882   1.000000   1.000000
   10        6.201926      6.201946   0.000000   0.000000
   11        7.486519      7.486452   0.000000   0.000000
   12        9.472683      9.472446   0.000000   0.000000
   13       12.712053     12.711803   0.000000   0.000000
   14       12.898357     12.891716   0.000000   0.000000
   15       13.920300     13.916257   0.000000   0.000000
   16       15.520404     15.481947   0.000000   0.000000
 
  0.4166667E+00 -0.1171981E-16 -0.4797191E-16  0.3968254E-02
    1      -42.495729    -42.495181   1.000000   1.000000
    2      -21.657782    -21.657842   1.000000   1.000000
    3      -17.326472    -17.326542   1.000000   1.000000
    4       -6.573214     -6.573263   1.000000   1.000000
    5       -5.347923     -5.347999   1.000000   1.000000
    6       -5.229635     -5.229703   1.000000   1.000000
    7       -3.221481     -3.221565   1.000000   1.000000
    8       -0.526306     -0.526353   1.000000   1.000000
    9        0.632889      0.632806   1.000000   1.000000
   10        5.889659      5.889688   0.000000   0.000000
   11        7.502151      7.502081   0.000000   0.000000
   12        9.756751      9.756715   0.000000   0.000000
   13       12.777768     12.777845   0.000000   0.000000
   14       13.109002     13.106622   0.000000   0.000000
   15       14.280382     14.280655   0.000000   0.000000
   16       15.392823     15.391195   0.000000   0.000000
 
  0.5000000E+00 -0.3240119E-17 -0.4346370E-16  0.1984127E-02
    1      -42.495210    -42.494662   1.000000   1.000000
    2      -21.640443    -21.640503   1.000000   1.000000
    3      -17.317420    -17.317490   1.000000   1.000000
    4       -6.644954     -6.645005   1.000000   1.000000
    5       -5.292210     -5.292288   1.000000   1.000000
    6       -5.249939     -5.250006   1.000000   1.000000
    7       -3.244514     -3.244597   1.000000   1.000000
    8       -0.632701     -0.632746   1.000000   1.000000
    9        0.596962      0.596880   1.000000   1.000000
   10        5.774728      5.774759   0.000000   0.000000
   11        7.506931      7.506861   0.000000   0.000000
   12        9.809447      9.809492   0.000000   0.000000
   13       12.785261     12.785370   0.000000   0.000000
   14       13.280124     13.279821   0.000000   0.000000
   15       14.431139     14.432430   0.000000   0.000000
   16       15.354233     15.353301   0.000000   0.000000
 
  0.8333333E-01  0.8333333E-01 -0.3006990E-16  0.1984127E-02
    1      -42.502490    -42.501942   1.000000   1.000000
    2      -21.872107    -21.872166   1.000000   1.000000
    3      -17.443182    -17.443250   1.000000   1.000000
    4       -6.238785     -6.238828   1.000000   1.000000
    5       -5.050926     -5.050991   1.000000   1.000000
    6       -5.046739     -5.046807   1.000000   1.000000
    7       -3.133134     -3.133211   1.000000   1.000000
    8        0.998566      0.998468   1.000000   1.000000
    9        1.236614      1.236510   1.000000   1.000000
   10        7.072588      7.072588   0.000000   0.000000
   11        7.630986      7.630946   0.000000   0.000000
   12        7.631084      7.631019   0.000000   0.000000
   13       11.187453     11.187636   0.000000   0.000000
   14       12.970315     12.970381   0.000000   0.000000
   15       15.709252     15.709433   0.000000   0.000000
   16       15.831690     15.832358   0.000000   0.000000
 
  0.1666667E+00  0.8333333E-01 -0.1369499E-16  0.3968254E-02
    1      -42.501473    -42.500925   1.000000   1.000000
    2      -21.840110    -21.840169   1.000000   1.000000
    3      -17.427940    -17.428008   1.000000   1.000000
    4       -6.180357     -6.180402   1.000000   1.000000
    5       -5.238648     -5.238715   1.000000   1.000000
    6       -5.067877     -5.067943   1.000000   1.000000
    7       -3.154730     -3.154807   1.000000   1.000000
    8        0.760815      0.760725   1.000000   1.000000
    9        1.156665      1.156565   1.000000   1.000000
   10        7.044386      7.044385   0.000000   0.000000
   11        7.492537      7.492475   0.000000   0.000000
   12        8.016214      8.016178   0.000000   0.000000
   13       11.508052     11.508214   0.000000   0.000000
   14       12.903774     12.903987   0.000000   0.000000
   15       14.896000     14.895229   0.000000   0.000000
   16       15.833099     15.820708   0.000000   0.000000
 
  0.2500000E+00  0.8333333E-01 -0.4133421E-16  0.3968254E-02
    1      -42.499750    -42.499202   1.000000   1.000000
    2      -21.785814    -21.785874   1.000000   1.000000
    3      -17.400141    -17.400210   1.000000   1.000000
    4       -6.146247     -6.146292   1.000000   1.000000
    5       -5.443737     -5.443806   1.000000   1.000000
    6       -5.130082     -5.130148   1.000000   1.000000
    7       -3.182197     -3.182277   1.000000   1.000000
    8        0.385923      0.385845   1.000000   1.000000
    9        0.987575      0.987482   1.000000   1.000000
   10        6.785647      6.785648   0.000000   0.000000
   11        7.438257      7.438198   0.000000   0.000000
   12        8.654532      8.654528   0.000000   0.000000
   13       12.091128     12.091274   0.000000   0.000000
   14       12.812195     12.812804   0.000000   0.000000
   15       14.020173     14.018447   0.000000   0.000000
   16       15.767099     15.749992   0.000000   0.000000
 
  0.3333333E+00  0.8333333E-01 -0.9453308E-16  0.3968254E-02
    1      -42.497776    -42.497227   1.000000   1.000000
    2      -21.723148    -21.723208   1.000000   1.000000
    3      -17.367065    -17.367134   1.000000   1.000000
    4       -6.263999     -6.264047   1.000000   1.000000
    5       -5.478044     -5.478114   1.000000   1.000000
    6       -5.204835     -5.204902   1.000000   1.000000
    7       -3.220692     -3.220774   1.000000   1.000000
    8       -0.027048     -0.027114   1.000000   1.000000
    9        0.800834      0.800748   1.000000   1.000000
   10        6.370759      6.370772   0.000000   0.000000
   11        7.437118      7.437057   0.000000   0.000000
   12        9.390644      9.390575   0.000000   0.000000
   13       12.536652     12.536417   0.000000   0.000000
   14       12.775946     12.773740   0.000000   0.000000
   15       13.754181     13.752764   0.000000   0.000000
   16       15.655557     15.650575   0.000000   0.000000
 
  0.4166667E+00  0.8333333E-01 -0.4346370E-16  0.3968254E-02
    1      -42.496084    -42.495536   1.000000   1.000000
    2      -21.668809    -21.668869   1.000000   1.000000
    3      -17.337482    -17.337552   1.000000   1.000000
    4       -6.464117     -6.464168   1.000000   1.000000
    5       -5.404474     -5.404545   1.000000   1.000000
    6       -5.235077     -5.235147   1.000000   1.000000
    7       -3.267963     -3.268045   1.000000   1.000000
    8       -0.367026     -0.367081   1.000000   1.000000
    9        0.642526      0.642445   1.000000   1.000000
   10        6.003007      6.003031   0.000000   0.000000
   11        7.423087      7.423026   0.000000   0.000000
   12        9.896553      9.896574   0.000000   0.000000
   13       12.733533     12.731520   0.000000   0.000000
   14       12.848802     12.848038   0.000000   0.000000
   15       14.068532     14.068189   0.000000   0.000000
   16       15.549588     15.545619   0.000000   0.000000
 
  0.5000000E+00  0.8333333E-01 -0.6671106E-16  0.3968254E-02
    1      -42.495153    -42.494604   1.000000   1.000000
    2      -21.638345    -21.638405   1.000000   1.000000
    3      -17.319466    -17.319536   1.000000   1.000000
    4       -6.594630     -6.594682   1.000000   1.000000
    5       -5.402307     -5.402376   1.000000   1.000000
    6       -5.179498     -5.179575   1.000000   1.000000
    7       -3.297395     -3.297477   1.000000   1.000000
    8       -0.557894     -0.557942   1.000000   1.000000
    9        0.543977      0.543899   1.000000   1.000000
   10        5.799394      5.799424   0.000000   0.000000
   11        7.399792      7.399732   0.000000   0.000000
   12       10.060915     10.060946   0.000000   0.000000
   13       12.820860     12.820933   0.000000   0.000000
   14       13.127136     13.126825   0.000000   0.000000
   15       14.284194     14.285171   0.000000   0.000000
   16       15.461128     15.459412   0.000000   0.000000
 
 -0.4166667E+00  0.8333333E-01  0.3640641E-16  0.3968254E-02
    1      -42.495212    -42.494663   1.000000   1.000000
    2      -21.640416    -21.640476   1.000000   1.000000
    3      -17.317955    -17.318025   1.000000   1.000000
    4       -6.598140     -6.598191   1.000000   1.000000
    5       -5.412470     -5.412539   1.000000   1.000000
    6       -5.172071     -5.172149   1.000000   1.000000
    7       -3.272020     -3.272103   1.000000   1.000000
    8       -0.566724     -0.566770   1.000000   1.000000
    9        0.525725      0.525645   1.000000   1.000000
   10        5.814347      5.814377   0.000000   0.000000
   11        7.378622      7.378563   0.000000   0.000000
   12       10.061915     10.061942   0.000000   0.000000
   13       12.793346     12.793182   0.000000   0.000000
   14       13.249927     13.249331   0.000000   0.000000
   15       14.247348     14.248149   0.000000   0.000000
   16       15.405600     15.405682   0.000000   0.000000
 
 -0.3333333E+00  0.8333333E-01  0.3780557E-16  0.3968254E-02
    1      -42.496239    -42.495690   1.000000   1.000000
    2      -21.674510    -21.674571   1.000000   1.000000
    3      -17.333419    -17.333489   1.000000   1.000000
    4       -6.481508     -6.481554   1.000000   1.000000
    5       -5.420270     -5.420342   1.000000   1.000000
    6       -5.216121     -5.216194   1.000000   1.000000
    7       -3.202358     -3.202442   1.000000   1.000000
    8       -0.389323     -0.389370   1.000000   1.000000
    9        0.594632      0.594548   1.000000   1.000000
   10        6.038248      6.038270   0.000000   0.000000
   11        7.363180      7.363124   0.000000   0.000000
   12        9.892864      9.892500   0.000000   0.000000
   13       12.704997     12.703769   0.000000   0.000000
   14       13.152315     13.145280   0.000000   0.000000
   15       13.994436     13.995806   0.000000   0.000000
   16       15.404086     15.375296   0.000000   0.000000
 
 -0.2500000E+00  0.8333333E-01 -0.5907376E-17  0.3968254E-02
    1      -42.497985    -42.497437   1.000000   1.000000
    2      -21.730644    -21.730705   1.000000   1.000000
    3      -17.361678    -17.361748   1.000000   1.000000
    4       -6.313930     -6.313973   1.000000   1.000000
    5       -5.450678     -5.450751   1.000000   1.000000
    6       -5.196324     -5.196393   1.000000   1.000000
    7       -3.138981     -3.139064   1.000000   1.000000
    8       -0.048822     -0.048879   1.000000   1.000000
    9        0.734846      0.734757   1.000000   1.000000
   10        6.406189      6.406200   0.000000   0.000000
   11        7.346897      7.346842   0.000000   0.000000
   12        9.385021      9.383821   0.000000   0.000000
   13       12.591195     12.590602   0.000000   0.000000
   14       13.121796     13.114209   0.000000   0.000000
   15       13.696051     13.695174   0.000000   0.000000
   16       15.409902     15.324900   0.000000   0.000000
 
 -0.1666667E+00  0.8333333E-01 -0.4868609E-17  0.3968254E-02
    1      -42.499946    -42.499397   1.000000   1.000000
    2      -21.793205    -21.793261   1.000000   1.000000
    3      -17.394955    -17.395024   1.000000   1.000000
    4       -6.221459     -6.221500   1.000000   1.000000
    5       -5.392728     -5.392798   1.000000   1.000000
    6       -5.114360     -5.114429   1.000000   1.000000
    7       -3.108167     -3.108248   1.000000   1.000000
    8        0.387905      0.387834   1.000000   1.000000
    9        0.904651      0.904556   1.000000   1.000000
   10        6.817828      6.817827   0.000000   0.000000
   11        7.323384      7.323332   0.000000   0.000000
   12        8.650112      8.649910   0.000000   0.000000
   13       12.144380     12.144441   0.000000   0.000000
   14       13.201602     13.201433   0.000000   0.000000
   15       14.005862     13.999705   0.000000   0.000000
   16       15.519379     15.381264   0.000000   0.000000
 
 -0.8333333E-01  0.8333333E-01  0.9871979E-17  0.1984127E-02
    1      -42.501620    -42.501072   1.000000   1.000000
    2      -21.845446    -21.845502   1.000000   1.000000
    3      -17.424299    -17.424368   1.000000   1.000000
    4       -6.233336     -6.233376   1.000000   1.000000
    5       -5.231775     -5.231842   1.000000   1.000000
    6       -5.024475     -5.024544   1.000000   1.000000
    7       -3.104552     -3.104629   1.000000   1.000000
    8        0.812536      0.812449   1.000000   1.000000
    9        1.047185      1.047085   1.000000   1.000000
   10        7.148818      7.148816   0.000000   0.000000
   11        7.299456      7.299406   0.000000   0.000000
   12        8.013209      8.013315   0.000000   0.000000
   13       11.599290     11.599652   0.000000   0.000000
   14       13.131994     13.132084   0.000000   0.000000
   15       15.250183     15.025568   0.000000   0.000000
   16       15.973292     15.487769   0.000000   0.000000
 
  0.1666667E+00  0.1666667E+00 -0.8462756E-16  0.1984127E-02
    1      -42.500940    -42.500392   1.000000   1.000000
    2      -21.822186    -21.822246   1.000000   1.000000
    3      -17.423197    -17.423265   1.000000   1.000000
    4       -6.134894     -6.134939   1.000000   1.000000
    5       -5.272571     -5.272640   1.000000   1.000000
    6       -5.137500     -5.137564   1.000000   1.000000
    7       -3.196649     -3.196727   1.000000   1.000000
    8        0.586709      0.586625   1.000000   1.000000
    9        1.224683      1.224579   1.000000   1.000000
   10        7.058055      7.058053   0.000000   0.000000
   11        7.374728      7.374672   0.000000   0.000000
   12        8.238333      8.238295   0.000000   0.000000
   13       11.586110     11.586126   0.000000   0.000000
   14       12.815267     12.816015   0.000000   0.000000
   15       14.738372     14.742693   0.000000   0.000000
   16       15.808977     15.810148   0.000000   0.000000
 
  0.2500000E+00  0.1666667E+00 -0.4797191E-16  0.3968254E-02
    1      -42.499618    -42.499070   1.000000   1.000000
    2      -21.780193    -21.780252   1.000000   1.000000
    3      -17.404629    -17.404698   1.000000   1.000000
    4       -6.106052     -6.106098   1.000000   1.000000
    5       -5.394064     -5.394133   1.000000   1.000000
    6       -5.200774     -5.200839   1.000000   1.000000
    7       -3.245902     -3.245982   1.000000   1.000000
    8        0.302469      0.302393   1.000000   1.000000
    9        1.140277      1.140178   1.000000   1.000000
   10        6.900634      6.900629   0.000000   0.000000
   11        7.273338      7.273290   0.000000   0.000000
   12        8.729544      8.729499   0.000000   0.000000
   13       11.943037     11.943024   0.000000   0.000000
   14       12.771693     12.772413   0.000000   0.000000
   15       14.071505     14.072567   0.000000   0.000000
   16       15.736863     15.735313   0.000000   0.000000
 
  0.3333333E+00  0.1666667E+00 -0.4346370E-16  0.3968254E-02
    1      -42.497876    -42.497327   1.000000   1.000000
    2      -21.724757    -21.724817   1.000000   1.000000
    3      -17.377190    -17.377259   1.000000   1.000000
    4       -6.182779     -6.182829   1.000000   1.000000
    5       -5.428794     -5.428863   1.000000   1.000000
    6       -5.277341     -5.277407   1.000000   1.000000
    7       -3.306113     -3.306195   1.000000   1.000000
    8       -0.004860     -0.004927   1.000000   1.000000
    9        0.935784      0.935694   1.000000   1.000000
   10        6.525194      6.525197   0.000000   0.000000
   11        7.246678      7.246632   0.000000   0.000000
   12        9.468947      9.468806   0.000000   0.000000
   13       12.232378     12.232502   0.000000   0.000000
   14       12.860738     12.860402   0.000000   0.000000
   15       13.688219     13.688476   0.000000   0.000000
   16       15.665021     15.660251   0.000000   0.000000
 
  0.4166667E+00  0.1666667E+00 -0.9832255E-16  0.3968254E-02
    1      -42.496206    -42.495658   1.000000   1.000000
    2      -21.670456    -21.670516   1.000000   1.000000
    3      -17.348134    -17.348203   1.000000   1.000000
    4       -6.338425     -6.338478   1.000000   1.000000
    5       -5.496224     -5.496289   1.000000   1.000000
    6       -5.207663     -5.207736   1.000000   1.000000
    7       -3.377953     -3.378035   1.000000   1.000000
    8       -0.261336     -0.261395   1.000000   1.000000
    9        0.686121      0.686040   1.000000   1.000000
   10        6.141383      6.141399   0.000000   0.000000
   11        7.201328      7.201284   0.000000   0.000000
   12       10.243271     10.243198   0.000000   0.000000
   13       12.295855     12.295181   0.000000   0.000000
   14       12.934207     12.934269   0.000000   0.000000
   15       13.896289     13.896396   0.000000   0.000000
   16       15.577066     15.576599   0.000000   0.000000
 
  0.5000000E+00  0.1666667E+00 -0.7774062E-16  0.3968254E-02
    1      -42.495041    -42.494493   1.000000   1.000000
    2      -21.632422    -21.632482   1.000000   1.000000
    3      -17.325126    -17.325195   1.000000   1.000000
    4       -6.468113     -6.468166   1.000000   1.000000
    5       -5.590692     -5.590756   1.000000   1.000000
    6       -5.071655     -5.071735   1.000000   1.000000
    7       -3.436745     -3.436825   1.000000   1.000000
    8       -0.415921     -0.415975   1.000000   1.000000
    9        0.464161      0.464087   1.000000   1.000000
   10        5.874095      5.874121   0.000000   0.000000
   11        7.154508      7.154466   0.000000   0.000000
   12       10.665040     10.665048   0.000000   0.000000
   13       12.635098     12.634971   0.000000   0.000000
   14       12.958824     12.958851   0.000000   0.000000
   15       14.069603     14.069872   0.000000   0.000000
   16       15.468207     15.468467   0.000000   0.000000
 
 -0.4166667E+00  0.1666667E+00  0.2976871E-16  0.3968254E-02
    1      -42.494682    -42.494133   1.000000   1.000000
    2      -21.621276    -21.621336   1.000000   1.000000
    3      -17.314382    -17.314452   1.000000   1.000000
    4       -6.519943     -6.519996   1.000000   1.000000
    5       -5.626393     -5.626457   1.000000   1.000000
    6       -5.024961     -5.025044   1.000000   1.000000
    7       -3.425907     -3.425987   1.000000   1.000000
    8       -0.456952     -0.457002   1.000000   1.000000
    9        0.334320      0.334249   1.000000   1.000000
   10        5.791710      5.791739   0.000000   0.000000
   11        7.133472      7.133432   0.000000   0.000000
   12       10.731910     10.731923   0.000000   0.000000
   13       12.823250     12.822950   0.000000   0.000000
   14       13.168046     13.167828   0.000000   0.000000
   15       14.040558     14.040746   0.000000   0.000000
   16       15.380194     15.380469   0.000000   0.000000
 
 -0.3333333E+00  0.1666667E+00 -0.1705329E-16  0.3968254E-02
    1      -42.495226    -42.494678   1.000000   1.000000
    2      -21.640324    -21.640385   1.000000   1.000000
    3      -17.319006    -17.319076   1.000000   1.000000
    4       -6.486879     -6.486930   1.000000   1.000000
    5       -5.577081     -5.577146   1.000000   1.000000
    6       -5.109065     -5.109146   1.000000   1.000000
    7       -3.327162     -3.327244   1.000000   1.000000
    8       -0.398886     -0.398932   1.000000   1.000000
    9        0.346563      0.346488   1.000000   1.000000
   10        5.904738      5.904763   0.000000   0.000000
   11        7.148124      7.148082   0.000000   0.000000
   12       10.607473     10.607274   0.000000   0.000000
   13       12.638227     12.637288   0.000000   0.000000
   14       13.326384     13.323023   0.000000   0.000000
   15       13.936326     13.936382   0.000000   0.000000
   16       15.367622     15.358479   0.000000   0.000000
 
 -0.2500000E+00  0.1666667E+00 -0.9624609E-17  0.3968254E-02
    1      -42.496549    -42.496000   1.000000   1.000000
    2      -21.684125    -21.684185   1.000000   1.000000
    3      -17.337833    -17.337903   1.000000   1.000000
    4       -6.392553     -6.392598   1.000000   1.000000
    5       -5.448991     -5.449059   1.000000   1.000000
    6       -5.256973     -5.257051   1.000000   1.000000
    7       -3.206890     -3.206974   1.000000   1.000000
    8       -0.237132     -0.237180   1.000000   1.000000
    9        0.495866      0.495783   1.000000   1.000000
   10        6.169182      6.169198   0.000000   0.000000
   11        7.190060      7.190016   0.000000   0.000000
   12       10.148725     10.147392   0.000000   0.000000
   13       12.566081     12.565623   0.000000   0.000000
   14       13.315649     13.312534   0.000000   0.000000
   15       13.666735     13.665809   0.000000   0.000000
   16       15.335438     15.272062   0.000000   0.000000
 
 -0.1666667E+00  0.1666667E+00 -0.2754533E-17  0.1984127E-02
    1      -42.498287    -42.497739   1.000000   1.000000
    2      -21.740112    -21.740176   1.000000   1.000000
    3      -17.365714    -17.365783   1.000000   1.000000
    4       -6.285579     -6.285621   1.000000   1.000000
    5       -5.382684     -5.382758   1.000000   1.000000
    6       -5.266991     -5.267059   1.000000   1.000000
    7       -3.130262     -3.130346   1.000000   1.000000
    8        0.039083      0.039026   1.000000   1.000000
    9        0.711549      0.711459   1.000000   1.000000
   10        6.506351      6.506357   0.000000   0.000000
   11        7.245920      7.245872   0.000000   0.000000
   12        9.396500      9.394816   0.000000   0.000000
   13       12.539463     12.539641   0.000000   0.000000
   14       13.394507     13.393462   0.000000   0.000000
   15       13.415987     13.416038   0.000000   0.000000
   16       15.262653     15.241921   0.000000   0.000000
 
  0.2500000E+00  0.2500000E+00 -0.7561113E-16  0.1984127E-02
    1      -42.498783    -42.498234   1.000000   1.000000
    2      -21.752255    -21.752315   1.000000   1.000000
    3      -17.396858    -17.396926   1.000000   1.000000
    4       -6.123778     -6.123828   1.000000   1.000000
    5       -5.379032     -5.379100   1.000000   1.000000
    6       -5.252994     -5.253058   1.000000   1.000000
    7       -3.322931     -3.323012   1.000000   1.000000
    8        0.072580      0.072513   1.000000   1.000000
    9        1.213911      1.213807   1.000000   1.000000
   10        6.938636      6.938631   0.000000   0.000000
   11        7.031743      7.031699   0.000000   0.000000
   12        9.015715      9.015595   0.000000   0.000000
   13       11.933250     11.932275   0.000000   0.000000
   14       12.875233     12.875503   0.000000   0.000000
   15       13.913958     13.913138   0.000000   0.000000
   16       15.634788     15.635605   0.000000   0.000000
 
  0.3333333E+00  0.2500000E+00 -0.1310059E-15  0.3968254E-02
    1      -42.497441    -42.496893   1.000000   1.000000
    2      -21.709110    -21.709170   1.000000   1.000000
    3      -17.378892    -17.378961   1.000000   1.000000
    4       -6.215565     -6.215618   1.000000   1.000000
    5       -5.358179     -5.358244   1.000000   1.000000
    6       -5.282288     -5.282355   1.000000   1.000000
    7       -3.414541     -3.414624   1.000000   1.000000
    8       -0.175255     -0.175314   1.000000   1.000000
    9        1.124356      1.124257   1.000000   1.000000
   10        6.642118      6.642110   0.000000   0.000000
   11        6.982603      6.982571   0.000000   0.000000
   12        9.563699      9.563612   0.000000   0.000000
   13       11.990657     11.990377   0.000000   0.000000
   14       13.053960     13.054121   0.000000   0.000000
   15       13.717156     13.714710   0.000000   0.000000
   16       15.505410     15.504978   0.000000   0.000000
 
  0.4166667E+00  0.2500000E+00 -0.7774062E-16  0.3968254E-02
    1      -42.496023    -42.495474   1.000000   1.000000
    2      -21.662188    -21.662248   1.000000   1.000000
    3      -17.355577    -17.355647   1.000000   1.000000
    4       -6.317526     -6.317581   1.000000   1.000000
    5       -5.528475     -5.528538   1.000000   1.000000
    6       -5.110441     -5.110514   1.000000   1.000000
    7       -3.522575     -3.522658   1.000000   1.000000
    8       -0.357792     -0.357846   1.000000   1.000000
    9        0.887914      0.887825   1.000000   1.000000
   10        6.287335      6.287340   0.000000   0.000000
   11        6.924025      6.923996   0.000000   0.000000
   12       10.379643     10.379580   0.000000   0.000000
   13       12.011697     12.011756   0.000000   0.000000
   14       13.056457     13.056653   0.000000   0.000000
   15       13.861495     13.861440   0.000000   0.000000
   16       15.401977     15.404337   0.000000   0.000000
 
  0.5000000E+00  0.2500000E+00 -0.9808985E-16  0.3968254E-02