       N       E                     dE             d eps       ncg     rms          rms(c)
DAV:   1     0.781026202700E+02    0.78103E+02   -0.85251E+03 17752   0.105E+03
DAV:   2    -0.241888115070E+02   -0.10229E+03   -0.98676E+02 23960   0.251E+02
DAV:   3    -0.287306082725E+02   -0.45418E+01   -0.45252E+01 25576   0.545E+01
DAV:   4    -0.288689155396E+02   -0.13831E+00   -0.13826E+00 24584   0.826E+00
DAV:   5    -0.288704577784E+02   -0.15422E-02   -0.15422E-02 24584   0.819E-01    0.133E+01
RMM:   6    -0.274394841540E+02    0.14310E+01   -0.32462E+00 19483   0.114E+01    0.616E+00
RMM:   7    -0.273380416500E+02    0.10144E+00   -0.55494E-01 22025   0.623E+00    0.360E+00
RMM:   8    -0.273109320775E+02    0.27110E-01   -0.20057E-01 23679   0.346E+00    0.180E+00
RMM:   9    -0.273205496253E+02   -0.96175E-02   -0.43895E-02 25441   0.174E+00    0.664E-01
RMM:  10    -0.273216570304E+02   -0.11074E-02   -0.12547E-02 27182   0.843E-01    0.161E-01
RMM:  11    -0.273225105995E+02   -0.85357E-03   -0.31108E-03 27808   0.449E-01    0.828E-02
RMM:  12    -0.273228330436E+02   -0.32244E-03   -0.15171E-03 29698   0.268E-01    0.426E-02
RMM:  13    -0.273229440181E+02   -0.11097E-03   -0.55884E-04 29086   0.157E-01    0.125E-02
RMM:  14    -0.273229869464E+02   -0.42928E-04   -0.28050E-04 28431   0.106E-01    0.819E-03
RMM:  15    -0.273230043685E+02   -0.17422E-04   -0.12610E-04 25829   0.664E-02    0.448E-03
RMM:  16    -0.273230118446E+02   -0.74761E-05   -0.54846E-05 22947   0.452E-02
   1 F= -.27323012E+02 E0= -.27323012E+02  d E =0.000000E+00  mag=    -0.0000
