       N       E                     dE             d eps       ncg     rms          rms(c)
DAV:   1     0.482681134544E+03    0.48268E+03   -0.41037E+04 24624   0.137E+03
DAV:   2    -0.100228662828E+03   -0.58291E+03   -0.55825E+03 31322   0.316E+02
DAV:   3    -0.136046965375E+03   -0.35818E+02   -0.35536E+02 30488   0.843E+01
DAV:   4    -0.136691011493E+03   -0.64405E+00   -0.64171E+00 31744   0.118E+01
DAV:   5    -0.136707431788E+03   -0.16420E-01   -0.16402E-01 30012   0.176E+00    0.521E+01
DAV:   6    -0.114774432377E+03    0.21933E+02   -0.68354E+01 28520   0.337E+01    0.268E+01
DAV:   7    -0.116476383200E+03   -0.17020E+01   -0.11998E+01 29844   0.132E+01    0.833E+00
DAV:   8    -0.116410669091E+03    0.65714E-01   -0.74648E-01 28898   0.398E+00    0.523E+00
DAV:   9    -0.116410141643E+03    0.52745E-03   -0.81484E-02 30006   0.141E+00    0.274E+00
DAV:  10    -0.116409101307E+03    0.10403E-02   -0.31037E-02 28434   0.872E-01    0.534E-01
DAV:  11    -0.116412296205E+03   -0.31949E-02   -0.59103E-03 27942   0.430E-01    0.274E-01
DAV:  12    -0.116412895747E+03   -0.59954E-03   -0.76829E-04 30734   0.151E-01    0.151E-01
DAV:  13    -0.116413203234E+03   -0.30749E-03   -0.25938E-04 28268   0.818E-02    0.642E-02
DAV:  14    -0.116413291435E+03   -0.88201E-04   -0.61260E-05 29034   0.390E-02    0.210E-02
DAV:  15    -0.116413308654E+03   -0.17219E-04   -0.10411E-05 19720   0.174E-02    0.113E-02
DAV:  16    -0.116413314220E+03   -0.55656E-05   -0.65075E-06 19258   0.118E-02
   1 F= -.11641331E+03 E0= -.11641331E+03  d E =0.000000E+00  mag=    -0.0005
