    4    4    1    2
  0.1062156E+02  0.3584977E-09  0.3584977E-09  0.3817201E-09  0.5000000E-15
  1.000000000000000E-004
  CAR 
 unknown system                          
     14     70     16
 
  0.0000000E+00  0.0000000E+00  0.0000000E+00  0.1250000E-02
    1      -42.932215    -42.931442   1.000000   1.000000
    2      -42.543917    -42.543119   1.000000   1.000000
    3      -42.430483    -42.429710   1.000000   1.000000
    4       -9.974390     -9.974379   1.000000   1.000000
    5       -0.074857     -0.074800   1.000000   1.000000
    6        1.328858      1.328809   1.000000   1.000000
    7        1.328880      1.328832   1.000000   1.000000
    8        2.713931      2.713501   0.000000   0.000000
    9        9.014869      9.014864   0.000000   0.000000
   10        9.014935      9.014934   0.000000   0.000000
   11       10.071865     10.071697   0.000000   0.000000
   12       14.171698     14.171194   0.000000   0.000000
   13       14.171769     14.171249   0.000000   0.000000
   14       14.949920     14.950300   0.000000   0.000000
   15       15.914863     15.914209   0.000000   0.000000
   16       18.519563     18.519059   0.000000   0.000000
 
  0.1000000E+00 -0.1496692E-16  0.0000000E+00  0.7500000E-02
    1      -42.923506    -42.922731   1.000000   1.000000
    2      -42.552290    -42.551493   1.000000   1.000000
    3      -42.430546    -42.429774   1.000000   1.000000
    4       -9.964780     -9.964772   1.000000   1.000000
    5       -0.005956     -0.005897   1.000000   1.000000
    6        0.937948      0.937872   1.000000   1.000000
    7        1.203540      1.203494   1.000000   1.000000
    8        3.082891      3.082491   0.000000   0.000000
    9        9.057852      9.057808   0.000000   0.000000
   10        9.314301      9.314282   0.000000   0.000000
   11        9.943554      9.943392   0.000000   0.000000
   12       13.936708     13.936273   0.000000   0.000000
   13       14.070048     14.069550   0.000000   0.000000
   14       15.010099     15.010639   0.000000   0.000000
   15       15.830353     15.829732   0.000000   0.000000
   16       17.394066     17.393747   0.000000   0.000000
 
  0.2000000E+00 -0.2993384E-16  0.0000000E+00  0.7500000E-02
    1      -42.898553    -42.897777   1.000000   1.000000
    2      -42.575922    -42.575125   1.000000   1.000000
    3      -42.430603    -42.429831   1.000000   1.000000
    4       -9.939259     -9.939255   1.000000   1.000000
    5        0.183464      0.183526   1.000000   1.000000
    6        0.274826      0.274755   1.000000   1.000000
    7        0.906416      0.906377   1.000000   1.000000
    8        3.747031      3.746636   0.000000   0.000000
    9        8.919163      8.918991   0.000000   0.000000
   10        9.610622      9.610474   0.000000   0.000000
   11       10.052799     10.052719   0.000000   0.000000
   12       13.666266     13.665934   0.000000   0.000000
   13       13.954563     13.954110   0.000000   0.000000
   14       15.014677     15.014916   0.000000   0.000000
   15       15.581190     15.580964   0.000000   0.000000
   16       16.076955     16.076512   0.000000   0.000000
 
  0.3000000E+00 -0.3004514E-16  0.0000000E+00  0.7500000E-02
    1      -42.861465    -42.860687   1.000000   1.000000
    2      -42.611402    -42.610608   1.000000   1.000000
    3      -42.430724    -42.429952   1.000000   1.000000
    4       -9.907800     -9.907802   1.000000   1.000000
    5       -0.304941     -0.304992   1.000000   1.000000
    6        0.438780      0.438847   1.000000   1.000000
    7        0.586050      0.586017   1.000000   1.000000
    8        4.493082      4.492679   0.000000   0.000000
    9        8.267357      8.267041   0.000000   0.000000
   10        9.191726      9.191595   0.000000   0.000000
   11       10.795170     10.794957   0.000000   0.000000
   12       13.840705     13.840511   0.000000   0.000000
   13       14.134570     14.134360   0.000000   0.000000
   14       14.252335     14.251990   0.000000   0.000000
   15       15.029841     15.029327   0.000000   0.000000
   16       16.665079     16.652256   0.000000   0.000000
 
  0.4000000E+00  0.1311828E-16  0.0000000E+00  0.7500000E-02
    1      -42.820860    -42.820079   1.000000   1.000000
    2      -42.650761    -42.649970   1.000000   1.000000
    3      -42.430864    -42.430092   1.000000   1.000000
    4       -9.882526     -9.882534   1.000000   1.000000
    5       -0.685201     -0.685234   1.000000   1.000000
    6        0.355061      0.355032   1.000000   1.000000
    7        0.666610      0.666681   1.000000   1.000000
    8        5.329915      5.329508   0.000000   0.000000
    9        7.294136      7.293743   0.000000   0.000000
   10        8.833240      8.833122   0.000000   0.000000
   11       11.149759     11.149416   0.000000   0.000000
   12       13.240901     13.240688   0.000000   0.000000
   13       14.103193     14.103200   0.000000   0.000000
   14       15.166789     15.166539   0.000000   0.000000
   15       15.228725     15.228124   0.000000   0.000000
   16       17.088034     17.088506   0.000000   0.000000
 
  0.5000000E+00 -0.7385676E-16  0.0000000E+00  0.3750000E-02
    1      -42.799106    -42.798324   1.000000   1.000000
    2      -42.672029    -42.671239   1.000000   1.000000
    3      -42.430908    -42.430136   1.000000   1.000000
    4       -9.872871     -9.872881   1.000000   1.000000
    5       -0.816719     -0.816746   1.000000   1.000000
    6        0.272227      0.272199   1.000000   1.000000
    7        0.759736      0.759810   1.000000   1.000000
    8        6.217995      6.217699   0.000000   0.000000
    9        6.330236      6.329709   0.000000   0.000000
   10        8.688869      8.688756   0.000000   0.000000
   11       11.221725     11.221341   0.000000   0.000000
   12       12.942460     12.942245   0.000000   0.000000
   13       14.176423     14.176444   0.000000   0.000000
   14       15.411957     15.409199   0.000000   0.000000
   15       15.843414     15.843170   0.000000   0.000000
   16       17.200260     17.192382   0.000000   0.000000
 
  0.1000000E+00  0.1000000E+00  0.0000000E+00  0.7500000E-02
    1      -42.906638    -42.905862   1.000000   1.000000
    2      -42.568215    -42.567418   1.000000   1.000000
    3      -42.430571    -42.429798   1.000000   1.000000
    4       -9.947116     -9.947111   1.000000   1.000000
    5        0.123364      0.123425   1.000000   1.000000
    6        0.463521      0.463445   1.000000   1.000000
    7        0.977347      0.977308   1.000000   1.000000
    8        3.565239      3.564845   0.000000   0.000000
    9        9.060782      9.060652   0.000000   0.000000
   10        9.719100      9.718947   0.000000   0.000000
   11        9.758988      9.758927   0.000000   0.000000
   12       13.728800     13.728464   0.000000   0.000000
   13       13.900048     13.899600   0.000000   0.000000
   14       15.103863     15.104394   0.000000   0.000000
   15       15.936221     15.936007   0.000000   0.000000
   16       15.955551     15.954964   0.000000   0.000000
 
  0.2000000E+00  0.1000000E+00  0.0000000E+00  0.1500000E-01
    1      -42.875366    -42.874589   1.000000   1.000000
    2      -42.598005    -42.597210   1.000000   1.000000
    3      -42.430689    -42.429917   1.000000   1.000000
    4       -9.918779     -9.918781   1.000000   1.000000
    5       -0.087720     -0.087779   1.000000   1.000000
    6        0.346938      0.347002   1.000000   1.000000
    7        0.642624      0.642591   1.000000   1.000000
    8        4.240029      4.239626   0.000000   0.000000
    9        8.712707      8.712430   0.000000   0.000000
   10        9.375726      9.375587   0.000000   0.000000
   11       10.292554     10.292394   0.000000   0.000000
   12       13.768196     13.767944   0.000000   0.000000
   13       14.021961     14.021632   0.000000   0.000000
   14       14.304517     14.304341   0.000000   0.000000
   15       15.230809     15.230947   0.000000   0.000000
   16       16.450038     16.449540   0.000000   0.000000
 
  0.3000000E+00  0.1000000E+00  0.0000000E+00  0.1500000E-01
    1      -42.835211    -42.834431   1.000000   1.000000
    2      -42.636697    -42.635904   1.000000   1.000000
    3      -42.430860    -42.430088   1.000000   1.000000
    4       -9.890675     -9.890681   1.000000   1.000000
    5       -0.521245     -0.521285   1.000000   1.000000
    6        0.348009      0.347981   1.000000   1.000000
    7        0.591797      0.591867   1.000000   1.000000
    8        5.021584      5.021169   0.000000   0.000000
    9        7.888318      7.887939   0.000000   0.000000
   10        9.042102      9.041977   0.000000   0.000000
   11       10.624946     10.624671   0.000000   0.000000
   12       13.077479     13.077307   0.000000   0.000000
   13       14.076143     14.076061   0.000000   0.000000
   14       14.683202     14.682932   0.000000   0.000000
   15       15.539855     15.539681   0.000000   0.000000
   16       17.015325     17.015131   0.000000   0.000000
 
  0.4000000E+00  0.1000000E+00  0.0000000E+00  0.1500000E-01
    1      -42.799284    -42.798501   1.000000   1.000000
    2      -42.671750    -42.670960   1.000000   1.000000
    3      -42.430989    -42.430217   1.000000   1.000000
    4       -9.873489     -9.873499   1.000000   1.000000
    5       -0.754280     -0.754308   1.000000   1.000000
    6        0.181841      0.181815   1.000000   1.000000
    7        0.756154      0.756227   1.000000   1.000000
    8        5.907527      5.907102   0.000000   0.000000
    9        6.886470      6.886054   0.000000   0.000000
   10        8.832996      8.832881   0.000000   0.000000
   11       10.731432     10.731096   0.000000   0.000000
   12       12.431614     12.431440   0.000000   0.000000
   13       14.222246     14.222361   0.000000   0.000000
   14       15.515831     15.515059   0.000000   0.000000
   15       16.052544     16.052190   0.000000   0.000000
   16       17.190410     17.192673   0.000000   0.000000
 
  0.2000000E+00  0.2000000E+00  0.0000000E+00  0.7500000E-02
    1      -42.840257    -42.839478   1.000000   1.000000
    2      -42.631790    -42.630997   1.000000   1.000000
    3      -42.430925    -42.430153   1.000000   1.000000
    4       -9.894058     -9.894065   1.000000   1.000000
    5       -0.413967     -0.414010   1.000000   1.000000
    6        0.288272      0.288248   1.000000   1.000000
    7        0.562776      0.562845   1.000000   1.000000
    8        4.934926      4.934504   0.000000   0.000000
    9        8.314917      8.314522   0.000000   0.000000
   10        9.181562      9.181433   0.000000   0.000000
   11       10.095243     10.095020   0.000000   0.000000
   12       12.819789     12.819645   0.000000   0.000000
   13       14.110948     14.110822   0.000000   0.000000
   14       14.472696     14.472443   0.000000   0.000000
   15       15.843908     15.844099   0.000000   0.000000
   16       17.076897     17.076398   0.000000   0.000000
 
  0.3000000E+00  0.2000000E+00  0.0000000E+00  0.1500000E-01
    1      -42.799674    -42.798892   1.000000   1.000000
    2      -42.671273    -42.670483   1.000000   1.000000
    3      -42.431160    -42.430388   1.000000   1.000000
    4       -9.874529     -9.874541   1.000000   1.000000
    5       -0.619871     -0.619900   1.000000   1.000000
    6        0.003389      0.003368   1.000000   1.000000
    7        0.750385      0.750458   1.000000   1.000000
    8        5.753027      5.752577   0.000000   0.000000
    9        7.582755      7.582306   0.000000   0.000000
   10        9.127904      9.127783   0.000000   0.000000
   11        9.882137      9.881889   0.000000   0.000000
   12       11.692126     11.691990   0.000000   0.000000
   13       14.321296     14.321245   0.000000   0.000000
   14       15.263874     15.263671   0.000000   0.000000
   15       16.657693     16.657916   0.000000   0.000000
   16       17.506391     17.506769   0.000000   0.000000
 
  0.4000000E+00  0.2000000E+00  0.0000000E+00  0.7500000E-02
    1      -42.774564    -42.773780   1.000000   1.000000
    2      -42.695821    -42.695032   1.000000   1.000000
    3      -42.431209    -42.430437   1.000000   1.000000
    4       -9.867077     -9.867091   1.000000   1.000000
    5       -0.687139     -0.687162   1.000000   1.000000
    6       -0.104937     -0.104959   1.000000   1.000000
    7        0.825554      0.825628   1.000000   1.000000
    8        6.530460      6.529934   0.000000   0.000000
    9        6.801548      6.801157   0.000000   0.000000
   10        9.150466      9.150350   0.000000   0.000000
   11        9.816080      9.815821   0.000000   0.000000
   12       11.249121     11.248983   0.000000   0.000000
   13       14.369860     14.369827   0.000000   0.000000
   14       15.865869     15.865685   0.000000   0.000000
   15       17.060590     17.065209   0.000000   0.000000
   16       17.263097     17.262883   0.000000   0.000000
 
  0.3000000E+00  0.3000000E+00  0.0000000E+00  0.7500000E-02
    1      -42.759601    -42.758817   1.000000   1.000000
    2      -42.710628    -42.709841   1.000000   1.000000
    3      -42.431365    -42.430593   1.000000   1.000000
    4       -9.864971     -9.864986   1.000000   1.000000
    5       -0.569455     -0.569477   1.000000   1.000000
    6       -0.309862     -0.309882   1.000000   1.000000
    7        0.851201      0.851276   1.000000   1.000000
    8        6.535584      6.535084   0.000000   0.000000
    9        7.207668      7.207162   0.000000   0.000000
   10        9.256077      9.255908   0.000000   0.000000
   11        9.536380      9.536262   0.000000   0.000000
   12       10.532231     10.532107   0.000000   0.000000
   13       14.442414     14.442335   0.000000   0.000000
   14       16.025853     16.024191   0.000000   0.000000
   15       16.907802     16.906331   0.000000   0.000000
   16       18.667803     18.540440   0.000000   0.000000
 
  0.0000000E+00  0.0000000E+00  0.1250000E+00  0.2500000E-02
    1      -42.931609    -42.930835   1.000000   1.000000
    2      -42.543881    -42.543083   1.000000   1.000000
    3      -42.430770    -42.429997   1.000000   1.000000
    4       -9.983833     -9.983823   1.000000   1.000000
    5       -0.333120     -0.333118   1.000000   1.000000
    6        1.358782      1.358734   1.000000   1.000000
    7        1.358804      1.358756   1.000000   1.000000
    8        3.164536      3.164162   0.000000   0.000000
    9        9.112755      9.112757   0.000000   0.000000
   10        9.112823      9.112827   0.000000   0.000000
   11        9.904379      9.904258   0.000000   0.000000
   12       13.771577     13.771118   0.000000   0.000000
   13       13.771646     13.771172   0.000000   0.000000
   14       15.231012     15.231742   0.000000   0.000000
   15       15.498276     15.497615   0.000000   0.000000
   16       18.676628     18.676502   0.000000   0.000000
 
  0.1000000E+00 -0.1496692E-16  0.1250000E+00  0.1500000E-01
    1      -42.922970    -42.922196   1.000000   1.000000
    2      -42.552240    -42.551443   1.000000   1.000000
    3      -42.430821    -42.430049   1.000000   1.000000
    4       -9.974989     -9.974982   1.000000   1.000000
    5       -0.267683     -0.267684   1.000000   1.000000
    6        1.053047      1.053003   1.000000   1.000000
    7        1.235297      1.235250   1.000000   1.000000
    8        3.433010      3.432642   0.000000   0.000000
    9        9.143629      9.143584   0.000000   0.000000
   10        9.408172      9.408155   0.000000   0.000000
   11        9.798956      9.798839   0.000000   0.000000
   12       13.570470     13.570049   0.000000   0.000000
   13       13.602321     13.601877   0.000000   0.000000
   14       15.100141     15.099688   0.000000   0.000000
   15       15.274665     15.274851   0.000000   0.000000
   16       18.299269     18.285355   0.000000   0.000000
 
  0.2000000E+00 -0.2993384E-16  0.1250000E+00  0.1500000E-01
    1      -42.898157    -42.897381   1.000000   1.000000
    2      -42.575910    -42.575114   1.000000   1.000000
    3      -42.430829    -42.430056   1.000000   1.000000
    4       -9.951505     -9.951503   1.000000   1.000000
    5       -0.134840     -0.134866   1.000000   1.000000
    6        0.534673      0.534674   1.000000   1.000000
    7        0.942003      0.941965   1.000000   1.000000
    8        3.948188      3.947812   0.000000   0.000000
    9        8.790947      8.790780   0.000000   0.000000
   10        9.732166      9.732041   0.000000   0.000000
   11       10.123562     10.123479   0.000000   0.000000
   12       13.142597     13.142318   0.000000   0.000000
   13       13.363488     13.363116   0.000000   0.000000
   14       14.730540     14.730140   0.000000   0.000000
   15       15.458258     15.458275   0.000000   0.000000
   16       17.356861     17.356567   0.000000   0.000000
 
  0.3000000E+00 -0.3004514E-16  0.1250000E+00  0.1500000E-01
    1      -42.861202    -42.860423   1.000000   1.000000
    2      -42.611341    -42.610547   1.000000   1.000000
    3      -42.430823    -42.430051   1.000000   1.000000
    4       -9.922644     -9.922647   1.000000   1.000000
    5       -0.296800     -0.296854   1.000000   1.000000
    6        0.447080      0.447140   1.000000   1.000000
    7        0.625154      0.625123   1.000000   1.000000
    8        4.502303      4.501909   0.000000   0.000000
    9        7.905364      7.905102   0.000000   0.000000
   10        9.710479      9.710308   0.000000   0.000000
   11       10.766040     10.765804   0.000000   0.000000
   12       12.862987     12.862860   0.000000   0.000000
   13       13.586792     13.586568   0.000000   0.000000
   14       14.445234     14.444916   0.000000   0.000000
   15       15.640454     15.640390   0.000000   0.000000
   16       17.206472     17.205851   0.000000   0.000000
 
  0.4000000E+00  0.1311828E-16  0.1250000E+00  0.1500000E-01
    1      -42.820730    -42.819949   1.000000   1.000000
    2      -42.650604    -42.649813   1.000000   1.000000
    3      -42.430857    -42.430085   1.000000   1.000000
    4       -9.899503     -9.899513   1.000000   1.000000
    5       -0.603642     -0.603674   1.000000   1.000000
    6        0.396388      0.396361   1.000000   1.000000
    7        0.667018      0.667087   1.000000   1.000000
    8        5.067692      5.067277   0.000000   0.000000
    9        6.935738      6.935428   0.000000   0.000000
   10        9.672665      9.672482   0.000000   0.000000
   11       10.969346     10.968990   0.000000   0.000000
   12       12.422616     12.422483   0.000000   0.000000
   13       14.398640     14.398531   0.000000   0.000000
   14       14.454316     14.454175   0.000000   0.000000
   15       15.893247     15.893017   0.000000   0.000000
   16       17.370914     17.370521   0.000000   0.000000
 
  0.5000000E+00 -0.7385676E-16  0.1250000E+00  0.7500000E-02
    1      -42.799020    -42.798238   1.000000   1.000000
    2      -42.671936    -42.671146   1.000000   1.000000
    3      -42.430890    -42.430118   1.000000   1.000000
    4       -9.890792     -9.890804   1.000000   1.000000
    5       -0.721105     -0.721128   1.000000   1.000000
    6        0.314294      0.314268   1.000000   1.000000
    7        0.774791      0.774864   1.000000   1.000000
    8        5.460551      5.460107   0.000000   0.000000
    9        6.372336      6.372034   0.000000   0.000000
   10        9.665253      9.665072   0.000000   0.000000
   11       10.982815     10.982429   0.000000   0.000000
   12       12.184859     12.184685   0.000000   0.000000
   13       14.490820     14.490718   0.000000   0.000000
   14       14.897290     14.897211   0.000000   0.000000
   15       16.118633     16.116215   0.000000   0.000000
   16       17.344880     17.344766   0.000000   0.000000
 
  0.1000000E+00  0.1000000E+00  0.1250000E+00  0.1500000E-01
    1      -42.906177    -42.905401   1.000000   1.000000
    2      -42.568207    -42.567411   1.000000   1.000000
    3      -42.430813    -42.430041   1.000000   1.000000
    4       -9.958739     -9.958736   1.000000   1.000000
    5       -0.163448     -0.163462   1.000000   1.000000
    6        0.670630      0.670610   1.000000   1.000000
    7        1.013201      1.013162   1.000000   1.000000
    8        3.806866      3.806493   0.000000   0.000000
    9        9.138510      9.138370   0.000000   0.000000
   10        9.413472      9.413371   0.000000   0.000000
   11       10.038441     10.038372   0.000000   0.000000
   12       13.112590     13.112253   0.000000   0.000000
   13       13.494954     13.494592   0.000000   0.000000
   14       15.030803     15.030266   0.000000   0.000000
   15       15.281604     15.282110   0.000000   0.000000
   16       17.518969     17.519473   0.000000   0.000000
 
  0.2000000E+00  0.1000000E+00  0.1250000E+00  0.3000000E-01
    1      -42.875042    -42.874264   1.000000   1.000000
    2      -42.597979    -42.597184   1.000000   1.000000
    3      -42.430833    -42.430061   1.000000   1.000000
    4       -9.932703     -9.932705   1.000000   1.000000
    5       -0.169861     -0.169917   1.000000   1.000000
    6        0.418961      0.419012   1.000000   1.000000
    7        0.685029      0.684998   1.000000   1.000000
    8        4.316922      4.316532   0.000000   0.000000
    9        8.522350      8.522097   0.000000   0.000000
   10        9.372776      9.372615   0.000000   0.000000
   11       10.582362     10.582205   0.000000   0.000000
   12       12.774330     12.774180   0.000000   0.000000
   13       13.543481     13.543229   0.000000   0.000000
   14       14.840080     14.839656   0.000000   0.000000
   15       15.536196     15.536159   0.000000   0.000000
   16       17.070459     17.069941   0.000000   0.000000
 
  0.3000000E+00  0.1000000E+00  0.1250000E+00  0.3000000E-01
    1      -42.835013    -42.834233   1.000000   1.000000
    2      -42.636605    -42.635812   1.000000   1.000000
    3      -42.430878    -42.430106   1.000000   1.000000
    4       -9.907002     -9.907009   1.000000   1.000000
    5       -0.461082     -0.461123   1.000000   1.000000
    6        0.390733      0.390708   1.000000   1.000000
    7        0.594130      0.594195   1.000000   1.000000
    8        4.864623      4.864213   0.000000   0.000000
    9        7.526973      7.526650   0.000000   0.000000
   10        9.477127      9.476938   0.000000   0.000000
   11       10.713613     10.713355   0.000000   0.000000
   12       12.545905     12.545814   0.000000   0.000000
   13       13.943737     13.943621   0.000000   0.000000
   14       14.731450     14.731140   0.000000   0.000000
   15       15.949091     15.948959   0.000000   0.000000
   16       17.274845     17.274809   0.000000   0.000000
 
  0.4000000E+00  0.1000000E+00  0.1250000E+00  0.3000000E-01
    1      -42.799223    -42.798441   1.000000   1.000000
    2      -42.671623    -42.670833   1.000000   1.000000
    3      -42.430961    -42.430189   1.000000   1.000000
    4       -9.891384     -9.891397   1.000000   1.000000
    5       -0.663135     -0.663159   1.000000   1.000000
    6        0.228296      0.228272   1.000000   1.000000
    7        0.774884      0.774957   1.000000   1.000000
    8        5.401644      5.401206   0.000000   0.000000
    9        6.658363      6.658023   0.000000   0.000000
   10        9.689902      9.689719   0.000000   0.000000
   11       10.448844     10.448569   0.000000   0.000000
   12       12.304833     12.304680   0.000000   0.000000
   13       14.291668     14.291620   0.000000   0.000000
   14       14.967137     14.966918   0.000000   0.000000
   15       16.519642     16.518209   0.000000   0.000000
   16       17.342021     17.343146   0.000000   0.000000
 
  0.2000000E+00  0.2000000E+00  0.1250000E+00  0.1500000E-01
    1      -42.839999    -42.839219   1.000000   1.000000
    2      -42.631687    -42.630894   1.000000   1.000000
    3      -42.430914    -42.430142   1.000000   1.000000
    4       -9.910074     -9.910081   1.000000   1.000000
    5       -0.371382     -0.371427   1.000000   1.000000
    6        0.340545      0.340522   1.000000   1.000000
    7        0.569341      0.569407   1.000000   1.000000
    8        4.803782      4.803370   0.000000   0.000000
    9        8.095082      8.094667   0.000000   0.000000
   10        8.949982      8.949874   0.000000   0.000000
   11       10.719721     10.719502   0.000000   0.000000
   12       12.347651     12.347589   0.000000   0.000000
   13       13.864396     13.864301   0.000000   0.000000
   14       15.054780     15.054388   0.000000   0.000000
   15       16.038030     16.037993   0.000000   0.000000
   16       17.295642     17.295646   0.000000   0.000000
 
  0.3000000E+00  0.2000000E+00  0.1250000E+00  0.3000000E-01
    1      -42.799522    -42.798740   1.000000   1.000000
    2      -42.671205    -42.670415   1.000000   1.000000
    3      -42.431088    -42.430316   1.000000   1.000000
    4       -9.892392     -9.892405   1.000000   1.000000
    5       -0.539691     -0.539718   1.000000   1.000000
    6        0.062680      0.062660   1.000000   1.000000
    7        0.772773      0.772846   1.000000   1.000000
    8        5.346075      5.345638   0.000000   0.000000
    9        7.207331      7.206901   0.000000   0.000000
   10        9.180492      9.180347   0.000000   0.000000
   11       10.451083     10.450867   0.000000   0.000000
   12       11.861601     11.861505   0.000000   0.000000
   13       14.115259     14.115203   0.000000   0.000000
   14       15.448657     15.448335   0.000000   0.000000
   15       16.853577     16.853741   0.000000   0.000000
   16       17.544001     17.543284   0.000000   0.000000
 
  0.4000000E+00  0.2000000E+00  0.1250000E+00  0.1500000E-01
    1      -42.774554    -42.773770   1.000000   1.000000
    2      -42.695735    -42.694947   1.000000   1.000000
    3      -42.431125    -42.430352   1.000000   1.000000
    4       -9.885714     -9.885729   1.000000   1.000000
    5       -0.597262     -0.597281   1.000000   1.000000
    6       -0.043654     -0.043673   1.000000   1.000000
    7        0.861192      0.861269   1.000000   1.000000
    8        5.748752      5.748293   0.000000   0.000000
    9        6.630038      6.629622   0.000000   0.000000
   10        9.585937      9.585747   0.000000   0.000000
   11       10.012407     10.012242   0.000000   0.000000
   12       11.680353     11.680217   0.000000   0.000000
   13       14.201605     14.201584   0.000000   0.000000
   14       15.775472     15.775202   0.000000   0.000000
   15       17.228050     17.227390   0.000000   0.000000
   16       17.442169     17.442229   0.000000   0.000000
 
  0.3000000E+00  0.3000000E+00  0.1250000E+00  0.1500000E-01
    1      -42.759518    -42.758733   1.000000   1.000000
    2      -42.710577    -42.709789   1.000000   1.000000
    3      -42.431229    -42.430457   1.000000   1.000000
    4       -9.883784     -9.883800   1.000000   1.000000
    5       -0.485848     -0.485866   1.000000   1.000000
    6       -0.236426     -0.236443   1.000000   1.000000
    7        0.892816      0.892894   1.000000   1.000000
    8        5.911991      5.911530   0.000000   0.000000
    9        6.654174      6.653699   0.000000   0.000000
   10        9.255020      9.254888   0.000000   0.000000
   11       10.402263     10.402096   0.000000   0.000000
   12       11.035926     11.035808   0.000000   0.000000
   13       14.215251     14.215159   0.000000   0.000000
   14       16.243847     16.242566   0.000000   0.000000
   15       17.056864     17.059187   0.000000   0.000000
   16       18.410481     18.408559   0.000000   0.000000
 
  0.0000000E+00  0.0000000E+00  0.2500000E+00  0.2500000E-02
    1      -42.930412    -42.929638   1.000000   1.000000
    2      -42.543950    -42.543152   1.000000   1.000000
    3      -42.431675    -42.430903   1.000000   1.000000
    4      -10.006756    -10.006747   1.000000   1.000000
    5       -0.786031     -0.786094   1.000000   1.000000
    6        1.432857      1.432811   1.000000   1.000000
    7        1.432879      1.432833   1.000000   1.000000
    8        4.143274      4.142965   0.000000   0.000000
    9        9.375801      9.375822   0.000000   0.000000
   10        9.375872      9.375896   0.000000   0.000000
   11        9.476306      9.476274   0.000000   0.000000
   12       12.991622     12.991223   0.000000   0.000000
   13       12.991688     12.991276   0.000000   0.000000
   14       14.844402     14.843729   0.000000   0.000000
   15       15.944061     15.944510   0.000000   0.000000
   16       16.911399     16.911070   0.000000   0.000000
 
  0.1000000E+00 -0.1496692E-16  0.2500000E+00  0.1500000E-01
    1      -42.921783    -42.921009   1.000000   1.000000
    2      -42.552165    -42.551368   1.000000   1.000000
    3      -42.431560    -42.430787   1.000000   1.000000
    4       -9.999488     -9.999480   1.000000   1.000000
    5       -0.699736     -0.699798   1.000000   1.000000
    6        1.209923      1.209891   1.000000   1.000000
    7        1.314055      1.314012   1.000000   1.000000
    8        4.245380      4.245062   0.000000   0.000000
    9        9.259449      9.259415   0.000000   0.000000
   10        9.595459      9.595438   0.000000   0.000000
   11        9.664698      9.664701   0.000000   0.000000
   12       12.699787     12.699406   0.000000   0.000000
   13       12.702940     12.702563   0.000000   0.000000
   14       14.250879     14.250357   0.000000   0.000000
   15       15.955929     15.956049   0.000000   0.000000
   16       17.489185     17.488968   0.000000   0.000000
 
  0.2000000E+00 -0.2993384E-16  0.2500000E+00  0.1500000E-01