       N       E                     dE             d eps       ncg     rms          rms(c)
DAV:   1     0.560935999428E+00    0.56094E+00   -0.71229E+02 14502   0.347E+02
DAV:   2    -0.152383308011E+01   -0.20848E+01   -0.20385E+01 20046   0.483E+01
DAV:   3    -0.159971877387E+01   -0.75886E-01   -0.75722E-01 17598   0.639E+00
DAV:   4    -0.160111277281E+01   -0.13940E-02   -0.13910E-02 21612   0.819E-01
DAV:   5    -0.160112580716E+01   -0.13034E-04   -0.12984E-04 18690   0.467E-02    0.545E+00
RMM:   6    -0.182722102955E+01   -0.22610E+00   -0.63217E-02 16912   0.239E+00    0.260E+00
RMM:   7    -0.190132896083E+01   -0.74108E-01   -0.20701E-02 15965   0.151E+00    0.167E-01
RMM:   8    -0.190280915283E+01   -0.14802E-02   -0.89212E-03 17980   0.854E-01    0.887E-02
RMM:   9    -0.190302175562E+01   -0.21260E-03   -0.23044E-03 21290   0.449E-01    0.331E-02
RMM:  10    -0.190339389983E+01   -0.37214E-03   -0.13630E-03 19461   0.350E-01    0.271E-02
RMM:  11    -0.190344414972E+01   -0.50250E-04   -0.28456E-04 21722   0.142E-01    0.213E-02
RMM:  12    -0.190345737450E+01   -0.13225E-04   -0.13544E-04 20673   0.104E-01    0.684E-03
RMM:  13    -0.190346822063E+01   -0.10846E-04   -0.35164E-05 18660   0.590E-02    0.506E-03
RMM:  14    -0.190347048665E+01   -0.22660E-05   -0.15185E-05 13790   0.363E-02
   1 F= -.19034705E+01 E0= -.19034705E+01  d E =0.000000E+00  mag=    -0.0001
