 running on   24 total cores
 distrk:  each k-point on   24 cores,    1 groups
 distr:  one band on    6 cores,    4 groups
 using from now: INCAR     
 vasp.6.1.2 22Jul20 (build Mar 31 2021 18:09:49) complex                        
  
 POSCAR found type information on POSCAR LiO 
 POSCAR found :  2 types and       8 ions
 scaLAPACK will be used
 -----------------------------------------------------------------------------
|                                                                             |
|               ----> ADVICE to this user running VASP <----                  |
|                                                                             |
|     You have a (more or less) 'small supercell' and for smaller cells       |
|     it is recommended to use the reciprocal-space projection scheme!        |
|     The real-space optimization is not efficient for small cells and it     |
|     is also less accurate ...                                               |
|     Therefore, set LREAL=.FALSE. in the INCAR file.                         |
|                                                                             |
 -----------------------------------------------------------------------------

 LDA part: xc-table for Pade appr. of Perdew
 generate k-points for:   12   12    4
 POSCAR, INCAR and KPOINTS ok, starting setup
 FFT: planning ...
 WAVECAR not read
 entering main loop
       N       E                     dE             d eps       ncg     rms          rms(c)
DAV:   1     0.254408089807E+03    0.25441E+03   -0.17318E+04 18368   0.137E+03
DAV:   2    -0.142145488617E+02   -0.26862E+03   -0.25821E+03 21876   0.347E+02
DAV:   3    -0.373957166739E+02   -0.23181E+02   -0.22984E+02 29496   0.851E+01
DAV:   4    -0.391441167422E+02   -0.17484E+01   -0.17409E+01 27412   0.216E+01
DAV:   5    -0.391907875369E+02   -0.46671E-01   -0.46667E-01 25900   0.318E+00    0.178E+01
RMM:   6    -0.380608289277E+02    0.11300E+01   -0.45555E+00 20515   0.109E+01    0.783E+00
RMM:   7    -0.386629210200E+02   -0.60209E+00   -0.68974E-01 23137   0.510E+00    0.389E+00
RMM:   8    -0.387389262023E+02   -0.76005E-01   -0.30228E-01 27378   0.315E+00    0.156E+00
RMM:   9    -0.387490097598E+02   -0.10084E-01   -0.99272E-02 28739   0.204E+00    0.386E-01
RMM:  10    -0.387583649006E+02   -0.93551E-02   -0.51915E-02 32444   0.116E+00    0.187E-01
RMM:  11    -0.387620739418E+02   -0.37090E-02   -0.19744E-02 33078   0.667E-01    0.127E-01
RMM:  12    -0.387633360897E+02   -0.12621E-02   -0.82257E-03 34240   0.402E-01    0.898E-02
RMM:  13    -0.387637433097E+02   -0.40722E-03   -0.31185E-03 32924   0.270E-01    0.350E-02
RMM:  14    -0.387639904233E+02   -0.24711E-03   -0.15498E-03 33389   0.188E-01    0.834E-03
RMM:  15    -0.387640758367E+02   -0.85413E-04   -0.70962E-04 31636   0.112E-01    0.904E-03
RMM:  16    -0.387641089540E+02   -0.33117E-04   -0.30109E-04 30554   0.737E-02    0.559E-03
RMM:  17    -0.387641217539E+02   -0.12800E-04   -0.11929E-04 28006   0.508E-02    0.298E-03
RMM:  18    -0.387641260326E+02   -0.42787E-05   -0.42898E-05 23952   0.373E-02
   1 F= -.38764126E+02 E0= -.38764126E+02  d E =0.000000E+00  mag=    -0.0000
