   16   16    1    2
  0.9661180E+01  0.4725550E-09  0.5296402E-09  0.6176136E-09  0.5000000E-15
  1.000000000000000E-004
  CAR 
 unknown system                          
     76     48     52
 
  0.0000000E+00  0.0000000E+00  0.0000000E+00  0.4761905E-02
    1      -40.965955    -40.966001   1.000000   1.000000
    2      -40.965127    -40.965172   1.000000   1.000000
    3      -40.642976    -40.643025   1.000000   1.000000
    4      -40.635090    -40.635139   1.000000   1.000000
    5      -40.632186    -40.632235   1.000000   1.000000
    6      -40.624045    -40.624094   1.000000   1.000000
    7      -18.518245    -18.518247   1.000000   1.000000
    8      -18.327773    -18.327776   1.000000   1.000000
    9      -15.877859    -15.877864   1.000000   1.000000
   10      -15.787893    -15.787898   1.000000   1.000000
   11      -15.727860    -15.727856   1.000000   1.000000
   12      -15.682265    -15.682263   1.000000   1.000000
   13      -15.636832    -15.636829   1.000000   1.000000
   14      -15.603499    -15.603497   1.000000   1.000000
   15       -5.398507     -5.398493   1.000000   1.000000
   16       -5.177631     -5.177618   1.000000   1.000000
   17       -3.541829     -3.541814   1.000000   1.000000
   18       -3.475385     -3.475367   1.000000   1.000000
   19       -3.299164     -3.299148   1.000000   1.000000
   20       -3.229021     -3.229004   1.000000   1.000000
   21       -3.060153     -3.060135   1.000000   1.000000
   22       -2.962532     -2.962518   1.000000   1.000000
   23       -1.086756     -1.086736   1.000000   1.000000
   24       -1.029609     -1.029593   1.000000   1.000000
   25       -1.016992     -1.016968   1.000000   1.000000
   26       -0.803066     -0.803053   1.000000   1.000000
   27       -0.582184     -0.582160   1.000000   1.000000
   28       -0.532120     -0.532100   1.000000   1.000000
   29       -0.531910     -0.531896   1.000000   1.000000
   30        0.255339      0.255351   1.000000   1.000000
   31        0.284806      0.284825   1.000000   1.000000
   32        0.484878      0.484891   1.000000   1.000000
   33        0.726395      0.726414   1.000000   1.000000
   34        0.901660      0.901684   1.000000   1.000000
   35        0.947460      0.947485   1.000000   1.000000
   36        0.985575      0.985598   1.000000   1.000000
   37        1.261693      1.261717   1.000000   1.000000
   38        1.294470      1.294492   1.000000   1.000000
   39        7.539885      7.539927   0.000000   0.000000
   40        9.778039      9.778108   0.000000   0.000000
   41       10.590308     10.590688   0.000000   0.000000
   42       10.652014     10.652767   0.000000   0.000000
   43       10.885025     10.884975   0.000000   0.000000
   44       11.122064     11.122059   0.000000   0.000000
   45       11.167918     11.167875   0.000000   0.000000
   46       11.934998     11.934587   0.000000   0.000000
   47       12.400885     12.404801   0.000000   0.000000
   48       12.715062     12.714948   0.000000   0.000000
   49       13.554838     13.599074   0.000000   0.000000
   50       13.827344     13.743681   0.000000   0.000000
   51       14.451728     14.427177   0.000000   0.000000
   52       14.502517     14.477955   0.000000   0.000000
 
  0.1428571E+00  0.0000000E+00  0.0000000E+00  0.9523810E-02
    1      -40.965870    -40.965915   1.000000   1.000000
    2      -40.965097    -40.965143   1.000000   1.000000
    3      -40.642461    -40.642510   1.000000   1.000000
    4      -40.634509    -40.634558   1.000000   1.000000
    5      -40.632757    -40.632806   1.000000   1.000000
    6      -40.624588    -40.624637   1.000000   1.000000
    7      -18.499412    -18.499414   1.000000   1.000000
    8      -18.325959    -18.325962   1.000000   1.000000
    9      -15.896301    -15.896305   1.000000   1.000000
   10      -15.813019    -15.813024   1.000000   1.000000
   11      -15.722737    -15.722734   1.000000   1.000000
   12      -15.681276    -15.681273   1.000000   1.000000
   13      -15.639993    -15.639990   1.000000   1.000000
   14      -15.610664    -15.610661   1.000000   1.000000
   15       -5.422346     -5.422332   1.000000   1.000000
   16       -5.183400     -5.183386   1.000000   1.000000
   17       -3.418585     -3.418567   1.000000   1.000000
   18       -3.401646     -3.401631   1.000000   1.000000
   19       -3.242294     -3.242279   1.000000   1.000000
   20       -3.199999     -3.199982   1.000000   1.000000
   21       -3.036357     -3.036340   1.000000   1.000000
   22       -2.959707     -2.959693   1.000000   1.000000
   23       -1.131317     -1.131297   1.000000   1.000000
   24       -1.110584     -1.110567   1.000000   1.000000
   25       -1.073866     -1.073842   1.000000   1.000000
   26       -0.878348     -0.878332   1.000000   1.000000
   27       -0.555878     -0.555864   1.000000   1.000000
   28       -0.501682     -0.501661   1.000000   1.000000
   29       -0.450993     -0.450973   1.000000   1.000000
   30        0.219279      0.219291   1.000000   1.000000
   31        0.247117      0.247136   1.000000   1.000000
   32        0.284905      0.284920   1.000000   1.000000
   33        0.769404      0.769423   1.000000   1.000000
   34        0.944584      0.944609   1.000000   1.000000
   35        1.009022      1.009044   1.000000   1.000000
   36        1.015542      1.015566   1.000000   1.000000
   37        1.210623      1.210645   1.000000   1.000000
   38        1.338044      1.338067   1.000000   1.000000
   39        7.726380      7.726421   0.000000   0.000000
   40        9.744136      9.744346   0.000000   0.000000
   41       10.178062     10.178110   0.000000   0.000000
   42       10.502961     10.502821   0.000000   0.000000
   43       10.973291     10.973248   0.000000   0.000000
   44       11.176825     11.176888   0.000000   0.000000
   45       11.402544     11.401421   0.000000   0.000000
   46       11.865817     11.865844   0.000000   0.000000
   47       12.442247     12.441136   0.000000   0.000000
   48       12.645120     12.645509   0.000000   0.000000
   49       13.389460     13.372109   0.000000   0.000000
   50       13.834345     13.713954   0.000000   0.000000
   51       14.121481     13.980167   0.000000   0.000000
   52       14.315408     14.198158   0.000000   0.000000
 
  0.2857143E+00  0.0000000E+00  0.0000000E+00  0.9523810E-02
    1      -40.965623    -40.965668   1.000000   1.000000
    2      -40.965085    -40.965130   1.000000   1.000000
    3      -40.640991    -40.641040   1.000000   1.000000
    4      -40.634249    -40.634298   1.000000   1.000000
    5      -40.632983    -40.633032   1.000000   1.000000
    6      -40.626130    -40.626179   1.000000   1.000000
    7      -18.450546    -18.450548   1.000000   1.000000
    8      -18.327563    -18.327566   1.000000   1.000000
    9      -15.934452    -15.934456   1.000000   1.000000
   10      -15.873175    -15.873179   1.000000   1.000000
   11      -15.707777    -15.707774   1.000000   1.000000
   12      -15.677548    -15.677546   1.000000   1.000000
   13      -15.648629    -15.648626   1.000000   1.000000
   14      -15.630298    -15.630295   1.000000   1.000000
   15       -5.445790     -5.445775   1.000000   1.000000
   16       -5.229610     -5.229596   1.000000   1.000000
   17       -3.308340     -3.308323   1.000000   1.000000
   18       -3.209819     -3.209802   1.000000   1.000000
   19       -3.125114     -3.125098   1.000000   1.000000
   20       -3.008154     -3.008140   1.000000   1.000000
   21       -2.958366     -2.958352   1.000000   1.000000
   22       -2.844414     -2.844404   1.000000   1.000000
   23       -1.249539     -1.249520   1.000000   1.000000
   24       -1.234940     -1.234920   1.000000   1.000000
   25       -1.181340     -1.181316   1.000000   1.000000
   26       -1.020301     -1.020282   1.000000   1.000000
   27       -0.659760     -0.659744   1.000000   1.000000
   28       -0.358001     -0.357983   1.000000   1.000000
   29       -0.292395     -0.292377   1.000000   1.000000
   30       -0.199363     -0.199344   1.000000   1.000000
   31        0.125569      0.125582   1.000000   1.000000
   32        0.154995      0.155014   1.000000   1.000000
   33        0.832753      0.832773   1.000000   1.000000
   34        1.081594      1.081616   1.000000   1.000000
   35        1.091665      1.091689   1.000000   1.000000
   36        1.115616      1.115638   1.000000   1.000000
   37        1.142606      1.142630   1.000000   1.000000
   38        1.388767      1.388790   1.000000   1.000000
   39        8.198474      8.198514   0.000000   0.000000
   40        9.468588      9.469095   0.000000   0.000000
   41        9.922944      9.923032   0.000000   0.000000
   42       10.342570     10.342393   0.000000   0.000000
   43       10.966669     10.966579   0.000000   0.000000
   44       11.247184     11.247668   0.000000   0.000000
   45       11.295659     11.295459   0.000000   0.000000
   46       11.699119     11.699198   0.000000   0.000000
   47       12.416661     12.417321   0.000000   0.000000
   48       12.599506     12.598895   0.000000   0.000000
   49       13.343373     13.279129   0.000000   0.000000
   50       13.381838     13.423510   0.000000   0.000000
   51       13.891862     13.725249   0.000000   0.000000
   52       14.313555     14.503137   0.000000   0.000000
 
  0.4285714E+00  0.0000000E+00  0.0000000E+00  0.9523810E-02
    1      -40.965341    -40.965387   1.000000   1.000000
    2      -40.965150    -40.965196   1.000000   1.000000
    3      -40.638851    -40.638900   1.000000   1.000000
    4      -40.636453    -40.636502   1.000000   1.000000
    5      -40.630744    -40.630793   1.000000   1.000000
    6      -40.628312    -40.628362   1.000000   1.000000
    7      -18.392009    -18.392011   1.000000   1.000000
    8      -18.347189    -18.347193   1.000000   1.000000
    9      -15.955122    -15.955126   1.000000   1.000000
   10      -15.932100    -15.932104   1.000000   1.000000
   11      -15.684738    -15.684735   1.000000   1.000000
   12      -15.670101    -15.670098   1.000000   1.000000
   13      -15.659625    -15.659622   1.000000   1.000000
   14      -15.657130    -15.657128   1.000000   1.000000
   15       -5.412210     -5.412195   1.000000   1.000000
   16       -5.323722     -5.323707   1.000000   1.000000
   17       -3.226044     -3.226026   1.000000   1.000000
   18       -3.186061     -3.186044   1.000000   1.000000
   19       -3.038287     -3.038272   1.000000   1.000000
   20       -2.978543     -2.978529   1.000000   1.000000
   21       -2.644632     -2.644624   1.000000   1.000000
   22       -2.550649     -2.550644   1.000000   1.000000
   23       -1.336745     -1.336725   1.000000   1.000000
   24       -1.326230     -1.326210   1.000000   1.000000
   25       -1.229832     -1.229810   1.000000   1.000000
   26       -1.157847     -1.157826   1.000000   1.000000
   27       -0.814665     -0.814646   1.000000   1.000000
   28       -0.715659     -0.715637   1.000000   1.000000
   29       -0.166004     -0.165987   1.000000   1.000000
   30       -0.125229     -0.125211   1.000000   1.000000
   31       -0.007425     -0.007411   1.000000   1.000000
   32        0.027997      0.028015   1.000000   1.000000
   33        0.904500      0.904522   1.000000   1.000000
   34        1.003575      1.003596   1.000000   1.000000
   35        1.172431      1.172454   1.000000   1.000000
   36        1.208794      1.208818   1.000000   1.000000
   37        1.269652      1.269675   1.000000   1.000000
   38        1.379219      1.379242   1.000000   1.000000
   39        8.740953      8.740992   0.000000   0.000000
   40        9.131300      9.131359   0.000000   0.000000
   41       10.022512     10.022408   0.000000   0.000000
   42       10.183492     10.183740   0.000000   0.000000
   43       10.759032     10.759101   0.000000   0.000000
   44       10.850536     10.850541   0.000000   0.000000
   45       11.408394     11.408163   0.000000   0.000000
   46       11.529469     11.529960   0.000000   0.000000
   47       12.439969     12.439744   0.000000   0.000000
   48       12.580758     12.580664   0.000000   0.000000
   49       13.147156     13.190507   0.000000   0.000000
   50       13.437681     13.370381   0.000000   0.000000
   51       13.507476     13.483938   0.000000   0.000000
   52       13.844577     13.900260   0.000000   0.000000
 
  0.0000000E+00  0.1666667E+00  0.0000000E+00  0.9523810E-02
    1      -40.965893    -40.965938   1.000000   1.000000
    2      -40.965105    -40.965151   1.000000   1.000000
    3      -40.643050    -40.643099   1.000000   1.000000
    4      -40.635017    -40.635066   1.000000   1.000000
    5      -40.632133    -40.632182   1.000000   1.000000
    6      -40.624075    -40.624124   1.000000   1.000000
    7      -18.508273    -18.508275   1.000000   1.000000
    8      -18.333609    -18.333612   1.000000   1.000000
    9      -15.873304    -15.873308   1.000000   1.000000
   10      -15.789502    -15.789506   1.000000   1.000000
   11      -15.721837    -15.721834   1.000000   1.000000
   12      -15.706283    -15.706280   1.000000   1.000000
   13      -15.627444    -15.627442   1.000000   1.000000
   14      -15.610444    -15.610442   1.000000   1.000000
   15       -5.378173     -5.378160   1.000000   1.000000
   16       -5.175813     -5.175799   1.000000   1.000000
   17       -3.533169     -3.533154   1.000000   1.000000
   18       -3.461539     -3.461521   1.000000   1.000000
   19       -3.282056     -3.282040   1.000000   1.000000
   20       -3.240574     -3.240557   1.000000   1.000000
   21       -3.018689     -3.018672   1.000000   1.000000
   22       -2.935026     -2.935013   1.000000   1.000000
   23       -1.151345     -1.151326   1.000000   1.000000
   24       -1.079153     -1.079131   1.000000   1.000000
   25       -0.972073     -0.972057   1.000000   1.000000
   26       -0.771910     -0.771892   1.000000   1.000000
   27       -0.678976     -0.678958   1.000000   1.000000
   28       -0.528303     -0.528283   1.000000   1.000000
   29       -0.337344     -0.337328   1.000000   1.000000
   30        0.065941      0.065954   1.000000   1.000000
   31        0.279828      0.279846   1.000000   1.000000
   32        0.442875      0.442889   1.000000   1.000000
   33        0.763944      0.763963   1.000000   1.000000
   34        0.847807      0.847831   1.000000   1.000000
   35        0.904184      0.904207   1.000000   1.000000
   36        1.036268      1.036292   1.000000   1.000000
   37        1.254226      1.254249   1.000000   1.000000
   38        1.322232      1.322254   1.000000   1.000000
   39        7.781277      7.781319   0.000000   0.000000
   40        9.631477      9.631506   0.000000   0.000000
   41       10.259565     10.259314   0.000000   0.000000
   42       10.571939     10.571692   0.000000   0.000000
   43       11.061705     11.061487   0.000000   0.000000
   44       11.307500     11.307521   0.000000   0.000000
   45       11.386270     11.385624   0.000000   0.000000
   46       11.874683     11.873380   0.000000   0.000000
   47       12.194936     12.192277   0.000000   0.000000
   48       12.568509     12.569021   0.000000   0.000000
   49       13.485080     13.456773   0.000000   0.000000
   50       13.628455     13.563746   0.000000   0.000000
   51       14.173677     14.142484   0.000000   0.000000
   52       14.463311     14.472451   0.000000   0.000000
 
  0.1428571E+00  0.1666667E+00  0.0000000E+00  0.1904762E-01
    1      -40.965795    -40.965841   1.000000   1.000000
    2      -40.965096    -40.965141   1.000000   1.000000
    3      -40.642525    -40.642574   1.000000   1.000000
    4      -40.634481    -40.634530   1.000000   1.000000
    5      -40.632688    -40.632738   1.000000   1.000000
    6      -40.624619    -40.624668   1.000000   1.000000
    7      -18.490060    -18.490062   1.000000   1.000000
    8      -18.330954    -18.330958   1.000000   1.000000
    9      -15.892214    -15.892218   1.000000   1.000000
   10      -15.814408    -15.814413   1.000000   1.000000
   11      -15.717292    -15.717289   1.000000   1.000000
   12      -15.703685    -15.703682   1.000000   1.000000
   13      -15.632360    -15.632358   1.000000   1.000000
   14      -15.616998    -15.616995   1.000000   1.000000
   15       -5.401355     -5.401341   1.000000   1.000000
   16       -5.185243     -5.185229   1.000000   1.000000
   17       -3.415961     -3.415944   1.000000   1.000000
   18       -3.365615     -3.365599   1.000000   1.000000
   19       -3.226953     -3.226937   1.000000   1.000000
   20       -3.216462     -3.216445   1.000000   1.000000
   21       -3.006451     -3.006436   1.000000   1.000000
   22       -2.934927     -2.934914   1.000000   1.000000
   23       -1.205838     -1.205818   1.000000   1.000000
   24       -1.106324     -1.106302   1.000000   1.000000
   25       -1.013423     -1.013406   1.000000   1.000000
   26       -0.826954     -0.826936   1.000000   1.000000
   27       -0.690767     -0.690750   1.000000   1.000000
   28       -0.465787     -0.465768   1.000000   1.000000
   29       -0.322766     -0.322750   1.000000   1.000000
   30       -0.001855     -0.001841   1.000000   1.000000
   31        0.241161      0.241180   1.000000   1.000000
   32        0.294525      0.294539   1.000000   1.000000
   33        0.793654      0.793673   1.000000   1.000000
   34        0.899046      0.899071   1.000000   1.000000
   35        0.944610      0.944633   1.000000   1.000000
   36        1.079163      1.079187   1.000000   1.000000
   37        1.246405      1.246427   1.000000   1.000000
   38        1.325924      1.325947   1.000000   1.000000
   39        7.946809      7.946850   0.000000   0.000000
   40        9.638041      9.638087   0.000000   0.000000
   41        9.893101      9.892913   0.000000   0.000000
   42       10.618651     10.618983   0.000000   0.000000
   43       11.060494     11.060465   0.000000   0.000000
   44       11.175908     11.175657   0.000000   0.000000
   45       11.492994     11.493464   0.000000   0.000000
   46       11.812334     11.811562   0.000000   0.000000
   47       12.282623     12.281196   0.000000   0.000000
   48       12.548631     12.547868   0.000000   0.000000
   49       13.284650     13.281949   0.000000   0.000000
   50       13.467104     13.438002   0.000000   0.000000
   51       13.954204     14.195293   0.000000   0.000000
   52       14.574325     14.487402   0.000000   0.000000
 
  0.2857143E+00  0.1666667E+00  0.0000000E+00  0.1904762E-01
    1      -40.965574    -40.965619   1.000000   1.000000
    2      -40.965074    -40.965120   1.000000   1.000000
    3      -40.641067    -40.641116   1.000000   1.000000
    4      -40.634237    -40.634286   1.000000   1.000000
    5      -40.632944    -40.632993   1.000000   1.000000
    6      -40.626125    -40.626174   1.000000   1.000000
    7      -18.443037    -18.443041   1.000000   1.000000
    8      -18.330152    -18.330156   1.000000   1.000000
    9      -15.931674    -15.931678   1.000000   1.000000
   10      -15.874173    -15.874178   1.000000   1.000000
   11      -15.704086    -15.704083   1.000000   1.000000
   12      -15.695218    -15.695215   1.000000   1.000000
   13      -15.645595    -15.645593   1.000000   1.000000
   14      -15.634820    -15.634818   1.000000   1.000000
   15       -5.426598     -5.426583   1.000000   1.000000
   16       -5.233435     -5.233420   1.000000   1.000000
   17       -3.289706     -3.289689   1.000000   1.000000
   18       -3.150841     -3.150825   1.000000   1.000000
   19       -3.150694     -3.150678   1.000000   1.000000
   20       -2.984498     -2.984485   1.000000   1.000000
   21       -2.944969     -2.944955   1.000000   1.000000
   22       -2.861911     -2.861901   1.000000   1.000000
   23       -1.293878     -1.293857   1.000000   1.000000
   24       -1.162185     -1.162162   1.000000   1.000000
   25       -1.120984     -1.120966   1.000000   1.000000
   26       -0.963388     -0.963370   1.000000   1.000000
   27       -0.742613     -0.742596   1.000000   1.000000
   28       -0.351368     -0.351350   1.000000   1.000000
   29       -0.324511     -0.324493   1.000000   1.000000
   30       -0.261295     -0.261277   1.000000   1.000000
   31        0.070054      0.070069   1.000000   1.000000
   32        0.142481      0.142499   1.000000   1.000000
   33        0.842216      0.842236   1.000000   1.000000
   34        1.037064      1.037087   1.000000   1.000000
   35        1.039343      1.039366   1.000000   1.000000
   36        1.169354      1.169378   1.000000   1.000000
   37        1.187842      1.187864   1.000000   1.000000
   38        1.363286      1.363309   1.000000   1.000000
   39        8.368427      8.368470   0.000000   0.000000
   40        9.416236      9.416505   0.000000   0.000000
   41        9.708167      9.708214   0.000000   0.000000
   42       10.538307     10.538584   0.000000   0.000000
   43       10.909212     10.909229   0.000000   0.000000
   44       11.067901     11.067665   0.000000   0.000000
   45       11.304574     11.304770   0.000000   0.000000
   46       11.618234     11.618064   0.000000   0.000000
   47       12.324542     12.325215   0.000000   0.000000
   48       12.621015     12.621981   0.000000   0.000000
   49       13.108961     13.125237   0.000000   0.000000
   50       13.431265     13.415531   0.000000   0.000000
   51       13.558472     13.551991   0.000000   0.000000
   52       14.377538     14.533171   0.000000   0.000000
 
  0.4285714E+00  0.1666667E+00  0.0000000E+00  0.1904762E-01
    1      -40.965309    -40.965355   1.000000   1.000000
    2      -40.965145    -40.965191   1.000000   1.000000
    3      -40.638895    -40.638944   1.000000   1.000000
    4      -40.636485    -40.636534   1.000000   1.000000
    5      -40.630740    -40.630790   1.000000   1.000000
    6      -40.628307    -40.628356   1.000000   1.000000
    7      -18.387463    -18.387467   1.000000   1.000000
    8      -18.346342    -18.346345   1.000000   1.000000
    9      -15.953941    -15.953945   1.000000   1.000000
   10      -15.932352    -15.932355   1.000000   1.000000
   11      -15.683666    -15.683663   1.000000   1.000000
   12      -15.681120    -15.681117   1.000000   1.000000
   13      -15.663326    -15.663323   1.000000   1.000000
   14      -15.658924    -15.658921   1.000000   1.000000
   15       -5.399768     -5.399753   1.000000   1.000000
   16       -5.321014     -5.320999   1.000000   1.000000
   17       -3.198704     -3.198687   1.000000   1.000000
   18       -3.138351     -3.138334   1.000000   1.000000
   19       -3.063533     -3.063517   1.000000   1.000000
   20       -2.986532     -2.986517   1.000000   1.000000
   21       -2.633249     -2.633241   1.000000   1.000000
   22       -2.557704     -2.557699   1.000000   1.000000
   23       -1.315930     -1.315910   1.000000   1.000000
   24       -1.244211     -1.244192   1.000000   1.000000
   25       -1.178831     -1.178809   1.000000   1.000000
   26       -1.109644     -1.109624   1.000000   1.000000
   27       -0.859693     -0.859673   1.000000   1.000000
   28       -0.770819     -0.770797   1.000000   1.000000
   29       -0.196602     -0.196585   1.000000   1.000000
   30       -0.158253     -0.158235   1.000000   1.000000
   31       -0.073506     -0.073490   1.000000   1.000000
   32        0.004169      0.004187   1.000000   1.000000
   33        0.919085      0.919106   1.000000   1.000000
   34        1.021155      1.021177   1.000000   1.000000
   35        1.149065      1.149088   1.000000   1.000000
   36        1.207405      1.207428   1.000000   1.000000
   37        1.261765      1.261788   1.000000   1.000000
   38        1.357569      1.357593   1.000000   1.000000
   39        8.835014      8.835047   0.000000   0.000000
   40        9.133463      9.133523   0.000000   0.000000
   41        9.905314      9.905473   0.000000   0.000000
   42       10.298529     10.298321   0.000000   0.000000
   43       10.682627     10.682752   0.000000   0.000000
   44       10.847831     10.847961   0.000000   0.000000
   45       11.146778     11.146784   0.000000   0.000000
   46       11.350823     11.351090   0.000000   0.000000
   47       12.424859     12.428739   0.000000   0.000000
   48       12.702294     12.702994   0.000000   0.000000
   49       13.086220     13.070220   0.000000   0.000000
   50       13.439426     13.513820   0.000000   0.000000
   51       13.610804     13.690988   0.000000   0.000000
   52       13.997465     14.286912   0.000000   0.000000
 
  0.0000000E+00  0.3333333E+00  0.0000000E+00  0.9523810E-02
    1      -40.965762    -40.965808   1.000000   1.000000
    2      -40.965170    -40.965216   1.000000   1.000000
    3      -40.643181    -40.643230   1.000000   1.000000
    4      -40.635015    -40.635064   1.000000   1.000000
    5      -40.632075    -40.632124   1.000000   1.000000
    6      -40.624179    -40.624228   1.000000   1.000000
    7      -18.485478    -18.485480   1.000000   1.000000
    8      -18.348298    -18.348301   1.000000   1.000000
    9      -15.863375    -15.863380   1.000000   1.000000
   10      -15.791893    -15.791898   1.000000   1.000000
   11      -15.742950    -15.742947   1.000000   1.000000
   12      -15.706825    -15.706822   1.000000   1.000000
   13      -15.627584    -15.627581   1.000000   1.000000
   14      -15.622442    -15.622439   1.000000   1.000000
   15       -5.321371     -5.321357   1.000000   1.000000
   16       -5.192793     -5.192779   1.000000   1.000000
   17       -3.530101     -3.530086   1.000000   1.000000
   18       -3.423739     -3.423721   1.000000   1.000000
   19       -3.256333     -3.256315   1.000000   1.000000
   20       -3.237071     -3.237053   1.000000   1.000000
   21       -2.922478     -2.922465   1.000000   1.000000
   22       -2.888191     -2.888179   1.000000   1.000000
   23       -1.177036     -1.177016   1.000000   1.000000
   24       -1.085845     -1.085824   1.000000   1.000000
   25       -0.998082     -0.998064   1.000000   1.000000
   26       -0.854800     -0.854778   1.000000   1.000000
   27       -0.619032     -0.619015   1.000000   1.000000
   28       -0.466589     -0.466570   1.000000   1.000000
   29       -0.342615     -0.342600   1.000000   1.000000
   30       -0.123818     -0.123803   1.000000   1.000000
   31        0.256013      0.256030   1.000000   1.000000
   32        0.329470      0.329484   1.000000   1.000000
   33        0.757182      0.757206   1.000000   1.000000
   34        0.860514      0.860536   1.000000   1.000000
   35        0.864965      0.864985   1.000000   1.000000
   36        1.098308      1.098332   1.000000   1.000000
   37        1.154496      1.154519   1.000000   1.000000
   38        1.418110      1.418133   1.000000   1.000000
   39        8.394050      8.394090   0.000000   0.000000
   40        9.339896      9.340004   0.000000   0.000000
   41        9.830371      9.830421   0.000000   0.000000
   42       10.455137     10.455193   0.000000   0.000000
   43       10.941070     10.941099   0.000000   0.000000
   44       11.720722     11.720932   0.000000   0.000000
   45       11.725403     11.725659   0.000000   0.000000
   46       11.738495     11.738330   0.000000   0.000000
   47       12.002037     12.000129   0.000000   0.000000
   48       12.570020     12.570371   0.000000   0.000000
   49       13.148495     13.149254   0.000000   0.000000
   50       13.190264     13.193760   0.000000   0.000000
   51       14.001410     14.026333   0.000000   0.000000
   52       14.300504     14.282665   0.000000   0.000000
 
  0.1428571E+00  0.3333333E+00  0.0000000E+00  0.1904762E-01
    1      -40.965678    -40.965723   1.000000   1.000000
    2      -40.965130    -40.965176   1.000000   1.000000
    3      -40.642658    -40.642707   1.000000   1.000000
    4      -40.634455    -40.634504   1.000000   1.000000
    5      -40.632636    -40.632686   1.000000   1.000000
    6      -40.624691    -40.624740   1.000000   1.000000
    7      -18.468689    -18.468692   1.000000   1.000000
    8      -18.343750    -18.343753   1.000000   1.000000
    9      -15.883744    -15.883748   1.000000   1.000000
   10      -15.816402    -15.816407   1.000000   1.000000
   11      -15.737755    -15.737752   1.000000   1.000000
   12      -15.703796    -15.703793   1.000000   1.000000
   13      -15.632442    -15.632440   1.000000   1.000000
   14      -15.629334    -15.629332   1.000000   1.000000
   15       -5.343452     -5.343438   1.000000   1.000000
   16       -5.209564     -5.209550   1.000000   1.000000
   17       -3.404699     -3.404684   1.000000   1.000000
   18       -3.303289     -3.303273   1.000000   1.000000
   19       -3.239589     -3.239571   1.000000   1.000000
   20       -3.195634     -3.195617   1.000000   1.000000
   21       -2.919021     -2.919008   1.000000   1.000000
   22       -2.897194     -2.897182   1.000000   1.000000
   23       -1.210422     -1.210402   1.000000   1.000000
   24       -1.095607     -1.095585   1.000000   1.000000
   25       -0.993014     -0.992997   1.000000   1.000000
   26       -0.869721     -0.869700   1.000000   1.000000
   27       -0.662599     -0.662581   1.000000   1.000000
   28       -0.449083     -0.449064   1.000000   1.000000
   29       -0.411710     -0.411695   1.000000   1.000000
   30       -0.146862     -0.146847   1.000000   1.000000
   31        0.214073      0.214090   1.000000   1.000000
   32        0.218032      0.218047   1.000000   1.000000
   33        0.784311      0.784335   1.000000   1.000000
   34        0.893107      0.893129   1.000000   1.000000
   35        0.913789      0.913810   1.000000   1.000000