 running on   12 total cores
 distrk:  each k-point on   12 cores,    1 groups
 distr:  one band on    6 cores,    2 groups
 using from now: INCAR     
 vasp.6.1.2 22Jul20 (build Mar 20 2021 11:25:07) complex                        
  
 POSCAR found type information on POSCAR LiP O 
 POSCAR found :  3 types and      16 ions
 scaLAPACK will be used
 LDA part: xc-table for Pade appr. of Perdew
 generate k-points for:    7    6    5
 POSCAR, INCAR and KPOINTS ok, starting setup
 FFT: planning ...
 WAVECAR not read
 entering main loop
       N       E                     dE             d eps       ncg     rms          rms(c)
DAV:   1     0.632640656128E+03    0.63264E+03   -0.37242E+04  9984   0.154E+03
DAV:   2    -0.429646962634E+02   -0.67561E+03   -0.64075E+03 11576   0.402E+02
DAV:   3    -0.102893366178E+03   -0.59929E+02   -0.59631E+02 13928   0.114E+02
DAV:   4    -0.108576121965E+03   -0.56828E+01   -0.56579E+01 17424   0.290E+01
DAV:   5    -0.109079532979E+03   -0.50341E+00   -0.50330E+00 14064   0.594E+00    0.389E+01
RMM:   6    -0.989563892268E+02    0.10123E+02   -0.42310E+01 11043   0.246E+01    0.162E+01
RMM:   7    -0.100040631403E+03   -0.10842E+01   -0.51659E+00 14397   0.906E+00    0.836E+00
RMM:   8    -0.100282429264E+03   -0.24180E+00   -0.11144E+00 16563   0.469E+00    0.397E+00
RMM:   9    -0.100352315231E+03   -0.69886E-01   -0.43066E-01 16672   0.326E+00    0.112E+00
RMM:  10    -0.100391235585E+03   -0.38920E-01   -0.28807E-01 18830   0.194E+00    0.379E-01
RMM:  11    -0.100408464156E+03   -0.17229E-01   -0.13269E-01 19322   0.121E+00    0.312E-01
RMM:  12    -0.100415636967E+03   -0.71728E-02   -0.50831E-02 19360   0.758E-01    0.192E-01
RMM:  13    -0.100418121057E+03   -0.24841E-02   -0.19336E-02 19018   0.507E-01    0.899E-02
RMM:  14    -0.100419307331E+03   -0.11863E-02   -0.10126E-02 19099   0.354E-01    0.373E-02
RMM:  15    -0.100419741467E+03   -0.43414E-03   -0.41441E-03 18752   0.224E-01    0.319E-02
RMM:  16    -0.100419946213E+03   -0.20475E-03   -0.20448E-03 18618   0.151E-01    0.190E-02
RMM:  17    -0.100420019263E+03   -0.73050E-04   -0.78353E-04 18057   0.104E-01    0.988E-03
RMM:  18    -0.100420067972E+03   -0.48709E-04   -0.44788E-04 17795   0.727E-02    0.879E-03
RMM:  19    -0.100420084850E+03   -0.16878E-04   -0.17650E-04 16993   0.503E-02    0.583E-03
RMM:  20    -0.100420082900E+03    0.19501E-05   -0.43424E-05 12463   0.369E-02
   1 F= -.10042008E+03 E0= -.10042008E+03  d E =0.000000E+00  mag=     0.0000
