   26   26    1    2
  0.1223376E+02  0.5369307E-09  0.7379607E-09  0.8847361E-09  0.5000000E-15
  1.000000000000000E-004
  CAR 
 unknown system                          
    128     62     88
 
  0.0000000E+00  0.0000000E+00  0.0000000E+00  0.8333333E-02
    1      -42.535388    -42.535469   1.000000   1.000000
    2      -42.534952    -42.535033   1.000000   1.000000
    3      -42.449440    -42.449523   1.000000   1.000000
    4      -42.449224    -42.449306   1.000000   1.000000
    5      -42.379028    -42.379114   1.000000   1.000000
    6      -42.368635    -42.368721   1.000000   1.000000
    7      -42.366223    -42.366311   1.000000   1.000000
    8      -42.366132    -42.366220   1.000000   1.000000
    9      -19.974219    -19.974234   1.000000   1.000000
   10      -19.920496    -19.920511   1.000000   1.000000
   11      -18.835967    -18.835990   1.000000   1.000000
   12      -18.812413    -18.812437   1.000000   1.000000
   13      -17.676141    -17.676177   1.000000   1.000000
   14      -17.616306    -17.616342   1.000000   1.000000
   15      -17.135742    -17.135796   1.000000   1.000000
   16      -17.111008    -17.111062   1.000000   1.000000
   17      -16.956545    -16.956591   1.000000   1.000000
   18      -16.946262    -16.946309   1.000000   1.000000
   19      -16.875338    -16.875388   1.000000   1.000000
   20      -16.861299    -16.861350   1.000000   1.000000
   21      -16.807413    -16.807456   1.000000   1.000000
   22      -16.804278    -16.804321   1.000000   1.000000
   23       -8.793746     -8.793745   1.000000   1.000000
   24       -8.793146     -8.793145   1.000000   1.000000
   25       -6.547875     -6.547864   1.000000   1.000000
   26       -6.206469     -6.206459   1.000000   1.000000
   27       -5.376623     -5.376618   1.000000   1.000000
   28       -5.274397     -5.274391   1.000000   1.000000
   29       -4.813050     -4.813046   1.000000   1.000000
   30       -4.609573     -4.609570   1.000000   1.000000
   31       -4.503197     -4.503199   1.000000   1.000000
   32       -4.493726     -4.493728   1.000000   1.000000
   33       -4.135740     -4.135745   1.000000   1.000000
   34       -4.093723     -4.093724   1.000000   1.000000
   35       -4.034921     -4.034924   1.000000   1.000000
   36       -3.853595     -3.853597   1.000000   1.000000
   37       -3.430688     -3.430695   1.000000   1.000000
   38       -3.141400     -3.141410   1.000000   1.000000
   39       -2.616119     -2.616144   1.000000   1.000000
   40       -2.377215     -2.377242   1.000000   1.000000
   41       -2.346778     -2.346807   1.000000   1.000000
   42       -2.105775     -2.105803   1.000000   1.000000
   43       -2.072451     -2.072473   1.000000   1.000000
   44       -1.929249     -1.929280   1.000000   1.000000
   45       -1.822614     -1.822651   1.000000   1.000000
   46       -1.772796     -1.772832   1.000000   1.000000
   47       -1.695414     -1.695445   1.000000   1.000000
   48       -1.502912     -1.502946   1.000000   1.000000
   49       -1.392274     -1.392311   1.000000   1.000000
   50       -1.378797     -1.378828   1.000000   1.000000
   51       -1.365043     -1.365078   1.000000   1.000000
   52       -1.086133     -1.086174   1.000000   1.000000
   53       -0.977425     -0.977474   1.000000   1.000000
   54       -0.795168     -0.795216   1.000000   1.000000
   55       -0.633824     -0.633874   1.000000   1.000000
   56       -0.629231     -0.629283   1.000000   1.000000
   57       -0.509955     -0.510000   1.000000   1.000000
   58       -0.486808     -0.486853   1.000000   1.000000
   59       -0.471729     -0.471775   1.000000   1.000000
   60       -0.346844     -0.346886   1.000000   1.000000
   61       -0.275235     -0.275280   1.000000   1.000000
   62       -0.199598     -0.199652   1.000000   1.000000
   63       -0.004187     -0.004242   1.000000   1.000000
   64        0.002032      0.001983   1.000000   1.000000
   65        5.203760      5.203752   0.000000   0.000000
   66        7.100363      7.100350   0.000000   0.000000
   67        7.577378      7.577364   0.000000   0.000000
   68        7.762494      7.762512   0.000000   0.000000
   69        7.988684      7.988719   0.000000   0.000000
   70        8.094689      8.094711   0.000000   0.000000
   71        8.178853      8.178877   0.000000   0.000000
   72        8.597124      8.597130   0.000000   0.000000
   73        8.612078      8.612087   0.000000   0.000000
   74        8.874204      8.874225   0.000000   0.000000
   75        9.000505      9.000521   0.000000   0.000000
   76        9.335027      9.335066   0.000000   0.000000
   77        9.546359      9.546369   0.000000   0.000000
   78        9.554140      9.554160   0.000000   0.000000
   79        9.780843      9.780832   0.000000   0.000000
   80        9.892963      9.892996   0.000000   0.000000
   81        9.952865      9.952874   0.000000   0.000000
   82       10.144582     10.144594   0.000000   0.000000
   83       10.351201     10.351229   0.000000   0.000000
   84       10.479207     10.479199   0.000000   0.000000
   85       10.644968     10.644953   0.000000   0.000000
   86       10.706234     10.706236   0.000000   0.000000
   87       11.012398     11.006225   0.000000   0.000000
   88       11.180923     11.160515   0.000000   0.000000
 
  0.1666667E+00 -0.2176042E-16 -0.2401083E-14  0.1666667E-01
    1      -42.535395    -42.535476   1.000000   1.000000
    2      -42.534970    -42.535051   1.000000   1.000000
    3      -42.449434    -42.449516   1.000000   1.000000
    4      -42.449211    -42.449294   1.000000   1.000000
    5      -42.378958    -42.379044   1.000000   1.000000
    6      -42.368972    -42.369057   1.000000   1.000000
    7      -42.366338    -42.366426   1.000000   1.000000
    8      -42.365862    -42.365949   1.000000   1.000000
    9      -19.967790    -19.967805   1.000000   1.000000
   10      -19.921069    -19.921084   1.000000   1.000000
   11      -18.834632    -18.834655   1.000000   1.000000
   12      -18.813535    -18.813558   1.000000   1.000000
   13      -17.668705    -17.668741   1.000000   1.000000
   14      -17.617115    -17.617152   1.000000   1.000000
   15      -17.133137    -17.133190   1.000000   1.000000
   16      -17.110439    -17.110493   1.000000   1.000000
   17      -16.965044    -16.965091   1.000000   1.000000
   18      -16.953361    -16.953407   1.000000   1.000000
   19      -16.877354    -16.877404   1.000000   1.000000
   20      -16.864215    -16.864266   1.000000   1.000000
   21      -16.812311    -16.812354   1.000000   1.000000
   22      -16.809304    -16.809348   1.000000   1.000000
   23       -8.809946     -8.809944   1.000000   1.000000
   24       -8.791243     -8.791242   1.000000   1.000000
   25       -6.525294     -6.525283   1.000000   1.000000
   26       -6.205778     -6.205768   1.000000   1.000000
   27       -5.363659     -5.363655   1.000000   1.000000
   28       -5.263019     -5.263014   1.000000   1.000000
   29       -4.793655     -4.793651   1.000000   1.000000
   30       -4.602214     -4.602211   1.000000   1.000000
   31       -4.475198     -4.475201   1.000000   1.000000
   32       -4.447529     -4.447531   1.000000   1.000000
   33       -4.115648     -4.115649   1.000000   1.000000
   34       -4.062824     -4.062827   1.000000   1.000000
   35       -3.970478     -3.970482   1.000000   1.000000
   36       -3.835601     -3.835602   1.000000   1.000000
   37       -3.412556     -3.412564   1.000000   1.000000
   38       -3.105737     -3.105747   1.000000   1.000000
   39       -2.584026     -2.584052   1.000000   1.000000
   40       -2.419372     -2.419398   1.000000   1.000000
   41       -2.345178     -2.345206   1.000000   1.000000
   42       -2.179642     -2.179668   1.000000   1.000000
   43       -2.090601     -2.090626   1.000000   1.000000
   44       -1.915966     -1.915997   1.000000   1.000000
   45       -1.860287     -1.860321   1.000000   1.000000
   46       -1.744252     -1.744289   1.000000   1.000000
   47       -1.681685     -1.681714   1.000000   1.000000
   48       -1.550232     -1.550268   1.000000   1.000000
   49       -1.503745     -1.503781   1.000000   1.000000
   50       -1.439347     -1.439380   1.000000   1.000000
   51       -1.403908     -1.403937   1.000000   1.000000
   52       -1.131509     -1.131550   1.000000   1.000000
   53       -0.948672     -0.948721   1.000000   1.000000
   54       -0.815726     -0.815775   1.000000   1.000000
   55       -0.660150     -0.660201   1.000000   1.000000
   56       -0.640115     -0.640165   1.000000   1.000000
   57       -0.541740     -0.541785   1.000000   1.000000
   58       -0.528496     -0.528542   1.000000   1.000000
   59       -0.423388     -0.423435   1.000000   1.000000
   60       -0.353246     -0.353290   1.000000   1.000000
   61       -0.258950     -0.258995   1.000000   1.000000
   62       -0.192986     -0.193040   1.000000   1.000000
   63       -0.011989     -0.012041   1.000000   1.000000
   64        0.014044      0.013994   1.000000   1.000000
   65        5.461724      5.461715   0.000000   0.000000
   66        7.068947      7.068936   0.000000   0.000000
   67        7.594336      7.594329   0.000000   0.000000
   68        7.724746      7.724751   0.000000   0.000000
   69        7.954802      7.954833   0.000000   0.000000
   70        8.046216      8.046244   0.000000   0.000000
   71        8.319438      8.319455   0.000000   0.000000
   72        8.533398      8.533402   0.000000   0.000000
   73        8.634787      8.634798   0.000000   0.000000
   74        8.916894      8.916915   0.000000   0.000000
   75        8.970944      8.970961   0.000000   0.000000
   76        9.294684      9.294719   0.000000   0.000000
   77        9.365551      9.365571   0.000000   0.000000
   78        9.523959      9.523968   0.000000   0.000000
   79        9.629240      9.629253   0.000000   0.000000
   80        9.757965      9.757960   0.000000   0.000000
   81        9.810869      9.810879   0.000000   0.000000
   82        9.977938      9.977955   0.000000   0.000000
   83       10.122109     10.122115   0.000000   0.000000
   84       10.378373     10.378392   0.000000   0.000000
   85       10.687097     10.687131   0.000000   0.000000
   86       10.834306     10.834279   0.000000   0.000000
   87       10.879832     10.879893   0.000000   0.000000
   88       11.304032     11.280111   0.000000   0.000000
 
  0.3333333E+00 -0.5319901E-16 -0.4804991E-14  0.1666667E-01
    1      -42.535376    -42.535457   1.000000   1.000000
    2      -42.534957    -42.535038   1.000000   1.000000
    3      -42.449372    -42.449454   1.000000   1.000000
    4      -42.449166    -42.449248   1.000000   1.000000
    5      -42.378771    -42.378857   1.000000   1.000000
    6      -42.369526    -42.369612   1.000000   1.000000
    7      -42.366390    -42.366478   1.000000   1.000000
    8      -42.365505    -42.365592   1.000000   1.000000
    9      -19.952397    -19.952412   1.000000   1.000000
   10      -19.924603    -19.924618   1.000000   1.000000
   11      -18.831788    -18.831811   1.000000   1.000000
   12      -18.815862    -18.815886   1.000000   1.000000
   13      -17.650869    -17.650905   1.000000   1.000000
   14      -17.621123    -17.621160   1.000000   1.000000
   15      -17.127030    -17.127083   1.000000   1.000000
   16      -17.109228    -17.109282   1.000000   1.000000
   17      -16.982088    -16.982135   1.000000   1.000000
   18      -16.968390    -16.968436   1.000000   1.000000
   19      -16.880500    -16.880551   1.000000   1.000000
   20      -16.871106    -16.871157   1.000000   1.000000
   21      -16.823588    -16.823632   1.000000   1.000000
   22      -16.817193    -16.817236   1.000000   1.000000
   23       -8.828378     -8.828376   1.000000   1.000000
   24       -8.801430     -8.801429   1.000000   1.000000
   25       -6.479565     -6.479556   1.000000   1.000000
   26       -6.203919     -6.203910   1.000000   1.000000
   27       -5.331916     -5.331912   1.000000   1.000000
   28       -5.250075     -5.250070   1.000000   1.000000
   29       -4.752710     -4.752706   1.000000   1.000000
   30       -4.591775     -4.591770   1.000000   1.000000
   31       -4.388605     -4.388608   1.000000   1.000000
   32       -4.361195     -4.361196   1.000000   1.000000
   33       -4.152630     -4.152630   1.000000   1.000000
   34       -3.907094     -3.907097   1.000000   1.000000
   35       -3.861459     -3.861461   1.000000   1.000000
   36       -3.765869     -3.765870   1.000000   1.000000
   37       -3.369167     -3.369176   1.000000   1.000000
   38       -3.039640     -3.039650   1.000000   1.000000
   39       -2.567102     -2.567128   1.000000   1.000000
   40       -2.426774     -2.426800   1.000000   1.000000
   41       -2.360355     -2.360382   1.000000   1.000000
   42       -2.264966     -2.264992   1.000000   1.000000
   43       -2.121464     -2.121492   1.000000   1.000000
   44       -1.987794     -1.987824   1.000000   1.000000
   45       -1.896924     -1.896956   1.000000   1.000000
   46       -1.853067     -1.853100   1.000000   1.000000
   47       -1.783580     -1.783617   1.000000   1.000000
   48       -1.638169     -1.638202   1.000000   1.000000
   49       -1.549424     -1.549451   1.000000   1.000000
   50       -1.510560     -1.510588   1.000000   1.000000
   51       -1.456651     -1.456685   1.000000   1.000000
   52       -1.229513     -1.229554   1.000000   1.000000
   53       -0.920957     -0.921006   1.000000   1.000000
   54       -0.842249     -0.842298   1.000000   1.000000
   55       -0.731964     -0.732014   1.000000   1.000000
   56       -0.665655     -0.665705   1.000000   1.000000
   57       -0.584855     -0.584901   1.000000   1.000000
   58       -0.558686     -0.558733   1.000000   1.000000
   59       -0.413881     -0.413929   1.000000   1.000000
   60       -0.346020     -0.346067   1.000000   1.000000
   61       -0.216266     -0.216315   1.000000   1.000000
   62       -0.179773     -0.179826   1.000000   1.000000
   63       -0.008002     -0.008054   1.000000   1.000000
   64        0.022679      0.022628   0.999999   1.000000
   65        6.086544      6.086533   0.000000   0.000000
   66        7.041502      7.041492   0.000000   0.000000
   67        7.607092      7.607092   0.000000   0.000000
   68        7.697078      7.697078   0.000000   0.000000
   69        7.942477      7.942501   0.000000   0.000000
   70        8.067031      8.067055   0.000000   0.000000
   71        8.319853      8.319853   0.000000   0.000000
   72        8.442019      8.442027   0.000000   0.000000
   73        8.621719      8.621734   0.000000   0.000000
   74        8.695299      8.695309   0.000000   0.000000
   75        8.862631      8.862646   0.000000   0.000000
   76        8.951213      8.951235   0.000000   0.000000
   77        9.147092      9.147098   0.000000   0.000000
   78        9.446440      9.446462   0.000000   0.000000
   79        9.517241      9.517255   0.000000   0.000000
   80        9.594909      9.594926   0.000000   0.000000
   81        9.645954      9.645969   0.000000   0.000000
   82        9.764468      9.764467   0.000000   0.000000
   83       10.100496     10.100511   0.000000   0.000000
   84       10.258604     10.258621   0.000000   0.000000
   85       10.689481     10.689507   0.000000   0.000000
   86       10.800910     10.800944   0.000000   0.000000
   87       11.187486     11.190483   0.000000   0.000000
   88       11.359910     11.352458   0.000000   0.000000
 
  0.5000000E+00  0.5237209E-16  0.6938101E-14  0.8333333E-02
    1      -42.535370    -42.535451   1.000000   1.000000
    2      -42.534969    -42.535050   1.000000   1.000000
    3      -42.449352    -42.449434   1.000000   1.000000
    4      -42.449151    -42.449234   1.000000   1.000000
    5      -42.378677    -42.378762   1.000000   1.000000
    6      -42.369799    -42.369885   1.000000   1.000000
    7      -42.366421    -42.366509   1.000000   1.000000
    8      -42.365369    -42.365456   1.000000   1.000000
    9      -19.939613    -19.939628   1.000000   1.000000
   10      -19.931494    -19.931509   1.000000   1.000000
   11      -18.830276    -18.830299   1.000000   1.000000
   12      -18.817197    -18.817220   1.000000   1.000000
   13      -17.634945    -17.634982   1.000000   1.000000
   14      -17.630032    -17.630069   1.000000   1.000000
   15      -17.123493    -17.123547   1.000000   1.000000
   16      -17.108749    -17.108803   1.000000   1.000000
   17      -16.990845    -16.990891   1.000000   1.000000
   18      -16.976328    -16.976374   1.000000   1.000000
   19      -16.880581    -16.880632   1.000000   1.000000
   20      -16.876370    -16.876420   1.000000   1.000000
   21      -16.829788    -16.829832   1.000000   1.000000
   22      -16.820376    -16.820420   1.000000   1.000000
   23       -8.835959     -8.835958   1.000000   1.000000
   24       -8.808268     -8.808267   1.000000   1.000000
   25       -6.456126     -6.456117   1.000000   1.000000
   26       -6.203392     -6.203383   1.000000   1.000000
   27       -5.312120     -5.312117   1.000000   1.000000
   28       -5.249113     -5.249109   1.000000   1.000000
   29       -4.731339     -4.731335   1.000000   1.000000
   30       -4.587601     -4.587597   1.000000   1.000000
   31       -4.326638     -4.326639   1.000000   1.000000
   32       -4.317605     -4.317607   1.000000   1.000000
   33       -4.178355     -4.178355   1.000000   1.000000
   34       -3.854611     -3.854612   1.000000   1.000000
   35       -3.794971     -3.794972   1.000000   1.000000
   36       -3.696058     -3.696060   1.000000   1.000000
   37       -3.341706     -3.341715   1.000000   1.000000
   38       -3.012020     -3.012030   1.000000   1.000000
   39       -2.586644     -2.586669   1.000000   1.000000
   40       -2.392248     -2.392274   1.000000   1.000000
   41       -2.331738     -2.331766   1.000000   1.000000
   42       -2.328905     -2.328930   1.000000   1.000000
   43       -2.168204     -2.168234   1.000000   1.000000
   44       -2.029533     -2.029563   1.000000   1.000000
   45       -1.974418     -1.974452   1.000000   1.000000
   46       -1.937198     -1.937227   1.000000   1.000000
   47       -1.823233     -1.823270   1.000000   1.000000
   48       -1.677094     -1.677128   1.000000   1.000000
   49       -1.555610     -1.555634   1.000000   1.000000
   50       -1.551569     -1.551591   1.000000   1.000000
   51       -1.390191     -1.390230   1.000000   1.000000
   52       -1.323104     -1.323144   1.000000   1.000000
   53       -0.929256     -0.929306   1.000000   1.000000
   54       -0.837793     -0.837843   1.000000   1.000000
   55       -0.769944     -0.769995   1.000000   1.000000
   56       -0.682932     -0.682982   1.000000   1.000000
   57       -0.589410     -0.589458   1.000000   1.000000
   58       -0.580812     -0.580858   1.000000   1.000000
   59       -0.420969     -0.421016   1.000000   1.000000
   60       -0.330452     -0.330500   1.000000   1.000000
   61       -0.193304     -0.193355   1.000000   1.000000
   62       -0.182651     -0.182706   1.000000   1.000000
   63        0.012901      0.012850   1.000000   1.000000
   64        0.013525      0.013476   1.000000   1.000000
   65        6.615247      6.615233   0.000000   0.000000
   66        6.913560      6.913552   0.000000   0.000000
   67        7.572035      7.572029   0.000000   0.000000
   68        7.787757      7.787765   0.000000   0.000000
   69        7.974983      7.974998   0.000000   0.000000
   70        8.075997      8.076006   0.000000   0.000000
   71        8.220853      8.220866   0.000000   0.000000
   72        8.275421      8.275426   0.000000   0.000000
   73        8.399698      8.399719   0.000000   0.000000
   74        8.595342      8.595337   0.000000   0.000000
   75        8.746197      8.746209   0.000000   0.000000
   76        8.829786      8.829815   0.000000   0.000000
   77        9.213737      9.213740   0.000000   0.000000
   78        9.381178      9.381198   0.000000   0.000000
   79        9.471472      9.471492   0.000000   0.000000
   80        9.561492      9.561512   0.000000   0.000000
   81        9.585540      9.585556   0.000000   0.000000
   82        9.782977      9.782973   0.000000   0.000000
   83       10.113073     10.113092   0.000000   0.000000
   84       10.140108     10.140121   0.000000   0.000000
   85       10.694659     10.694689   0.000000   0.000000
   86       10.901002     10.900974   0.000000   0.000000
   87       11.368874     11.367031   0.000000   0.000000
   88       11.437733     11.388762   0.000000   0.000000
 
  0.1367947E-20  0.2000000E+00  0.6804163E-14  0.1666667E-01
    1      -42.535353    -42.535434   1.000000   1.000000
    2      -42.535002    -42.535084   1.000000   1.000000
    3      -42.449467    -42.449549   1.000000   1.000000
    4      -42.449210    -42.449292   1.000000   1.000000
    5      -42.378960    -42.379046   1.000000   1.000000
    6      -42.368985    -42.369071   1.000000   1.000000
    7      -42.366309    -42.366397   1.000000   1.000000
    8      -42.365795    -42.365883   1.000000   1.000000
    9      -19.966341    -19.966356   1.000000   1.000000
   10      -19.923794    -19.923809   1.000000   1.000000
   11      -18.838407    -18.838430   1.000000   1.000000
   12      -18.824810    -18.824833   1.000000   1.000000
   13      -17.661518    -17.661554   1.000000   1.000000
   14      -17.622764    -17.622801   1.000000   1.000000
   15      -17.142632    -17.142685   1.000000   1.000000
   16      -17.098257    -17.098311   1.000000   1.000000
   17      -16.956886    -16.956933   1.000000   1.000000
   18      -16.948311    -16.948358   1.000000   1.000000
   19      -16.873978    -16.874028   1.000000   1.000000
   20      -16.862077    -16.862127   1.000000   1.000000
   21      -16.807767    -16.807811   1.000000   1.000000
   22      -16.803175    -16.803218   1.000000   1.000000
   23       -8.819961     -8.819959   1.000000   1.000000
   24       -8.793796     -8.793794   1.000000   1.000000
   25       -6.536487     -6.536476   1.000000   1.000000
   26       -6.184557     -6.184546   1.000000   1.000000
   27       -5.381185     -5.381180   1.000000   1.000000
   28       -5.264525     -5.264520   1.000000   1.000000
   29       -4.794125     -4.794120   1.000000   1.000000
   30       -4.582595     -4.582592   1.000000   1.000000
   31       -4.518248     -4.518250   1.000000   1.000000
   32       -4.504624     -4.504626   1.000000   1.000000
   33       -4.156996     -4.156996   1.000000   1.000000
   34       -4.122794     -4.122799   1.000000   1.000000
   35       -4.020083     -4.020086   1.000000   1.000000
   36       -3.851777     -3.851777   1.000000   1.000000
   37       -3.374560     -3.374569   1.000000   1.000000
   38       -3.176549     -3.176558   1.000000   1.000000
   39       -2.510975     -2.511002   1.000000   1.000000
   40       -2.384651     -2.384678   1.000000   1.000000
   41       -2.350894     -2.350923   1.000000   1.000000
   42       -2.247328     -2.247355   1.000000   1.000000
   43       -2.138743     -2.138766   1.000000   1.000000
   44       -1.908865     -1.908898   1.000000   1.000000
   45       -1.816398     -1.816429   1.000000   1.000000
   46       -1.695309     -1.695346   1.000000   1.000000
   47       -1.570791     -1.570820   1.000000   1.000000
   48       -1.543037     -1.543076   1.000000   1.000000
   49       -1.400218     -1.400252   1.000000   1.000000
   50       -1.392326     -1.392363   1.000000   1.000000
   51       -1.366676     -1.366709   1.000000   1.000000
   52       -1.166473     -1.166512   1.000000   1.000000
   53       -0.998673     -0.998720   1.000000   1.000000
   54       -0.784450     -0.784500   1.000000   1.000000
   55       -0.667343     -0.667393   1.000000   1.000000
   56       -0.628573     -0.628623   1.000000   1.000000
   57       -0.520078     -0.520123   1.000000   1.000000
   58       -0.490164     -0.490209   1.000000   1.000000
   59       -0.441712     -0.441757   1.000000   1.000000
   60       -0.374136     -0.374180   1.000000   1.000000
   61       -0.251013     -0.251058   1.000000   1.000000
   62       -0.188699     -0.188751   1.000000   1.000000
   63       -0.024993     -0.025043   1.000000   1.000000
   64        0.003058      0.003005   1.000000   1.000000
   65        5.436397      5.436387   0.000000   0.000000
   66        6.978246      6.978232   0.000000   0.000000
   67        7.489542      7.489539   0.000000   0.000000
   68        7.708390      7.708387   0.000000   0.000000
   69        7.939575      7.939607   0.000000   0.000000
   70        7.989901      7.989925   0.000000   0.000000
   71        8.281905      8.281929   0.000000   0.000000
   72        8.519703      8.519717   0.000000   0.000000
   73        8.761925      8.761940   0.000000   0.000000
   74        8.886890      8.886904   0.000000   0.000000
   75        8.971871      8.971895   0.000000   0.000000
   76        9.227095      9.227122   0.000000   0.000000
   77        9.433470      9.433486   0.000000   0.000000
   78        9.646675      9.646703   0.000000   0.000000
   79        9.770540      9.770541   0.000000   0.000000
   80        9.948682      9.948696   0.000000   0.000000
   81       10.108565     10.108575   0.000000   0.000000
   82       10.159496     10.159506   0.000000   0.000000
   83       10.262483     10.262515   0.000000   0.000000
   84       10.581287     10.581296   0.000000   0.000000
   85       10.704964     10.704972   0.000000   0.000000
   86       10.768622     10.768612   0.000000   0.000000
   87       10.914264     10.914631   0.000000   0.000000
   88       11.337586     11.321061   0.000000   0.000000
 
  0.1666667E+00  0.2000000E+00  0.4376188E-14  0.1666667E-01
    1      -42.535355    -42.535436   1.000000   1.000000
    2      -42.535008    -42.535089   1.000000   1.000000
    3      -42.449450    -42.449533   1.000000   1.000000
    4      -42.449191    -42.449273   1.000000   1.000000
    5      -42.378816    -42.378902   1.000000   1.000000
    6      -42.369489    -42.369575   1.000000   1.000000
    7      -42.366355    -42.366443   1.000000   1.000000
    8      -42.365465    -42.365552   1.000000   1.000000
    9      -19.955727    -19.955742   1.000000   1.000000
   10      -19.926281    -19.926296   1.000000   1.000000
   11      -18.851611    -18.851634   1.000000   1.000000
   12      -18.817771    -18.817795   1.000000   1.000000
   13      -17.646932    -17.646969   1.000000   1.000000
   14      -17.627856    -17.627893   1.000000   1.000000
   15      -17.139230    -17.139284   1.000000   1.000000
   16      -17.095268    -17.095323   1.000000   1.000000
   17      -16.969325    -16.969371   1.000000   1.000000
   18      -16.952122    -16.952168   1.000000   1.000000
   19      -16.873480    -16.873531   1.000000   1.000000
   20      -16.867279    -16.867330   1.000000   1.000000
   21      -16.813340    -16.813384   1.000000   1.000000
   22      -16.807357    -16.807400   1.000000   1.000000
   23       -8.841483     -8.841481   1.000000   1.000000
   24       -8.800043     -8.800042   1.000000   1.000000
   25       -6.512584     -6.512573   1.000000   1.000000
   26       -6.165839     -6.165829   1.000000   1.000000
   27       -5.368120     -5.368115   1.000000   1.000000
   28       -5.250112     -5.250108   1.000000   1.000000
   29       -4.771472     -4.771468   1.000000   1.000000
   30       -4.566998     -4.566995   1.000000   1.000000
   31       -4.498838     -4.498840   1.000000   1.000000
   32       -4.475548     -4.475551   1.000000   1.000000
   33       -4.182495     -4.182495   1.000000   1.000000
   34       -4.036672     -4.036675   1.000000   1.000000
   35       -3.944667     -3.944671   1.000000   1.000000
   36       -3.853193     -3.853193   1.000000   1.000000
   37       -3.327052     -3.327062   1.000000   1.000000
   38       -3.137785     -3.137795   1.000000   1.000000
   39       -2.486721     -2.486748   1.000000   1.000000
   40       -2.416276     -2.416302   1.000000   1.000000
   41       -2.319538     -2.319566   1.000000   1.000000
   42       -2.280456     -2.280483   1.000000   1.000000
   43       -2.190536     -2.190560   1.000000   1.000000
   44       -1.942085     -1.942118   1.000000   1.000000
   45       -1.803525     -1.803553   1.000000   1.000000
   46       -1.725133     -1.725169   1.000000   1.000000
   47       -1.614029     -1.614066   1.000000   1.000000
   48       -1.560099     -1.560132   1.000000   1.000000
   49       -1.467725     -1.467763   1.000000   1.000000
   50       -1.459061     -1.459091   1.000000   1.000000
   51       -1.401084     -1.401115   1.000000   1.000000
   52       -1.251779     -1.251818   1.000000   1.000000
   53       -0.963666     -0.963713   1.000000   1.000000
   54       -0.804175     -0.804226   1.000000   1.000000
   55       -0.714243     -0.714293   1.000000   1.000000
   56       -0.635215     -0.635263   1.000000   1.000000
   57       -0.549712     -0.549757   1.000000   1.000000
   58       -0.524539     -0.524587   1.000000   1.000000
   59       -0.416239     -0.416285   1.000000   1.000000
   60       -0.354672     -0.354717   1.000000   1.000000
   61       -0.217546     -0.217593   1.000000   1.000000
   62       -0.205581     -0.205633   1.000000   1.000000
   63       -0.038346     -0.038397   1.000000   1.000000
   64        0.016808      0.016755   1.000000   1.000000
   65        5.831146      5.831134   0.000000   0.000000
   66        6.917476      6.917464   0.000000   0.000000
   67        7.301233      7.301224   0.000000   0.000000