       N       E                     dE             d eps       ncg     rms          rms(c)
DAV:   1     0.109115474548E+04    0.10912E+04   -0.60897E+04 21824   0.147E+03
DAV:   2    -0.602171159055E+02   -0.11514E+04   -0.10794E+04 26024   0.379E+02
DAV:   3    -0.173494408320E+03   -0.11328E+03   -0.11248E+03 28312   0.121E+02
DAV:   4    -0.182887919089E+03   -0.93935E+01   -0.93509E+01 40328   0.288E+01
DAV:   5    -0.184495562502E+03   -0.16076E+01   -0.16070E+01 31408   0.683E+00    0.466E+01
DAV:   6    -0.164917492723E+03    0.19578E+02   -0.87071E+01 27208   0.311E+01    0.225E+01
DAV:   7    -0.167118385081E+03   -0.22009E+01   -0.73793E+00 27928   0.904E+00    0.823E+00
DAV:   8    -0.167446313545E+03   -0.32793E+00   -0.76382E-01 28552   0.345E+00    0.419E+00
DAV:   9    -0.167594853967E+03   -0.14854E+00   -0.14182E-01 30288   0.161E+00    0.158E+00
DAV:  10    -0.167624611005E+03   -0.29757E-01   -0.54607E-02 26040   0.108E+00    0.475E-01
DAV:  11    -0.167634937993E+03   -0.10327E-01   -0.98336E-03 27544   0.405E-01    0.281E-01
DAV:  12    -0.167638209192E+03   -0.32712E-02   -0.24116E-03 27440   0.212E-01    0.140E-01
DAV:  13    -0.167639526135E+03   -0.13169E-02   -0.94507E-04 25968   0.114E-01    0.484E-02
DAV:  14    -0.167639740881E+03   -0.21475E-03   -0.16630E-04 27000   0.589E-02    0.204E-02
DAV:  15    -0.167639797734E+03   -0.56854E-04   -0.58460E-05 22944   0.340E-02    0.147E-02
DAV:  16    -0.167639805816E+03   -0.80815E-05   -0.94281E-06 19152   0.145E-02
   1 F= -.16763981E+03 E0= -.16763981E+03  d E =0.000000E+00  mag=    -0.0012
