    4    4    1    2
  0.1217054E+02  0.3751401E-09  0.3751401E-09  0.3994405E-09  0.5000000E-15
  1.000000000000000E-004
  CAR 
 unknown system                          
     14     70     16
 
  0.0000000E+00  0.0000000E+00  0.0000000E+00  0.1250000E-02
    1      -43.721462    -43.720645   1.000000   1.000000
    2      -43.457570    -43.456737   1.000000   1.000000
    3      -43.312896    -43.311994   1.000000   1.000000
    4      -10.380167    -10.380213   1.000000   1.000000
    5       -0.400906     -0.400851   1.000000   1.000000
    6        0.822050      0.821986   1.000000   1.000000
    7        0.822075      0.822012   1.000000   1.000000
    8        1.827199      1.826782   0.000000   0.000000
    9        7.953588      7.953663   0.000000   0.000000
   10        7.953623      7.953707   0.000000   0.000000
   11        8.726034      8.725765   0.000000   0.000000
   12       12.525416     12.524876   0.000000   0.000000
   13       12.525505     12.524961   0.000000   0.000000
   14       12.642993     12.644399   0.000000   0.000000
   15       14.120450     14.119808   0.000000   0.000000
   16       16.535060     16.534411   0.000000   0.000000
 
  0.1000000E+00  0.2094893E-16  0.0000000E+00  0.7500000E-02
    1      -43.715626    -43.714809   1.000000   1.000000
    2      -43.463268    -43.462435   1.000000   1.000000
    3      -43.312931    -43.312029   1.000000   1.000000
    4      -10.369687    -10.369737   1.000000   1.000000
    5       -0.340509     -0.340454   1.000000   1.000000
    6        0.428712      0.428623   1.000000   1.000000
    7        0.713779      0.713721   1.000000   1.000000
    8        2.208332      2.207949   0.000000  -0.000000
    9        7.953817      7.953837   0.000000   0.000000
   10        8.208270      8.208325   0.000000   0.000000
   11        8.627394      8.627137   0.000000   0.000000
   12       12.262718     12.262310   0.000000   0.000000
   13       12.450336     12.449813   0.000000   0.000000
   14       12.760277     12.760888   0.000000   0.000000
   15       14.074193     14.073590   0.000000   0.000000
   16       15.555562     15.555142   0.000000   0.000000
 
  0.2000000E+00  0.4189786E-16  0.0000000E+00  0.7500000E-02
    1      -43.698908    -43.698090   1.000000   1.000000
    2      -43.479452    -43.478620   1.000000   1.000000
    3      -43.312960    -43.312058   1.000000   1.000000
    4      -10.342061    -10.342115   1.000000   1.000000
    5       -0.190996     -0.191064   1.000000   1.000000
    6       -0.174922     -0.174866   1.000000   1.000000
    7        0.455472      0.455428   1.000000   1.000000
    8        2.846044      2.845657   0.000000   0.000000
    9        7.741868      7.741720   0.000000   0.000000
   10        8.371869      8.371643   0.000000   0.000000
   11        8.829086      8.829048   0.000000   0.000000
   12       12.023609     12.023294   0.000000   0.000000
   13       12.387470     12.387016   0.000000   0.000000
   14       12.834444     12.834633   0.000000   0.000000
   15       13.912176     13.911886   0.000000   0.000000
   16       14.260716     14.260354   0.000000   0.000000
 
  0.3000000E+00  0.6716889E-16  0.0000000E+00  0.7500000E-02
    1      -43.673962    -43.673142   1.000000   1.000000
    2      -43.503700    -43.502870   1.000000   1.000000
    3      -43.312998    -43.312095   1.000000   1.000000
    4      -10.307519    -10.307582   1.000000   1.000000
    5       -0.723741     -0.723778   1.000000   1.000000
    6        0.047096      0.047154   1.000000   1.000000
    7        0.174972      0.174940   1.000000   1.000000
    8        3.548061      3.547663   0.000000   0.000000
    9        7.088258      7.087938   0.000000   0.000000
   10        8.052414      8.052230   0.000000   0.000000
   11        9.437901      9.437690   0.000000   0.000000
   12       12.108424     12.108303   0.000000   0.000000
   13       12.569939     12.569666   0.000000   0.000000
   14       12.695883     12.695566   0.000000   0.000000
   15       12.971183     12.971127   0.000000   0.000000
   16       14.654520     14.653652   0.000000   0.000000
 
  0.4000000E+00  0.1223810E-15  0.0000000E+00  0.7500000E-02
    1      -43.646576    -43.645754   1.000000   1.000000
    2      -43.530428    -43.529599   1.000000   1.000000
    3      -43.312992    -43.312090   1.000000   1.000000
    4      -10.279250    -10.279318   1.000000   1.000000
    5       -1.073336     -1.073350   1.000000   1.000000
    6       -0.028298     -0.028321   1.000000   1.000000
    7        0.243885      0.243943   1.000000   1.000000
    8        4.326277      4.325881   0.000000   0.000000
    9        6.177659      6.177242   0.000000   0.000000
   10        7.781010      7.780863   0.000000   0.000000
   11        9.727165      9.726802   0.000000   0.000000
   12       11.727043     11.726759   0.000000   0.000000
   13       12.241200     12.241271   0.000000   0.000000
   14       13.272273     13.271619   0.000000   0.000000
   15       13.499238     13.499021   0.000000   0.000000
   16       14.897911     14.898168   0.000000   0.000000
 
  0.5000000E+00  0.6829589E-16  0.0000000E+00  0.3750000E-02
    1      -43.631959    -43.631137   1.000000   1.000000
    2      -43.544839    -43.544011   1.000000   1.000000
    3      -43.313022    -43.312120   1.000000   1.000000
    4      -10.268407    -10.268478   1.000000   1.000000
    5       -1.194681     -1.194686   1.000000   1.000000
    6       -0.101376     -0.101396   1.000000   1.000000
    7        0.323896      0.323954   1.000000   1.000000
    8        5.065457      5.065196   0.000000   0.000000
    9        5.368673      5.368094   0.000000   0.000000
   10        7.672003      7.671871   0.000000   0.000000
   11        9.787691      9.787280   0.000000   0.000000
   12       11.442491     11.442199   0.000000   0.000000
   13       12.276417     12.276513   0.000000   0.000000
   14       13.486212     13.481677   0.000000   0.000000
   15       14.056714     14.056498   0.000000   0.000000
   16       14.917594     14.918218   0.000000   0.000000
 
  0.1000000E+00  0.1000000E+00  0.0000000E+00  0.7500000E-02
    1      -43.704323    -43.703505   1.000000   1.000000
    2      -43.474198    -43.473365   1.000000   1.000000
    3      -43.312954    -43.312052   1.000000   1.000000
    4      -10.350628    -10.350681   1.000000   1.000000
    5       -0.227384     -0.227328   1.000000   1.000000
    6       -0.016139     -0.016217   1.000000   1.000000
    7        0.514698      0.514651   1.000000   1.000000
    8        2.674657      2.674272   0.000000   0.000000
    9        7.900181      7.900086   0.000000   0.000000
   10        8.455088      8.454852   0.000000   0.000000
   11        8.568002      8.567991   0.000000   0.000000
   12       12.073874     12.073440   0.000000   0.000000
   13       12.335851     12.335395   0.000000   0.000000
   14       12.863479     12.864003   0.000000   0.000000
   15       14.203462     14.202894   0.000000   0.000000
   16       14.259052     14.258773   0.000000   0.000000
 
  0.2000000E+00  0.1000000E+00  0.0000000E+00  0.1500000E-01
    1      -43.683322    -43.682503   1.000000   1.000000
    2      -43.494576    -43.493745   1.000000   1.000000
    3      -43.312989    -43.312086   1.000000   1.000000
    4      -10.319550    -10.319609   1.000000   1.000000
    5       -0.522348     -0.522398   1.000000   1.000000
    6       -0.032589     -0.032532   1.000000   1.000000
    7        0.216796      0.216765   1.000000   1.000000
    8        3.314966      3.314567   0.000000   0.000000
    9        7.522524      7.522252   0.000000   0.000000
   10        8.194208      8.194006   0.000000   0.000000
   11        8.970483      8.970338   0.000000   0.000000
   12       12.105773     12.105591   0.000000   0.000000
   13       12.462680     12.462366   0.000000   0.000000
   14       12.772355     12.772131   0.000000   0.000000
   15       13.059059     13.059254   0.000000   0.000000
   16       14.602114     14.601624   0.000000   0.000000
 
  0.3000000E+00  0.1000000E+00  0.0000000E+00  0.1500000E-01
    1      -43.656224    -43.655403   1.000000   1.000000
    2      -43.520946    -43.520117   1.000000   1.000000
    3      -43.313000    -43.312098   1.000000   1.000000
    4      -10.288240    -10.288307   1.000000   1.000000
    5       -0.919584     -0.919606   1.000000   1.000000
    6       -0.046758     -0.046781   1.000000   1.000000
    7        0.179452      0.179510   1.000000   1.000000
    8        4.050463      4.050051   0.000000   0.000000
    9        6.736561      6.736169   0.000000   0.000000
   10        7.947300      7.947136   0.000000   0.000000
   11        9.212019      9.211737   0.000000   0.000000
   12       11.632968     11.632747   0.000000   0.000000
   13       12.280092     12.280106   0.000000   0.000000
   14       13.043535     13.043285   0.000000   0.000000
   15       13.507332     13.507233   0.000000   0.000000
   16       14.963241     14.962776   0.000000   0.000000
 
  0.4000000E+00  0.1000000E+00  0.0000000E+00  0.1500000E-01
    1      -43.631963    -43.631141   1.000000   1.000000
    2      -43.544746    -43.543918   1.000000   1.000000
    3      -43.313014    -43.312112   1.000000   1.000000
    4      -10.268751    -10.268823   1.000000   1.000000
    5       -1.133809     -1.133816   1.000000   1.000000
    6       -0.195742     -0.195760   1.000000   1.000000
    7        0.320894      0.320953   1.000000   1.000000
    8        4.876111      4.875705   0.000000   0.000000
    9        5.804696      5.804243   0.000000   0.000000
   10        7.797477      7.797340   0.000000   0.000000
   11        9.289891      9.289539   0.000000   0.000000
   12       11.023587     11.023355   0.000000   0.000000
   13       12.348123     12.348214   0.000000   0.000000
   14       13.729884     13.728611   0.000000   0.000000
   15       14.096090     14.095756   0.000000   0.000000
   16       14.947413     14.946726   0.000000   0.000000
 
  0.2000000E+00  0.2000000E+00  0.0000000E+00  0.7500000E-02
    1      -43.659593    -43.658772   1.000000   1.000000
    2      -43.517653    -43.516824   1.000000   1.000000
    3      -43.313016    -43.312113   1.000000   1.000000
    4      -10.291774    -10.291842   1.000000   1.000000
    5       -0.817230     -0.817258   1.000000   1.000000
    6       -0.112429     -0.112446   1.000000   1.000000
    7        0.154434      0.154492   1.000000   1.000000
    8        3.977732      3.977309   0.000000   0.000000
    9        7.158164      7.157756   0.000000   0.000000
   10        8.059724      8.059549   0.000000   0.000000
   11        8.681916      8.681694   0.000000   0.000000
   12       11.434851     11.434673   0.000000   0.000000
   13       12.364216     12.364206   0.000000   0.000000
   14       12.820668     12.820428   0.000000   0.000000
   15       13.709346     13.709418   0.000000   0.000000
   16       15.165239     15.164625   0.000000   0.000000
 
  0.3000000E+00  0.2000000E+00  0.0000000E+00  0.1500000E-01
    1      -43.632122    -43.631299   1.000000   1.000000
    2      -43.544563    -43.543735   1.000000   1.000000
    3      -43.313057    -43.312155   1.000000   1.000000
    4      -10.269320    -10.269393   1.000000   1.000000
    5       -1.002408     -1.002417   1.000000   1.000000
    6       -0.379655     -0.379665   1.000000   1.000000
    7        0.316058      0.316116   1.000000   1.000000
    8        4.759386      4.758930   0.000000   0.000000
    9        6.478059      6.477589   0.000000   0.000000
   10        8.051231      8.051083   0.000000   0.000000
   11        8.430882      8.430635   0.000000   0.000000
   12       10.400513     10.400344   0.000000   0.000000
   13       12.495453     12.495512   0.000000   0.000000
   14       13.478466     13.478291   0.000000   0.000000
   15       14.506836     14.506984   0.000000   0.000000
   16       15.455374     15.455252   0.000000   0.000000
 
  0.4000000E+00  0.2000000E+00  0.0000000E+00  0.7500000E-02
    1      -43.615209    -43.614386   1.000000   1.000000
    2      -43.561265    -43.560439   1.000000   1.000000
    3      -43.313087    -43.312185   1.000000   1.000000
    4      -10.260748    -10.260823   1.000000   1.000000
    5       -1.063004     -1.063006   1.000000   1.000000
    6       -0.481590     -0.481598   1.000000   1.000000
    7        0.380538      0.380596   1.000000   1.000000
    8        5.553727      5.553152   0.000000   0.000000
    9        5.684316      5.683942   0.000000   0.000000
   10        8.092850      8.092714   0.000000   0.000000
   11        8.358543      8.358283   0.000000   0.000000
   12        9.987071      9.986899   0.000000   0.000000
   13       12.525320     12.525382   0.000000   0.000000
   14       13.996384     13.996174   0.000000   0.000000
   15       14.812839     14.814065   0.000000   0.000000
   16       15.234782     15.232401   0.000000   0.000000
 
  0.3000000E+00  0.3000000E+00  0.0000000E+00  0.7500000E-02
    1      -43.604909    -43.604085   1.000000   1.000000
    2      -43.571524    -43.570697   1.000000   1.000000
    3      -43.313138    -43.312235   1.000000   1.000000
    4      -10.257852    -10.257928   1.000000   1.000000
    5       -0.944821     -0.944824   1.000000   1.000000
    6       -0.686161     -0.686165   1.000000   1.000000
    7        0.402584      0.402644   1.000000   1.000000
    8        5.530873      5.530347   0.000000   0.000000
    9        6.165517      6.164974   0.000000   0.000000
   10        7.756473      7.756338   0.000000   0.000000
   11        8.440564      8.440423   0.000000   0.000000
   12        9.352212      9.352064   0.000000   0.000000
   13       12.627383     12.627423   0.000000   0.000000
   14       14.062263     14.055111   0.000000   0.000000
   15       14.705925     14.706251   0.000000   0.000000
   16       16.596399     16.224352   0.000000   0.000000
 
  0.0000000E+00  0.0000000E+00  0.1250000E+00  0.2500000E-02
    1      -43.721202    -43.720385   1.000000   1.000000
    2      -43.457625    -43.456791   1.000000   1.000000
    3      -43.313017    -43.312114   1.000000   1.000000
    4      -10.385811    -10.385859   1.000000   1.000000
    5       -0.663555     -0.663557   1.000000   1.000000
    6        0.847773      0.847709   1.000000   1.000000
    7        0.847798      0.847734   1.000000   1.000000
    8        2.264611      2.264249   0.000000  -0.000000
    9        8.042085      8.042170   0.000000   0.000000
   10        8.042123      8.042216   0.000000   0.000000
   11        8.484566      8.484384   0.000000   0.000000
   12       12.199908     12.199421   0.000000   0.000000
   13       12.199994     12.199504   0.000000   0.000000
   14       12.985233     12.985439   0.000000   0.000000
   15       13.775667     13.774986   0.000000   0.000000
   16       16.806075     16.808187   0.000000   0.000000
 
  0.1000000E+00  0.2094893E-16  0.1250000E+00  0.1500000E-01
    1      -43.715403    -43.714586   1.000000   1.000000
    2      -43.463238    -43.462405   1.000000   1.000000
    3      -43.313027    -43.312124   1.000000   1.000000
    4      -10.375795    -10.375846   1.000000   1.000000
    5       -0.607516     -0.607522   1.000000   1.000000
    6        0.549143      0.549087   1.000000   1.000000
    7        0.741104      0.741045   1.000000   1.000000
    8        2.540597      2.540236   0.000000  -0.000000
    9        8.022416      8.022424   0.000000   0.000000
   10        8.293349      8.293409   0.000000   0.000000
   11        8.417670      8.417494   0.000000   0.000000
   12       12.013833     12.013406   0.000000   0.000000
   13       12.065219     12.064760   0.000000   0.000000
   14       13.002880     13.003224   0.000000   0.000000
   15       13.477746     13.477162   0.000000   0.000000
   16       16.308573     16.302805   0.000000   0.000000
 
  0.2000000E+00  0.4189786E-16  0.1250000E+00  0.1500000E-01
    1      -43.698686    -43.697867   1.000000   1.000000
    2      -43.479439    -43.478607   1.000000   1.000000
    3      -43.313005    -43.312102   1.000000   1.000000
    4      -10.349586    -10.349643   1.000000   1.000000
    5       -0.508583     -0.508619   1.000000   1.000000
    6        0.076966      0.076974   1.000000   1.000000
    7        0.486203      0.486160   1.000000   1.000000
    8        3.050156      3.049777   0.000000   0.000000
    9        7.600002      7.599846   0.000000   0.000000
   10        8.425478      8.425312   0.000000   0.000000
   11        8.894452      8.894412   0.000000   0.000000
   12       11.625346     11.625101   0.000000   0.000000
   13       11.888241     11.887877   0.000000   0.000000
   14       12.911279     12.911027   0.000000   0.000000
   15       13.388922     13.388786   0.000000   0.000000
   16       15.509921     15.509603   0.000000   0.000000
 
  0.3000000E+00  0.6716889E-16  0.1250000E+00  0.1500000E-01
    1      -43.673793    -43.672973   1.000000   1.000000
    2      -43.503641    -43.502811   1.000000   1.000000
    3      -43.312978    -43.312075   1.000000   1.000000
    4      -10.316879    -10.316942   1.000000   1.000000
    5       -0.706552     -0.706593   1.000000   1.000000
    6        0.030407      0.030461   1.000000   1.000000
    7        0.208880      0.208850   1.000000   1.000000
    8        3.596654      3.596252   0.000000   0.000000
    9        6.762076      6.761816   0.000000   0.000000
   10        8.438401      8.438191   0.000000   0.000000
   11        9.423982      9.423749   0.000000   0.000000
   12       11.318109     11.318004   0.000000   0.000000
   13       12.111594     12.111409   0.000000   0.000000
   14       12.666237     12.665909   0.000000   0.000000
   15       13.550441     13.550437   0.000000   0.000000
   16       15.299599     15.299535   0.000000   0.000000
 
  0.4000000E+00  0.1223810E-15  0.1250000E+00  0.1500000E-01
    1      -43.646504    -43.645683   1.000000   1.000000
    2      -43.530389    -43.529560   1.000000   1.000000
    3      -43.312981    -43.312078   1.000000   1.000000
    4      -10.290277    -10.290347   1.000000   1.000000
    5       -0.998614     -0.998625   1.000000   1.000000
    6        0.007638      0.007615   1.000000   1.000000
    7        0.227324      0.227381   1.000000   1.000000
    8        4.172215      4.171786   0.000000   0.000000
    9        5.835262      5.834952   0.000000   0.000000
   10        8.449204      8.448994   0.000000   0.000000
   11        9.597679      9.597304   0.000000   0.000000
   12       10.883532     10.883358   0.000000   0.000000
   13       12.574611     12.574542   0.000000   0.000000
   14       12.798534     12.798471   0.000000   0.000000
   15       13.917899     13.917723   0.000000   0.000000
   16       15.244176     15.243820   0.000000   0.000000
 
  0.5000000E+00  0.6829589E-16  0.1250000E+00  0.7500000E-02
    1      -43.631852    -43.631030   1.000000   1.000000
    2      -43.544767    -43.543939   1.000000   1.000000
    3      -43.312951    -43.312048   1.000000   1.000000
    4      -10.280017    -10.280090   1.000000   1.000000
    5       -1.108682     -1.108683   1.000000   1.000000
    6       -0.064757     -0.064777   1.000000   1.000000
    7        0.321404      0.321463   1.000000   1.000000
    8        4.634706      4.634213   0.000000   0.000000
    9        5.224274      5.224003   0.000000   0.000000
   10        8.467014      8.466814   0.000000   0.000000
   11        9.612502      9.612091   0.000000   0.000000
   12       10.653976     10.653736   0.000000   0.000000
   13       12.568866     12.568874   0.000000   0.000000
   14       13.205790     13.205754   0.000000   0.000000
   15       14.214738     14.212370   0.000000   0.000000
   16       15.087589     15.087487   0.000000   0.000000
 
  0.1000000E+00  0.1000000E+00  0.1250000E+00  0.1500000E-01
    1      -43.704118    -43.703300   1.000000   1.000000
    2      -43.474195    -43.473362   1.000000   1.000000
    3      -43.313022    -43.312119   1.000000   1.000000
    4      -10.357732    -10.357786   1.000000   1.000000
    5       -0.524197     -0.524218   1.000000   1.000000
    6        0.196173      0.196155   1.000000   1.000000
    7        0.545682      0.545636   1.000000   1.000000
    8        2.911945      2.911572   0.000000   0.000000
    9        7.974106      7.974002   0.000000   0.000000
   10        8.117221      8.117079   0.000000   0.000000
   11        8.797770      8.797734   0.000000   0.000000
   12       11.667562     11.667233   0.000000   0.000000
   13       11.915032     11.914712   0.000000   0.000000
   14       13.084977     13.085285   0.000000   0.000000
   15       13.363113     13.362548   0.000000   0.000000
   16       15.664837     15.663965   0.000000   0.000000
 
  0.2000000E+00  0.1000000E+00  0.1250000E+00  0.3000000E-01
    1      -43.683147    -43.682328   1.000000   1.000000
    2      -43.494544    -43.493713   1.000000   1.000000
    3      -43.313003    -43.312101   1.000000   1.000000
    4      -10.328293    -10.328352   1.000000   1.000000
    5       -0.575422     -0.575474   1.000000   1.000000
    6       -0.002250     -0.002201   1.000000   1.000000
    7        0.253771      0.253740   1.000000   1.000000
    8        3.415802      3.415404   0.000000   0.000000
    9        7.346580      7.346335   0.000000   0.000000
   10        8.109174      8.108982   0.000000   0.000000
   11        9.256369      9.256213   0.000000   0.000000
   12       11.326934     11.326804   0.000000   0.000000
   13       11.950007     11.949820   0.000000   0.000000
   14       13.100971     13.100608   0.000000   0.000000
   15       13.451242     13.451092   0.000000   0.000000
   16       15.263730     15.264356   0.000000   0.000000
 
  0.3000000E+00  0.1000000E+00  0.1250000E+00  0.3000000E-01
    1      -43.656135    -43.655314   1.000000   1.000000
    2      -43.520925    -43.520095   1.000000   1.000000
    3      -43.312998    -43.312096   1.000000   1.000000
    4      -10.298739    -10.298807   1.000000   1.000000
    5       -0.862053     -0.862076   1.000000   1.000000
    6       -0.009895     -0.009915   1.000000   1.000000
    7        0.163787      0.163842   1.000000   1.000000
    8        3.964673      3.964246   0.000000   0.000000
    9        6.415097      6.414774   0.000000   0.000000
   10        8.233138      8.232921   0.000000   0.000000
   11        9.341652      9.341382   0.000000   0.000000
   12       11.031368     11.031274   0.000000   0.000000
   13       12.287616     12.287582   0.000000   0.000000
   14       12.995553     12.995223   0.000000   0.000000
   15       13.915242     13.915126   0.000000   0.000000
   16       15.293564     15.293595   0.000000   0.000000
 
  0.4000000E+00  0.1000000E+00  0.1250000E+00  0.3000000E-01
    1      -43.631947    -43.631125   1.000000   1.000000
    2      -43.544705    -43.543877   1.000000   1.000000
    3      -43.313003    -43.312100   1.000000   1.000000
    4      -10.280403    -10.280476   1.000000   1.000000
    5       -1.051715     -1.051718   1.000000   1.000000
    6       -0.155083     -0.155099   1.000000   1.000000
    7        0.321828      0.321887   1.000000   1.000000
    8        4.536642      4.536173   0.000000   0.000000
    9        5.559097      5.558765   0.000000   0.000000
   10        8.471165      8.470960   0.000000   0.000000
   11        9.081624      9.081330   0.000000   0.000000
   12       10.774913     10.774740   0.000000   0.000000
   13       12.526044     12.526082   0.000000   0.000000
   14       13.187393     13.187178   0.000000   0.000000
   15       14.531075     14.530244   0.000000   0.000000
   16       15.150533     15.150706   0.000000   0.000000
 
  0.2000000E+00  0.2000000E+00  0.1250000E+00  0.1500000E-01
    1      -43.659495    -43.658674   1.000000   1.000000
    2      -43.517614    -43.516785   1.000000   1.000000
    3      -43.313008    -43.312106   1.000000   1.000000
    4      -10.302078    -10.302146   1.000000   1.000000
    5       -0.774070     -0.774100   1.000000   1.000000
    6       -0.066561     -0.066577   1.000000   1.000000
    7        0.141169      0.141226   1.000000   1.000000
    8        3.906450      3.906023   0.000000   0.000000
    9        6.994334      6.993903   0.000000   0.000000
   10        7.684134      7.684022   0.000000   0.000000
   11        9.330283      9.330044   0.000000   0.000000
   12       10.905629     10.905571   0.000000   0.000000
   13       12.154385     12.154436   0.000000   0.000000
   14       13.382545     13.382112   0.000000   0.000000
   15       13.941766     13.941627   0.000000   0.000000
   16       15.457228     15.432261   0.000000   0.000000
 
  0.3000000E+00  0.2000000E+00  0.1250000E+00  0.3000000E-01
    1      -43.632085    -43.631262   1.000000   1.000000
    2      -43.544557    -43.543729   1.000000   1.000000
    3      -43.313047    -43.312144   1.000000   1.000000
    4      -10.280984    -10.281058   1.000000   1.000000
    5       -0.929552     -0.929560   1.000000   1.000000
    6       -0.327224     -0.327233   1.000000   1.000000
    7        0.319918      0.319977   1.000000   1.000000
    8        4.461224      4.460760   0.000000   0.000000
    9        6.169488      6.169044   0.000000   0.000000
   10        7.869931      7.869785   0.000000   0.000000
   11        9.092591      9.092358   0.000000   0.000000
   12       10.432264     10.432160   0.000000   0.000000
   13       12.350181     12.350235   0.000000   0.000000
   14       13.681888     13.681565   0.000000   0.000000
   15       14.711827     14.712056   0.000000   0.000000
   16       15.518877     15.518583   0.000000   0.000000
 
  0.4000000E+00  0.2000000E+00  0.1250000E+00  0.1500000E-01
    1      -43.615149    -43.614326   1.000000   1.000000
    2      -43.561252    -43.560425   1.000000   1.000000
    3      -43.313038    -43.312135   1.000000   1.000000
    4      -10.272907    -10.272982   1.000000   1.000000
    5       -0.982425     -0.982424   1.000000   1.000000
    6       -0.427178     -0.427184   1.000000   1.000000
    7        0.396680      0.396741   1.000000   1.000000
    8        4.897794      4.897290   0.000000   0.000000
    9        5.588814      5.588403   0.000000   0.000000
   10        8.162010      8.161826   0.000000   0.000000
   11        8.781864      8.781682   0.000000   0.000000
   12       10.246576     10.246427   0.000000   0.000000
   13       12.426775     12.426809   0.000000   0.000000
   14       13.931824     13.931532   0.000000   0.000000
   15       15.010119     15.010182   0.000000   0.000000
   16       15.403401     15.402636   0.000000   0.000000
 
  0.3000000E+00  0.3000000E+00  0.1250000E+00  0.1500000E-01
    1      -43.604865    -43.604041   1.000000   1.000000
    2      -43.571434    -43.570607   1.000000   1.000000
    3      -43.313056    -43.312153   1.000000   1.000000
    4      -10.270170    -10.270247   1.000000   1.000000
    5       -0.869970     -0.869969   1.000000   1.000000
    6       -0.620775     -0.620776   1.000000   1.000000
    7        0.423974      0.424036   1.000000   1.000000
    8        5.028391      5.027893   0.000000   0.000000
    9        5.713148      5.712634   0.000000   0.000000
   10        7.774228      7.774136   0.000000   0.000000
   11        9.107854      9.107673   0.000000   0.000000
   12        9.705118      9.704989   0.000000   0.000000
   13       12.433707     12.433704   0.000000   0.000000
   14       14.320940     14.320913   0.000000   0.000000
   15       14.892270     14.892731   0.000000   0.000000
   16       16.298537     16.297257   0.000000   0.000000
 
  0.0000000E+00  0.0000000E+00  0.2500000E+00  0.2500000E-02
    1      -43.720733    -43.719917   1.000000   1.000000
    2      -43.457493    -43.456659   1.000000   1.000000
    3      -43.313330    -43.312428   1.000000   1.000000
    4      -10.399147    -10.399197   1.000000   1.000000
    5       -1.103644     -1.103704   1.000000   1.000000
    6        0.911386      0.911322   1.000000   1.000000
    7        0.911410      0.911347   1.000000   1.000000
    8        3.190778      3.190457   0.000000   0.000000
    9        7.915073      7.914992   0.000000   0.000000
   10        8.279761      8.279871   0.000000   0.000000
   11        8.279798      8.279917   0.000000   0.000000
   12       11.547219     11.546811   0.000000   0.000000
   13       11.547303     11.546891   0.000000   0.000000
   14       13.220223     13.219501   0.000000   0.000000
   15       13.810128     13.810223   0.000000   0.000000
   16       15.199331     15.198969   0.000000   0.000000
 
  0.1000000E+00  0.2094893E-16  0.2500000E+00  0.1500000E-01
    1      -43.714874    -43.714057   1.000000   1.000000
    2      -43.463190    -43.462357   1.000000   1.000000
    3      -43.313283    -43.312380   1.000000   1.000000
    4      -10.390480    -10.390530   1.000000   1.000000
    5       -1.026098     -1.026157   1.000000   1.000000
    6        0.695726      0.695684   1.000000   1.000000
    7        0.808766      0.808710   1.000000   1.000000
    8        3.311722      3.311386   0.000000   0.000000
    9        7.824272      7.824206   0.000000   0.000000
   10        8.355994      8.356051   0.000000   0.000000
   11        8.525940      8.526025   0.000000   0.000000
   12       11.269953     11.269578   0.000000   0.000000
   13       11.299454     11.299078   0.000000   0.000000
   14       12.687434     12.686900   0.000000   0.000000
   15       13.840862     13.841008   0.000000   0.000000
   16       15.705324     15.705045   0.000000   0.000000
 
  0.2000000E+00  0.4189786E-16  0.2500000E+00  0.1500000E-01