       N       E                     dE             d eps       ncg     rms          rms(c)
DAV:   1     0.641643673305E+02    0.64164E+02   -0.58033E+03  4488   0.875E+02
DAV:   2    -0.748644191395E+01   -0.71651E+02   -0.66314E+02  5880   0.218E+02
DAV:   3    -0.183398016420E+02   -0.10853E+02   -0.10768E+02  8768   0.549E+01
DAV:   4    -0.184989045556E+02   -0.15910E+00   -0.15908E+00  5016   0.941E+00
DAV:   5    -0.185012674504E+02   -0.23629E-02   -0.23629E-02  6792   0.928E-01    0.140E+01
RMM:   6    -0.157265838715E+02    0.27747E+01   -0.56411E+00  5146   0.105E+01    0.690E+00
RMM:   7    -0.156490717382E+02    0.77512E-01   -0.49899E-01  5224   0.586E+00    0.233E+00
RMM:   8    -0.155457696652E+02    0.10330E+00   -0.16308E-01  6221   0.285E+00    0.135E+00
RMM:   9    -0.155638655055E+02   -0.18096E-01   -0.59796E-02  6246   0.191E+00    0.517E-01
RMM:  10    -0.155646108086E+02   -0.74530E-03   -0.18503E-02  7293   0.898E-01    0.243E-01
RMM:  11    -0.155653516582E+02   -0.74085E-03   -0.54695E-03  6761   0.459E-01    0.126E-01
RMM:  12    -0.155660219571E+02   -0.67030E-03   -0.27437E-03  6814   0.383E-01    0.453E-02
RMM:  13    -0.155661964723E+02   -0.17452E-03   -0.13954E-03  7398   0.188E-01    0.275E-02
RMM:  14    -0.155662631895E+02   -0.66717E-04   -0.48006E-04  7264   0.111E-01    0.105E-02
RMM:  15    -0.155662895795E+02   -0.26390E-04   -0.14803E-04  6501   0.686E-02    0.787E-03
RMM:  16    -0.155662957863E+02   -0.62068E-05   -0.56846E-05  6130   0.400E-02
   1 F= -.15566296E+02 E0= -.15566296E+02  d E =0.000000E+00  mag=     0.0000
