    6    6    1    2
  0.1193214E+02  0.4494510E-09  0.4832806E-09  0.4832806E-09  0.5000000E-15
  1.000000000000000E-004
  CAR 
 unknown system                          
     32    362     22
 
  0.0000000E+00  0.0000000E+00  0.0000000E+00  0.1388889E-02
    1      -19.618536    -19.618506   1.000000   1.000000
    2      -17.169005    -17.168953   1.000000   1.000000
    3      -13.701542    -13.701410   1.000000   1.000000
    4      -11.982279    -11.982145   1.000000   1.000000
    5      -10.900596    -10.900539   1.000000   1.000000
    6       -6.400321     -6.400284   1.000000   1.000000
    7       -5.178236     -5.178225   1.000000   1.000000
    8       -5.029769     -5.029773   1.000000   1.000000
    9       -2.030982     -2.031133   1.000000   1.000000
   10       -1.207865     -1.207964   1.000000   1.000000
   11       -0.278425     -0.278499   1.000000   1.000000
   12        0.033696      0.033665   1.000000   1.000000
   13        1.019429      1.019368   1.000000   1.000000
   14        1.152572      1.152678   1.000000   1.000000
   15        1.999514      1.999472   1.000000   1.000000
   16        2.576950      2.576943   1.000000   1.000000
   17        8.477137      8.476924   0.000000   0.000000
   18        8.773073      8.772968   0.000000   0.000000
   19       10.642270     10.642265   0.000000   0.000000
   20       11.471109     11.470917   0.000000   0.000000
   21       12.560437     12.560358   0.000000   0.000000
   22       13.017054     13.016637   0.000000   0.000000
 
  0.1111111E+00 -0.2998318E-17  0.1687611E-16  0.2777778E-02
    1      -19.585396    -19.585366   1.000000   1.000000
    2      -17.173720    -17.173669   1.000000   1.000000
    3      -13.857810    -13.857683   1.000000   1.000000
    4      -12.174361    -12.174238   1.000000   1.000000
    5      -10.525907    -10.525838   1.000000   1.000000
    6       -6.365485     -6.365447   1.000000   1.000000
    7       -5.204231     -5.204208   1.000000   1.000000
    8       -4.976126     -4.976131   1.000000   1.000000
    9       -2.010115     -2.010265   1.000000   1.000000
   10       -1.232023     -1.232119   1.000000   1.000000
   11       -0.266993     -0.267068   1.000000   1.000000
   12       -0.079598     -0.079642   1.000000   1.000000
   13        1.013601      1.013662   1.000000   1.000000
   14        1.076986      1.076965   1.000000   1.000000
   15        1.963229      1.963185   1.000000   1.000000
   16        2.591201      2.591198   1.000000   1.000000
   17        8.588066      8.587863   0.000000   0.000000
   18        8.962683      8.962590   0.000000   0.000000
   19       10.370628     10.370613   0.000000   0.000000
   20       11.498468     11.498275   0.000000   0.000000
   21       12.541041     12.540925   0.000000   0.000000
   22       12.976467     12.975990   0.000000   0.000000
 
  0.2222222E+00 -0.1240609E-16  0.4016166E-16  0.2777778E-02
    1      -19.497286    -19.497255   1.000000   1.000000
    2      -17.185701    -17.185650   1.000000   1.000000
    3      -14.235662    -14.235545   1.000000   1.000000
    4      -12.401442    -12.401324   1.000000   1.000000
    5       -9.845827     -9.845753   1.000000   1.000000
    6       -6.276010     -6.275967   1.000000   1.000000
    7       -5.275822     -5.275775   1.000000   1.000000
    8       -4.828617     -4.828619   1.000000   1.000000
    9       -1.943105     -1.943251   1.000000   1.000000
   10       -1.318810     -1.318897   1.000000   1.000000
   11       -0.420329     -0.420407   1.000000   1.000000
   12       -0.200894     -0.200966   1.000000   1.000000
   13        0.809038      0.809101   1.000000   1.000000
   14        1.092288      1.092247   1.000000   1.000000
   15        1.898309      1.898257   1.000000   1.000000
   16        2.603791      2.603798   1.000000   1.000000
   17        8.842315      8.842144   0.000000   0.000000
   18        9.409844      9.409819   0.000000   0.000000
   19        9.961614      9.961520   0.000000   0.000000
   20       11.464400     11.464218   0.000000   0.000000
   21       12.475228     12.475045   0.000000   0.000000
   22       12.934956     12.934763   0.000000   0.000000
 
  0.3333333E+00 -0.2068423E-16  0.7619538E-16  0.2777778E-02
    1      -19.388725    -19.388694   1.000000   1.000000
    2      -17.199390    -17.199341   1.000000   1.000000
    3      -14.632003    -14.631894   1.000000   1.000000
    4      -12.533091    -12.532975   1.000000   1.000000
    5       -9.214061     -9.213993   1.000000   1.000000
    6       -6.179262     -6.179211   1.000000   1.000000
    7       -5.332980     -5.332897   1.000000   1.000000
    8       -4.668580     -4.668576   1.000000   1.000000
    9       -1.836964     -1.837100   1.000000   1.000000
   10       -1.514837     -1.514925   1.000000   1.000000
   11       -0.760255     -0.760355   1.000000   1.000000
   12       -0.087603     -0.087677   1.000000   1.000000
   13        0.660372      0.660396   1.000000   1.000000
   14        0.915040      0.914999   1.000000   1.000000
   15        1.940748      1.940691   1.000000   1.000000
   16        2.560743      2.560768   1.000000   1.000000
   17        9.062491      9.062378   0.000000   0.000000
   18        9.475541      9.475538   0.000000   0.000000
   19       10.312045     10.311919   0.000000   0.000000
   20       11.288880     11.288685   0.000000   0.000000
   21       12.387668     12.387458   0.000000   0.000000
   22       13.067218     13.067120   0.000000   0.000000
 
  0.4444444E+00 -0.2481217E-16  0.8032332E-16  0.2777778E-02
    1      -19.312090    -19.312058   1.000000   1.000000
    2      -17.208533    -17.208484   1.000000   1.000000
    3      -14.876040    -14.875934   1.000000   1.000000
    4      -12.593590    -12.593475   1.000000   1.000000
    5       -8.828186     -8.828130   1.000000   1.000000
    6       -6.126050     -6.125989   1.000000   1.000000
    7       -5.345540     -5.345425   1.000000   1.000000
    8       -4.571754     -4.571748   1.000000   1.000000
    9       -1.831359     -1.831469   1.000000   1.000000
   10       -1.646261     -1.646384   1.000000   1.000000
   11       -0.926089     -0.926193   1.000000   1.000000
   12        0.131678      0.131614   1.000000   1.000000
   13        0.464337      0.464295   1.000000   1.000000
   14        0.710025      0.710003   1.000000   1.000000
   15        2.049920      2.049853   1.000000   1.000000
   16        2.472291      2.472341   1.000000   1.000000
   17        9.138649      9.138587   0.000000   0.000000
   18        9.495525      9.495473   0.000000   0.000000
   19       10.690479     10.690437   0.000000   0.000000
   20       11.408910     11.408645   0.000000   0.000000
   21       12.112638     12.112432   0.000000   0.000000
   22       13.317498     13.317608   0.000000   0.000000
 
  0.2852150E-17  0.1250000E+00  0.1576789E-16  0.2777778E-02
    1      -19.552239    -19.552209   1.000000   1.000000
    2      -17.266833    -17.266783   1.000000   1.000000
    3      -13.824757    -13.824630   1.000000   1.000000
    4      -12.009065    -12.008932   1.000000   1.000000
    5      -10.650707    -10.650646   1.000000   1.000000
    6       -6.394099     -6.394060   1.000000   1.000000
    7       -5.205065     -5.205060   1.000000   1.000000
    8       -4.939458     -4.939445   1.000000   1.000000
    9       -2.061155     -2.061303   1.000000   1.000000
   10       -1.215220     -1.215317   1.000000   1.000000
   11       -0.365431     -0.365509   1.000000   1.000000
   12       -0.006328     -0.006365   1.000000   1.000000
   13        1.006308      1.006360   1.000000   1.000000
   14        1.114652      1.114634   1.000000   1.000000
   15        1.910143      1.910097   1.000000   1.000000
   16        2.572637      2.572631   1.000000   1.000000
   17        8.640583      8.640387   0.000000   0.000000
   18        9.076053      9.075955   0.000000   0.000000
   19       10.632376     10.632353   0.000000   0.000000
   20       11.320149     11.319957   0.000000   0.000000
   21       12.424745     12.424659   0.000000   0.000000
   22       13.281728     13.283002   0.000000   0.000000
 
  0.1111111E+00  0.1250000E+00  0.4486272E-16  0.2777778E-02
    1      -19.495627    -19.495596   1.000000   1.000000
    2      -17.275409    -17.275360   1.000000   1.000000
    3      -14.117617    -14.117497   1.000000   1.000000
    4      -12.119242    -12.119115   1.000000   1.000000
    5      -10.190800    -10.190730   1.000000   1.000000
    6       -6.329999     -6.329957   1.000000   1.000000
    7       -5.223056     -5.223027   1.000000   1.000000
    8       -4.892231     -4.892224   1.000000   1.000000
    9       -2.015694     -2.015839   1.000000   1.000000
   10       -1.301093     -1.301187   1.000000   1.000000
   11       -0.394152     -0.394234   1.000000   1.000000
   12       -0.107954     -0.108014   1.000000   1.000000
   13        0.799940      0.800002   1.000000   1.000000
   14        1.140027      1.139987   1.000000   1.000000
   15        1.840977      1.840928   1.000000   1.000000
   16        2.620295      2.620296   1.000000   1.000000
   17        8.857630      8.857445   0.000000   0.000000
   18        9.306554      9.306473   0.000000   0.000000
   19       10.370677     10.370648   0.000000   0.000000
   20       11.380570     11.380369   0.000000   0.000000
   21       12.549004     12.548767   0.000000   0.000000
   22       13.040839     13.040169   0.000000   0.000000
 
  0.2222222E+00  0.1250000E+00  0.1045018E-15  0.2777778E-02
    1      -19.395371    -19.395339   1.000000   1.000000
    2      -17.296479    -17.296430   1.000000   1.000000
    3      -14.473809    -14.473696   1.000000   1.000000
    4      -12.329841    -12.329720   1.000000   1.000000
    5       -9.516860     -9.516788   1.000000   1.000000
    6       -6.270614     -6.270567   1.000000   1.000000
    7       -5.266768     -5.266706   1.000000   1.000000
    8       -4.745044     -4.745036   1.000000   1.000000
    9       -1.944025     -1.944160   1.000000   1.000000
   10       -1.450628     -1.450719   1.000000   1.000000
   11       -0.611454     -0.611548   1.000000   1.000000
   12       -0.147744     -0.147822   1.000000   1.000000
   13        0.665733      0.665765   1.000000   1.000000
   14        1.072515      1.072486   1.000000   1.000000
   15        1.788437      1.788381   1.000000   1.000000
   16        2.649627      2.649638   1.000000   1.000000
   17        9.154542      9.154390   0.000000   0.000000
   18        9.600467      9.600449   0.000000   0.000000
   19       10.133752     10.133656   0.000000   0.000000
   20       11.408171     11.407983   0.000000   0.000000
   21       12.512747     12.512533   0.000000   0.000000
   22       12.854403     12.854233   0.000000   0.000000
 
  0.3333333E+00  0.1250000E+00  0.4670914E-16  0.2777778E-02
    1      -19.293731    -19.293698   1.000000   1.000000
    2      -17.323052    -17.323004   1.000000   1.000000
    3      -14.747733    -14.747626   1.000000   1.000000
    4      -12.502456    -12.502340   1.000000   1.000000
    5       -8.940929     -8.940866   1.000000   1.000000
    6       -6.273968     -6.273907   1.000000   1.000000
    7       -5.275037     -5.274946   1.000000   1.000000
    8       -4.588495     -4.588482   1.000000   1.000000
    9       -1.909637     -1.909753   1.000000   1.000000
   10       -1.611620     -1.611731   1.000000   1.000000
   11       -0.875372     -0.875476   1.000000   1.000000
   12        0.028190      0.028111   1.000000   1.000000
   13        0.626549      0.626543   1.000000   1.000000
   14        0.785457      0.785428   1.000000   1.000000
   15        1.866776      1.866724   1.000000   1.000000
   16        2.599949      2.599971   1.000000   1.000000
   17        9.320207      9.320111   0.000000   0.000000
   18        9.563054      9.563028   0.000000   0.000000
   19       10.429264     10.429176   0.000000   0.000000
   20       11.325516     11.325301   0.000000   0.000000
   21       12.457113     12.456941   0.000000   0.000000
   22       13.000291     12.999681   0.000000   0.000000
 
  0.4444444E+00  0.1250000E+00  0.5415521E-16  0.2777778E-02
    1      -19.243900    -19.243867   1.000000   1.000000
    2      -17.342461    -17.342414   1.000000   1.000000
    3      -14.829536    -14.829431   1.000000   1.000000
    4      -12.620262    -12.620148   1.000000   1.000000
    5       -8.663429     -8.663373   1.000000   1.000000
    6       -6.337480     -6.337407   1.000000   1.000000
    7       -5.244585     -5.244485   1.000000   1.000000
    8       -4.496472     -4.496457   1.000000   1.000000
    9       -1.927558     -1.927668   1.000000   1.000000
   10       -1.665600     -1.665720   1.000000   1.000000
   11       -0.990997     -0.991102   1.000000   1.000000
   12        0.318842      0.318751   1.000000   1.000000
   13        0.411733      0.411704   1.000000   1.000000
   14        0.678069      0.678055   1.000000   1.000000
   15        2.002077      2.002019   1.000000   1.000000
   16        2.477744      2.477783   1.000000   1.000000
   17        9.224102      9.224039   0.000000   0.000000
   18        9.525721      9.525663   0.000000   0.000000
   19       10.560258     10.560176   0.000000   0.000000
   20       11.684614     11.684396   0.000000   0.000000
   21       12.239108     12.238846   0.000000   0.000000
   22       13.220352     13.220048   0.000000   0.000000
 
 -0.4444444E+00  0.1250000E+00 -0.6093467E-16  0.2777778E-02
    1      -19.276761    -19.276728   1.000000   1.000000
    2      -17.341587    -17.341538   1.000000   1.000000
    3      -14.677220    -14.677113   1.000000   1.000000
    4      -12.680377    -12.680265   1.000000   1.000000
    5       -8.804049     -8.803987   1.000000   1.000000
    6       -6.386250     -6.386186   1.000000   1.000000
    7       -5.222665     -5.222577   1.000000   1.000000
    8       -4.503218     -4.503202   1.000000   1.000000
    9       -1.832538     -1.832665   1.000000   1.000000
   10       -1.689142     -1.689241   1.000000   1.000000
   11       -0.946274     -0.946375   1.000000   1.000000
   12        0.060510      0.060436   1.000000   1.000000
   13        0.635721      0.635708   1.000000   1.000000
   14        0.832873      0.832842   1.000000   1.000000
   15        2.061282      2.061215   1.000000   1.000000
   16        2.417798      2.417840   1.000000   1.000000
   17        9.016036      9.015963   0.000000   0.000000
   18        9.468057      9.468004   0.000000   0.000000
   19       10.559521     10.559410   0.000000   0.000000
   20       11.741700     11.741473   0.000000   0.000000
   21       12.248243     12.248063   0.000000   0.000000
   22       13.222904     13.228837   0.000000   0.000000
 
 -0.3333333E+00  0.1250000E+00 -0.6736639E-16  0.2777778E-02
    1      -19.371755    -19.371723   1.000000   1.000000
    2      -17.321127    -17.321078   1.000000   1.000000
    3      -14.334649    -14.334535   1.000000   1.000000
    4      -12.674543    -12.674432   1.000000   1.000000
    5       -9.285929     -9.285857   1.000000   1.000000
    6       -6.406484     -6.406436   1.000000   1.000000
    7       -5.213793     -5.213731   1.000000   1.000000
    8       -4.610144     -4.610128   1.000000   1.000000
    9       -1.957893     -1.958035   1.000000   1.000000
   10       -1.375711     -1.375790   1.000000   1.000000
   11       -0.771289     -0.771379   1.000000   1.000000
   12       -0.152197     -0.152277   1.000000   1.000000
   13        0.749393      0.749420   1.000000   1.000000
   14        1.112725      1.112695   1.000000   1.000000
   15        1.988978      1.988928   1.000000   1.000000
   16        2.492863      2.492874   1.000000   1.000000
   17        8.907646      8.907519   0.000000   0.000000
   18        9.376621      9.376617   0.000000   0.000000
   19       10.297682     10.297535   0.000000   0.000000
   20       11.508611     11.508405   0.000000   0.000000
   21       12.492366     12.492300   0.000000   0.000000
   22       13.024599     13.023639   0.000000   0.000000
 
 -0.2222222E+00  0.1250000E+00 -0.4686952E-16  0.2777778E-02
    1      -19.476714    -19.476683   1.000000   1.000000
    2      -17.294140    -17.294089   1.000000   1.000000
    3      -13.943353    -13.943229   1.000000   1.000000
    4      -12.560256    -12.560144   1.000000   1.000000
    5       -9.913965     -9.913889   1.000000   1.000000
    6       -6.424297     -6.424257   1.000000   1.000000
    7       -5.199411     -5.199380   1.000000   1.000000
    8       -4.769428     -4.769416   1.000000   1.000000
    9       -2.046688     -2.046836   1.000000   1.000000
   10       -1.201017     -1.201104   1.000000   1.000000
   11       -0.445290     -0.445351   1.000000   1.000000
   12       -0.251000     -0.251080   1.000000   1.000000
   13        0.900877      0.900935   1.000000   1.000000
   14        1.191822      1.191789   1.000000   1.000000
   15        1.959195      1.959154   1.000000   1.000000
   16        2.544923      2.544918   1.000000   1.000000
   17        8.763164      8.762981   0.000000   0.000000
   18        9.336063      9.336051   0.000000   0.000000
   19       10.089704     10.089599   0.000000   0.000000
   20       11.517945     11.517738   0.000000   0.000000
   21       12.283745     12.283603   0.000000   0.000000
   22       13.154103     13.152222   0.000000   0.000000
 
 -0.1111111E+00  0.1250000E+00 -0.3580269E-16  0.2777778E-02
    1      -19.545176    -19.545145   1.000000   1.000000
    2      -17.273670    -17.273620   1.000000   1.000000
    3      -13.736695    -13.736565   1.000000   1.000000
    4      -12.266089    -12.265970   1.000000   1.000000
    5      -10.480078    -10.480008   1.000000   1.000000
    6       -6.426982     -6.426943   1.000000   1.000000
    7       -5.196522     -5.196513   1.000000   1.000000
    8       -4.893833     -4.893820   1.000000   1.000000
    9       -2.074269     -2.074419   1.000000   1.000000
   10       -1.177405     -1.177501   1.000000   1.000000
   11       -0.350699     -0.350775   1.000000   1.000000
   12       -0.100540     -0.100582   1.000000   1.000000
   13        1.053993      1.054038   1.000000   1.000000
   14        1.134688      1.134681   1.000000   1.000000
   15        1.946381      1.946338   1.000000   1.000000
   16        2.554081      2.554071   1.000000   1.000000
   17        8.624395      8.624197   0.000000   0.000000
   18        9.105435      9.105352   0.000000   0.000000
   19       10.437118     10.437084   0.000000   0.000000
   20       11.433961     11.433762   0.000000   0.000000
   21       12.229583     12.229463   0.000000   0.000000
   22       13.324744     13.324305   0.000000   0.000000
 
  0.5704301E-17  0.2500000E+00  0.3153578E-16  0.2777778E-02
    1      -19.364034    -19.364001   1.000000   1.000000
    2      -17.533562    -17.533518   1.000000   1.000000
    3      -14.060195    -14.060074   1.000000   1.000000
    4      -12.061283    -12.061154   1.000000   1.000000
    5      -10.100385    -10.100319   1.000000   1.000000
    6       -6.387961     -6.387913   1.000000   1.000000
    7       -5.184310     -5.184296   1.000000   1.000000
    8       -4.802257     -4.802225   1.000000   1.000000
    9       -2.137721     -2.137860   1.000000   1.000000
   10       -1.258380     -1.258468   1.000000   1.000000
   11       -0.537840     -0.537941   1.000000   1.000000
   12       -0.195114     -0.195173   1.000000   1.000000
   13        0.761217      0.761265   1.000000   1.000000
   14        1.268947      1.268905   1.000000   1.000000
   15        1.796823      1.796782   1.000000   1.000000
   16        2.553472      2.553467   1.000000   1.000000
   17        9.034304      9.034128   0.000000   0.000000
   18        9.678286      9.678221   0.000000   0.000000
   19       10.686659     10.686594   0.000000   0.000000
   20       11.260523     11.260307   0.000000   0.000000
   21       12.285269     12.285061   0.000000   0.000000
   22       13.287403     13.290713   0.000000   0.000000
 
  0.1111111E+00  0.2500000E+00  0.6756950E-16  0.2777778E-02
    1      -19.292352    -19.292317   1.000000   1.000000
    2      -17.561535    -17.561491   1.000000   1.000000
    3      -14.312146    -14.312031   1.000000   1.000000
    4      -12.145737    -12.145612   1.000000   1.000000
    5       -9.671557     -9.671487   1.000000   1.000000
    6       -6.361774     -6.361723   1.000000   1.000000
    7       -5.179955     -5.179911   1.000000   1.000000
    8       -4.749976     -4.749952   1.000000   1.000000
    9       -2.105874     -2.106007   1.000000   1.000000
   10       -1.379058     -1.379146   1.000000   1.000000
   11       -0.574707     -0.574806   1.000000   1.000000
   12       -0.298560     -0.298649   1.000000   1.000000
   13        0.622955      0.622987   1.000000   1.000000
   14        1.258559      1.258527   1.000000   1.000000
   15        1.744017      1.743971   1.000000   1.000000
   16        2.616840      2.616843   1.000000   1.000000
   17        9.271646      9.271477   0.000000   0.000000
   18        9.717251      9.717201   0.000000   0.000000
   19       10.564569     10.564508   0.000000   0.000000
   20       11.485061     11.484817   0.000000   0.000000
   21       12.356840     12.356720   0.000000   0.000000
   22       13.003003     13.003132   0.000000   0.000000
 
  0.2222222E+00  0.2500000E+00  0.9945301E-16  0.2777778E-02
    1      -19.190092    -19.190057   1.000000   1.000000
    2      -17.608101    -17.608058   1.000000   1.000000
    3      -14.537278    -14.537167   1.000000   1.000000
    4      -12.358699    -12.358581   1.000000   1.000000
    5       -9.069780     -9.069710   1.000000   1.000000
    6       -6.454409     -6.454348   1.000000   1.000000
    7       -5.154338     -5.154269   1.000000   1.000000
    8       -4.609412     -4.609390   1.000000   1.000000
    9       -2.119113     -2.119236   1.000000   1.000000
   10       -1.512215     -1.512311   1.000000   1.000000
   11       -0.798120     -0.798220   1.000000   1.000000
   12       -0.162946     -0.163045   1.000000   1.000000
   13        0.638868      0.638876   1.000000   1.000000
   14        1.062172      1.062153   1.000000   1.000000
   15        1.716400      1.716349   1.000000   1.000000
   16        2.661879      2.661887   1.000000   1.000000
   17        9.476079      9.475950   0.000000   0.000000
   18        9.758606      9.758573   0.000000   0.000000
   19       10.410778     10.410677   0.000000   0.000000
   20       11.626261     11.626066   0.000000   0.000000
   21       12.247313     12.247145   0.000000   0.000000
   22       13.051307     13.050342   0.000000   0.000000
 
  0.3333333E+00  0.2500000E+00  0.4829661E-16  0.2777778E-02
    1      -19.102828    -19.102792   1.000000   1.000000
    2      -17.654974    -17.654930   1.000000   1.000000
    3      -14.648011    -14.647904   1.000000   1.000000
    4      -12.570606    -12.570493   1.000000   1.000000
    5       -8.549149     -8.549087   1.000000   1.000000
    6       -6.670641     -6.670564   1.000000   1.000000
    7       -5.090673     -5.090592   1.000000   1.000000
    8       -4.463000     -4.462975   1.000000   1.000000
    9       -2.136721     -2.136836   1.000000   1.000000
   10       -1.598151     -1.598254   1.000000   1.000000
   11       -1.016133     -1.016241   1.000000   1.000000
   12        0.131787      0.131692   1.000000   1.000000
   13        0.713857      0.713825   1.000000   1.000000
   14        0.733287      0.733284   1.000000   1.000000
   15        1.786547      1.786502   1.000000   1.000000
   16        2.617685      2.617698   1.000000   1.000000
   17        9.471532      9.471463   0.000000   0.000000
   18        9.712726      9.712664   0.000000   0.000000
   19       10.397428     10.397324   0.000000   0.000000
   20       11.579365     11.579163   0.000000   0.000000
   21       12.466106     12.466084   0.000000   0.000000
   22       13.299312     13.295082   0.000000   0.000000
 
  0.4444444E+00  0.2500000E+00  0.2090036E-15  0.2777778E-02
    1      -19.080466    -19.080430   1.000000   1.000000
    2      -17.674463    -17.674418   1.000000   1.000000
    3      -14.586042    -14.585935   1.000000   1.000000
    4      -12.739919    -12.739810   1.000000   1.000000
    5       -8.354370     -8.354311   1.000000   1.000000
    6       -6.856537     -6.856458   1.000000   1.000000
    7       -5.015135     -5.015053   1.000000   1.000000
    8       -4.378092     -4.378063   1.000000   1.000000
    9       -2.016870     -2.016972   1.000000   1.000000
   10       -1.710030     -1.710139   1.000000   1.000000
   11       -1.103010     -1.103124   1.000000   1.000000
   12        0.098479      0.098400   1.000000   1.000000
   13        0.669961      0.669932   1.000000   1.000000
   14        0.894478      0.894453   1.000000   1.000000
   15        1.933773      1.933731   1.000000   1.000000
   16        2.483904      2.483921   1.000000   1.000000
   17        9.255736      9.255687   0.000000   0.000000
   18        9.591167      9.591089   0.000000   0.000000
   19       10.439817     10.439695   0.000000   0.000000
   20       11.897518     11.897368   0.000000   0.000000
   21       12.702769     12.701860   0.000000   0.000000
   22       13.119682     13.118507   0.000000   0.000000
 
 -0.4444444E+00  0.2500000E+00 -0.3822789E-16  0.2777778E-02
    1      -19.138396    -19.138361   1.000000   1.000000
    2      -17.651873    -17.651827   1.000000   1.000000
    3      -14.352371    -14.352260   1.000000   1.000000
    4      -12.848116    -12.848008   1.000000   1.000000
    5       -8.627577     -8.627510   1.000000   1.000000
    6       -6.836844     -6.836784   1.000000   1.000000
    7       -4.973197     -4.973123   1.000000   1.000000
    8       -4.392589     -4.392556   1.000000   1.000000
    9       -1.976930     -1.977051   1.000000   1.000000
   10       -1.605396     -1.605484   1.000000   1.000000
   11       -1.058447     -1.058554   1.000000   1.000000
   12       -0.162842     -0.162920   1.000000   1.000000
   13        0.714062      0.714039   1.000000   1.000000
   14        1.199147      1.199130   1.000000   1.000000
   15        2.039177      2.039134   1.000000   1.000000
   16        2.405468      2.405479   1.000000   1.000000
   17        9.053904      9.053862   0.000000   0.000000
   18        9.432796      9.432702   0.000000   0.000000
   19       10.555115     10.554980   0.000000   0.000000
   20       12.110162     12.107616   0.000000   0.000000
   21       12.520289     12.526154   0.000000   0.000000
   22       13.188749     13.145107   0.000000   0.000000
 
 -0.3333333E+00  0.2500000E+00 -0.2022216E-16  0.2777778E-02
    1      -19.239952    -19.239918   1.000000   1.000000
    2      -17.603862    -17.603815   1.000000   1.000000
    3      -14.034654    -14.034536   1.000000   1.000000
    4      -12.855285    -12.855179   1.000000   1.000000
    5       -9.149984     -9.149910   1.000000   1.000000
    6       -6.721740     -6.721696   1.000000   1.000000
    7       -4.986400     -4.986347   1.000000   1.000000
    8       -4.507582     -4.507547   1.000000   1.000000
    9       -2.124884     -2.125023   1.000000   1.000000
   10       -1.218479     -1.218553   1.000000   1.000000
   11       -0.926850     -0.926940   1.000000   1.000000
   12       -0.328753     -0.328839   1.000000   1.000000
   13        0.759860      0.759866   1.000000   1.000000
   14        1.364104      1.364087   1.000000   1.000000
   15        1.984668      1.984633   1.000000   1.000000
   16        2.482553      2.482544   1.000000   1.000000
   17        8.998860      8.998769   0.000000   0.000000
   18        9.383323      9.383284   0.000000   0.000000
   19       10.527732     10.527579   0.000000   0.000000
   20       11.773057     11.772519   0.000000   0.000000
   21       12.310442     12.311195   0.000000   0.000000
   22       13.247499     13.220979   0.000000   0.000000
 
 -0.2222222E+00  0.2500000E+00 -0.2035418E-16  0.2777778E-02
    1      -19.332634    -19.332601   1.000000   1.000000
    2      -17.557780    -17.557734   1.000000   1.000000
    3      -13.832787    -13.832662   1.000000   1.000000
    4      -12.657877    -12.657769   1.000000   1.000000
    5       -9.692697     -9.692621   1.000000   1.000000
    6       -6.600921     -6.600880   1.000000   1.000000
    7       -5.050223     -5.050197   1.000000   1.000000
    8       -4.659912     -4.659876   1.000000   1.000000
    9       -2.185658     -2.185803   1.000000   1.000000
   10       -1.140176     -1.140262   1.000000   1.000000
   11       -0.610304     -0.610373   1.000000   1.000000
   12       -0.360804     -0.360885   1.000000   1.000000
   13        0.877061      0.877102   1.000000   1.000000
   14        1.324647      1.324618   1.000000   1.000000
   15        1.902413      1.902374   1.000000   1.000000
   16        2.530825      2.530811   1.000000   1.000000
   17        8.920869      8.920721   0.000000   0.000000
   18        9.592433      9.592442   0.000000   0.000000
   19       10.402380     10.402222   0.000000   0.000000
   20       11.556573     11.556225   0.000000   0.000000
   21       11.948830     11.948378   0.000000   0.000000
   22       13.434981     13.429590   0.000000   0.000000
 
 -0.1111111E+00  0.2500000E+00  0.2159857E-16  0.2777778E-02
    1      -19.379188    -19.379155   1.000000   1.000000
    2      -17.531991    -17.531945   1.000000   1.000000
    3      -13.869401    -13.869277   1.000000   1.000000
    4      -12.286108    -12.285987   1.000000   1.000000