       N       E                     dE             d eps       ncg     rms          rms(c)
DAV:   1     0.365591058708E+03    0.36559E+03   -0.28600E+04 15792   0.148E+03
DAV:   2    -0.188989003218E+02   -0.38449E+03   -0.37128E+03 20098   0.359E+02
DAV:   3    -0.429825186584E+02   -0.24084E+02   -0.23870E+02 23138   0.907E+01
DAV:   4    -0.438661777947E+02   -0.88366E+00   -0.87930E+00 26352   0.124E+01
DAV:   5    -0.439332721373E+02   -0.67094E-01   -0.67091E-01 21174   0.171E+00    0.151E+01
RMM:   6    -0.442232791238E+02   -0.29001E+00   -0.38215E+00 18101   0.104E+01    0.122E+01
RMM:   7    -0.434132764062E+02    0.81000E+00   -0.13976E+00 17651   0.656E+00    0.610E+00
RMM:   8    -0.432778815365E+02    0.13539E+00   -0.69961E-01 18101   0.477E+00    0.549E+00
RMM:   9    -0.430817888985E+02    0.19609E+00   -0.26907E-01 18455   0.296E+00    0.273E+00
RMM:  10    -0.430698033062E+02    0.11986E-01   -0.88523E-02 18904   0.177E+00    0.766E-01
RMM:  11    -0.430735705748E+02   -0.37673E-02   -0.18827E-02 21204   0.861E-01    0.331E-01
RMM:  12    -0.430749926132E+02   -0.14220E-02   -0.52674E-03 23603   0.429E-01    0.101E-01
RMM:  13    -0.430752033021E+02   -0.21069E-03   -0.15072E-03 25529   0.214E-01    0.479E-02
RMM:  14    -0.430753232019E+02   -0.11990E-03   -0.68243E-04 25979   0.138E-01    0.205E-02
RMM:  15    -0.430753628656E+02   -0.39664E-04   -0.28820E-04 25449   0.789E-02    0.136E-02
RMM:  16    -0.430753795868E+02   -0.16721E-04   -0.12643E-04 21592   0.534E-02    0.718E-03
RMM:  17    -0.430753834406E+02   -0.38538E-05   -0.42719E-05 16753   0.370E-02
   1 F= -.43075383E+02 E0= -.43075383E+02  d E =0.000000E+00  mag=    -0.0284
