   14   14    1    2
  0.1437062E+02  0.9456363E-09  0.8946148E-09  0.5050293E-09  0.5000000E-15
  1.000000000000000E-004
  CAR 
 unknown system                          
     80     64     56
 
  0.0000000E+00  0.0000000E+00  0.0000000E+00  0.2915452E-02
    1      -22.136123    -22.135931   1.000000   1.000000
    2      -21.469073    -21.468898   1.000000   1.000000
    3      -20.788445    -20.788265   1.000000   1.000000
    4      -19.569619    -19.569504   1.000000   1.000000
    5      -19.561913    -19.561798   1.000000   1.000000
    6      -19.506123    -19.505995   1.000000   1.000000
    7      -18.051585    -18.051404   1.000000   1.000000
    8      -17.696825    -17.696672   1.000000   1.000000
    9      -17.631140    -17.630990   1.000000   1.000000
   10      -17.613688    -17.613537   1.000000   1.000000
   11      -12.832309    -12.832055   1.000000   1.000000
   12      -11.261181    -11.260943   1.000000   1.000000
   13       -9.222543     -9.222322   1.000000   1.000000
   14       -7.917669     -7.917460   1.000000   1.000000
   15       -7.784334     -7.784132   1.000000   1.000000
   16       -7.489161     -7.488951   1.000000   1.000000
   17       -6.007265     -6.007040   1.000000   1.000000
   18       -5.801881     -5.801647   1.000000   1.000000
   19       -5.356217     -5.355952   1.000000   1.000000
   20       -4.313205     -4.312991   1.000000   1.000000
   21       -4.243710     -4.243542   1.000000   1.000000
   22       -4.239430     -4.239197   1.000000   1.000000
   23       -4.048979     -4.048790   1.000000   1.000000
   24       -4.001584     -4.001386   1.000000   1.000000
   25       -3.631815     -3.631651   1.000000   1.000000
   26       -3.444566     -3.444415   1.000000   1.000000
   27       -2.879627     -2.879439   1.000000   1.000000
   28       -2.550197     -2.550061   1.000000   1.000000
   29       -2.315274     -2.315137   1.000000   1.000000
   30       -2.226128     -2.226006   1.000000   1.000000
   31       -2.180418     -2.180284   1.000000   1.000000
   32       -1.724899     -1.724793   1.000000   1.000000
   33       -1.039376     -1.039207   1.000000   1.000000
   34       -1.029835     -1.029644   1.000000   1.000000
   35       -0.944712     -0.944552   1.000000   1.000000
   36       -0.853155     -0.852983   1.000000   1.000000
   37       -0.808189     -0.808009   1.000000   1.000000
   38       -0.686286     -0.686127   1.000000   1.000000
   39       -0.680088     -0.679930   1.000000   1.000000
   40       -0.554570     -0.554418   1.000000   1.000000
   41        3.632584      3.632855   0.000004   0.000000
   42        5.709260      5.709574   0.000000   0.000000
   43        6.331089      6.331146   0.000000   0.000000
   44        6.598361      6.598773   0.000000   0.000000
   45        6.919547      6.919916   0.000000   0.000000
   46        7.416562      7.416966   0.000000   0.000000
   47        7.634642      7.635078   0.000000   0.000000
   48        7.961538      7.961736   0.000000   0.000000
   49        7.982312      7.982711   0.000000   0.000000
   50        8.258032      8.258467   0.000000   0.000000
   51        8.896253      8.896682   0.000000   0.000000
   52        9.070790      9.071109   0.000000   0.000000
   53        9.169234      9.169412   0.000000   0.000000
   54        9.600922      9.601307   0.000000   0.000000
   55       10.217911     10.217981   0.000000   0.000000
   56       11.302645     11.301782   0.000000   0.000000
 
  0.1428571E+00  0.2331972E-16  0.4576661E-14  0.2332362E-01
    1      -22.102121    -22.101930   1.000000   1.000000
    2      -21.455088    -21.454912   1.000000   1.000000
    3      -20.802551    -20.802372   1.000000   1.000000
    4      -19.655927    -19.655804   1.000000   1.000000
    5      -19.564245    -19.564130   1.000000   1.000000
    6      -19.513780    -19.513652   1.000000   1.000000
    7      -18.011511    -18.011335   1.000000   1.000000
    8      -17.699082    -17.698929   1.000000   1.000000
    9      -17.640511    -17.640360   1.000000   1.000000
   10      -17.618836    -17.618685   1.000000   1.000000
   11      -12.738074    -12.737821   1.000000   1.000000
   12      -11.201157    -11.200921   1.000000   1.000000
   13       -9.331246     -9.331025   1.000000   1.000000
   14       -7.986205     -7.985998   1.000000   1.000000
   15       -7.722291     -7.722089   1.000000   1.000000
   16       -7.474354     -7.474145   1.000000   1.000000
   17       -5.932429     -5.932203   1.000000   1.000000
   18       -5.746019     -5.745785   1.000000   1.000000
   19       -5.346723     -5.346460   1.000000   1.000000
   20       -4.439462     -4.439256   1.000000   1.000000
   21       -4.329443     -4.329224   1.000000   1.000000
   22       -4.225593     -4.225387   1.000000   1.000000
   23       -3.996949     -3.996760   1.000000   1.000000
   24       -3.910732     -3.910551   1.000000   1.000000
   25       -3.593247     -3.593081   1.000000   1.000000
   26       -3.504578     -3.504423   1.000000   1.000000
   27       -2.879952     -2.879771   1.000000   1.000000
   28       -2.582439     -2.582301   1.000000   1.000000
   29       -2.434871     -2.434730   1.000000   1.000000
   30       -2.298298     -2.298168   1.000000   1.000000
   31       -2.224420     -2.224289   1.000000   1.000000
   32       -1.765182     -1.765080   1.000000   1.000000
   33       -1.015789     -1.015604   1.000000   1.000000
   34       -1.003573     -1.003400   1.000000   1.000000
   35       -0.922004     -0.921840   1.000000   1.000000
   36       -0.853921     -0.853747   1.000000   1.000000
   37       -0.797633     -0.797456   1.000000   1.000000
   38       -0.715954     -0.715793   1.000000   1.000000
   39       -0.673178     -0.673018   1.000000   1.000000
   40       -0.579774     -0.579621   1.000000   1.000000
   41        3.835008      3.835287  -0.000000  -0.000000
   42        5.786534      5.786829   0.000000   0.000000
   43        6.506073      6.506164   0.000000   0.000000
   44        6.683211      6.683611   0.000000   0.000000
   45        6.988265      6.988632   0.000000   0.000000
   46        7.388304      7.388712   0.000000   0.000000
   47        7.651490      7.651910   0.000000   0.000000
   48        7.838353      7.838678   0.000000   0.000000
   49        8.074515      8.074854   0.000000   0.000000
   50        8.256443      8.256826   0.000000   0.000000
   51        8.786114      8.786506   0.000000   0.000000
   52        9.069776      9.070083   0.000000   0.000000
   53        9.229127      9.229351   0.000000   0.000000
   54        9.568038      9.568383   0.000000   0.000000
   55       10.282034     10.282186   0.000000   0.000000
   56       11.196904     11.196027   0.000000   0.000000
 
  0.2857143E+00  0.5378719E-16 -0.5030638E-14  0.2332362E-01
    1      -22.020550    -22.020360   1.000000   1.000000
    2      -21.409225    -21.409047   1.000000   1.000000
    3      -20.857747    -20.857572   1.000000   1.000000
    4      -19.842160    -19.842023   1.000000   1.000000
    5      -19.564690    -19.564575   1.000000   1.000000
    6      -19.520710    -19.520583   1.000000   1.000000
    7      -17.943678    -17.943509   1.000000   1.000000
    8      -17.700622    -17.700469   1.000000   1.000000
    9      -17.662325    -17.662173   1.000000   1.000000
   10      -17.629107    -17.628957   1.000000   1.000000
   11      -12.523929    -12.523679   1.000000   1.000000
   12      -11.015525    -11.015291   1.000000   1.000000
   13       -9.626985     -9.626762   1.000000   1.000000
   14       -8.088120     -8.087912   1.000000   1.000000
   15       -7.651744     -7.651543   1.000000   1.000000
   16       -7.412646     -7.412441   1.000000   1.000000
   17       -5.755497     -5.755268   1.000000   1.000000
   18       -5.604528     -5.604291   1.000000   1.000000
   19       -5.316879     -5.316626   1.000000   1.000000
   20       -4.651340     -4.651119   1.000000   1.000000
   21       -4.475333     -4.475110   1.000000   1.000000
   22       -4.242946     -4.242743   1.000000   1.000000
   23       -3.940348     -3.940157   1.000000   1.000000
   24       -3.790644     -3.790475   1.000000   1.000000
   25       -3.666495     -3.666326   1.000000   1.000000
   26       -3.441166     -3.441002   1.000000   1.000000
   27       -2.908928     -2.908764   1.000000   1.000000
   28       -2.750207     -2.750056   1.000000   1.000000
   29       -2.576727     -2.576589   1.000000   1.000000
   30       -2.462131     -2.461997   1.000000   1.000000
   31       -2.311030     -2.310897   1.000000   1.000000
   32       -1.839281     -1.839180   1.000000   1.000000
   33       -0.990748     -0.990572   1.000000   1.000000
   34       -0.957325     -0.957143   1.000000   1.000000
   35       -0.887415     -0.887254   1.000000   1.000000
   36       -0.858739     -0.858566   1.000000   1.000000
   37       -0.807345     -0.807177   1.000000   1.000000
   38       -0.710290     -0.710117   1.000000   1.000000
   39       -0.655520     -0.655359   1.000000   1.000000
   40       -0.615460     -0.615305   1.000000   1.000000
   41        4.239361      4.239663   0.000000   0.000000
   42        6.010425      6.010698   0.000000   0.000000
   43        6.777975      6.778327   0.000000   0.000000
   44        6.906015      6.906245   0.000000   0.000000
   45        7.178023      7.178372   0.000000   0.000000
   46        7.336733      7.337135   0.000000   0.000000
   47        7.727431      7.727820   0.000000   0.000000
   48        7.836507      7.836875   0.000000   0.000000
   49        8.123668      8.124051   0.000000   0.000000
   50        8.294576      8.294915   0.000000   0.000000
   51        8.558156      8.558481   0.000000   0.000000
   52        9.040294      9.040580   0.000000   0.000000
   53        9.254962      9.255284   0.000000   0.000000
   54        9.503684      9.503899   0.000000   0.000000
   55       10.308841     10.309085   0.000000   0.000000
   56       10.945899     10.944968   0.000000   0.000000
 
  0.4285714E+00  0.3379491E-16 -0.4777035E-15  0.2332362E-01
    1      -21.949914    -21.949725   1.000000   1.000000
    2      -21.338809    -21.338628   1.000000   1.000000
    3      -20.948790    -20.948621   1.000000   1.000000
    4      -19.970999    -19.970853   1.000000   1.000000
    5      -19.564971    -19.564856   1.000000   1.000000
    6      -19.525301    -19.525173   1.000000   1.000000
    7      -17.908022    -17.907857   1.000000   1.000000
    8      -17.704093    -17.703940   1.000000   1.000000
    9      -17.664799    -17.664647   1.000000   1.000000
   10      -17.644093    -17.643942   1.000000   1.000000
   11      -12.352670    -12.352422   1.000000   1.000000
   12      -10.736214    -10.735983   1.000000   1.000000
   13       -9.992394     -9.992170   1.000000   1.000000
   14       -8.153547     -8.153338   1.000000   1.000000
   15       -7.619596     -7.619396   1.000000   1.000000
   16       -7.346181     -7.345979   1.000000   1.000000
   17       -5.578211     -5.577978   1.000000   1.000000
   18       -5.490370     -5.490126   1.000000   1.000000
   19       -5.245974     -5.245738   1.000000   1.000000
   20       -4.869189     -4.868956   1.000000   1.000000
   21       -4.567464     -4.567234   1.000000   1.000000
   22       -4.274636     -4.274442   1.000000   1.000000
   23       -4.006188     -4.005996   1.000000   1.000000
   24       -3.804403     -3.804223   1.000000   1.000000
   25       -3.592511     -3.592347   1.000000   1.000000
   26       -3.351783     -3.351611   1.000000   1.000000
   27       -2.996597     -2.996445   1.000000   1.000000
   28       -2.829819     -2.829676   1.000000   1.000000
   29       -2.692154     -2.692013   1.000000   1.000000
   30       -2.523327     -2.523188   1.000000   1.000000
   31       -2.423417     -2.423283   1.000000   1.000000
   32       -1.882126     -1.882023   1.000000   1.000000
   33       -1.038740     -1.038564   1.000000   1.000000
   34       -0.924679     -0.924493   1.000000   1.000000
   35       -0.888800     -0.888643   1.000000   1.000000
   36       -0.852448     -0.852277   1.000000   1.000000
   37       -0.760965     -0.760789   1.000000   1.000000
   38       -0.719227     -0.719061   1.000000   1.000000
   39       -0.639368     -0.639199   1.000000   1.000000
   40       -0.596530     -0.596375   1.000000   1.000000
   41        4.516172      4.516493   0.000000   0.000000
   42        6.287378      6.287680   0.000000   0.000000
   43        6.683718      6.684062   0.000000   0.000000
   44        7.185135      7.185483   0.000000   0.000000
   45        7.256617      7.256998   0.000000   0.000000
   46        7.555043      7.555349   0.000000   0.000000
   47        7.757578      7.757989   0.000000   0.000000
   48        7.961604      7.961975   0.000000   0.000000
   49        8.264992      8.265369   0.000000   0.000000
   50        8.335975      8.336287   0.000000   0.000000
   51        8.397087      8.397421   0.000000   0.000000
   52        9.013696      9.013996   0.000000   0.000000
   53        9.153411      9.153719   0.000000   0.000000
   54        9.456021      9.456179   0.000000   0.000000
   55       10.011238     10.011180   0.000000   0.000000
   56       10.800049     10.799346   0.000000   0.000000
 
  0.1428571E+00  0.1428571E+00  0.1435237E-16  0.5830904E-02
    1      -22.116558    -22.116366   1.000000   1.000000
    2      -21.541340    -21.541161   1.000000   1.000000
    3      -20.692878    -20.692702   1.000000   1.000000
    4      -19.581955    -19.581831   1.000000   1.000000
    5      -19.562097    -19.561982   1.000000   1.000000
    6      -19.555313    -19.555189   1.000000   1.000000
    7      -18.023893    -18.023715   1.000000   1.000000
    8      -17.711284    -17.711129   1.000000   1.000000
    9      -17.627196    -17.627045   1.000000   1.000000
   10      -17.613590    -17.613439   1.000000   1.000000
   11      -12.774630    -12.774377   1.000000   1.000000
   12      -11.384734    -11.384495   1.000000   1.000000
   13       -9.101917     -9.101697   1.000000   1.000000
   14       -7.939310     -7.939101   1.000000   1.000000
   15       -7.778158     -7.777956   1.000000   1.000000
   16       -7.526164     -7.525955   1.000000   1.000000
   17       -6.004900     -6.004674   1.000000   1.000000
   18       -5.832602     -5.832367   1.000000   1.000000
   19       -5.304586     -5.304324   1.000000   1.000000
   20       -4.367658     -4.367430   1.000000   1.000000
   21       -4.287578     -4.287363   1.000000   1.000000
   22       -4.223047     -4.222879   1.000000   1.000000
   23       -4.000200     -4.000011   1.000000   1.000000
   24       -3.994846     -3.994649   1.000000   1.000000
   25       -3.591314     -3.591148   1.000000   1.000000
   26       -3.455341     -3.455186   1.000000   1.000000
   27       -2.882484     -2.882300   1.000000   1.000000
   28       -2.610825     -2.610688   1.000000   1.000000
   29       -2.298028     -2.297884   1.000000   1.000000
   30       -2.187614     -2.187498   1.000000   1.000000
   31       -2.181869     -2.181734   1.000000   1.000000
   32       -1.739244     -1.739139   1.000000   1.000000
   33       -1.050994     -1.050823   1.000000   1.000000
   34       -1.028187     -1.027997   1.000000   1.000000
   35       -0.954192     -0.954029   1.000000   1.000000
   36       -0.891133     -0.890955   1.000000   1.000000
   37       -0.785271     -0.785098   1.000000   1.000000
   38       -0.689788     -0.689632   1.000000   1.000000
   39       -0.664932     -0.664773   1.000000   1.000000
   40       -0.557252     -0.557100   1.000000   1.000000
   41        3.733728      3.733997   0.000000   0.000000
   42        5.596565      5.596866   0.000000   0.000000
   43        6.353176      6.353263   0.000000   0.000000
   44        6.622400      6.622807   0.000000   0.000000
   45        6.983962      6.984305   0.000000   0.000000
   46        7.392971      7.393373   0.000000   0.000000
   47        7.632968      7.633402   0.000000   0.000000
   48        7.854524      7.854799   0.000000   0.000000
   49        7.946972      7.947374   0.000000   0.000000
   50        8.367506      8.367875   0.000000   0.000000
   51        8.836883      8.837267   0.000000   0.000000
   52        8.925698      8.925856   0.000000   0.000000
   53        9.153578      9.153938   0.000000   0.000000
   54        9.588621      9.588998   0.000000   0.000000
   55       10.506500     10.506646   0.000000   0.000000
   56       11.351887     11.350954   0.000000   0.000000
 
  0.2857143E+00  0.1428571E+00  0.1089230E-14  0.2332362E-01
    1      -22.063967    -22.063776   1.000000   1.000000
    2      -21.581105    -21.580924   1.000000   1.000000
    3      -20.634064    -20.633892   1.000000   1.000000
    4      -19.736656    -19.736523   1.000000   1.000000
    5      -19.564308    -19.564193   1.000000   1.000000
    6      -19.540297    -19.540174   1.000000   1.000000
    7      -17.968196    -17.968024   1.000000   1.000000
    8      -17.725407    -17.725252   1.000000   1.000000
    9      -17.633866    -17.633715   1.000000   1.000000
   10      -17.618390    -17.618239   1.000000   1.000000
   11      -12.627189    -12.626937   1.000000   1.000000
   12      -11.432577    -11.432338   1.000000   1.000000
   13       -9.111330     -9.111109   1.000000   1.000000
   14       -8.048696     -8.048487   1.000000   1.000000
   15       -7.716238     -7.716035   1.000000   1.000000
   16       -7.510470     -7.510263   1.000000   1.000000
   17       -5.930275     -5.930047   1.000000   1.000000
   18       -5.798638     -5.798401   1.000000   1.000000
   19       -5.251623     -5.251366   1.000000   1.000000
   20       -4.513530     -4.513302   1.000000   1.000000
   21       -4.393983     -4.393777   1.000000   1.000000
   22       -4.181525     -4.181330   1.000000   1.000000
   23       -3.961046     -3.960861   1.000000   1.000000
   24       -3.899499     -3.899320   1.000000   1.000000
   25       -3.594116     -3.593944   1.000000   1.000000
   26       -3.443819     -3.443663   1.000000   1.000000
   27       -2.902802     -2.902624   1.000000   1.000000
   28       -2.705318     -2.705175   1.000000   1.000000
   29       -2.383059     -2.382915   1.000000   1.000000
   30       -2.261845     -2.261709   1.000000   1.000000
   31       -2.196397     -2.196277   1.000000   1.000000
   32       -1.795840     -1.795738   1.000000   1.000000
   33       -1.029683     -1.029509   1.000000   1.000000
   34       -1.006121     -1.005935   1.000000   1.000000
   35       -0.935094     -0.934927   1.000000   1.000000
   36       -0.902326     -0.902151   1.000000   1.000000
   37       -0.768101     -0.767929   1.000000   1.000000
   38       -0.706465     -0.706305   1.000000   1.000000
   39       -0.662631     -0.662470   1.000000   1.000000
   40       -0.584167     -0.584014   1.000000   1.000000
   41        4.017067      4.017343   0.000000   0.000000
   42        5.580896      5.581179   0.000000   0.000000
   43        6.530485      6.530628   0.000000   0.000000
   44        6.732442      6.732835   0.000000   0.000000
   45        7.108217      7.108535   0.000000   0.000000
   46        7.346318      7.346733   0.000000   0.000000
   47        7.639419      7.639832   0.000000   0.000000
   48        7.745002      7.745346   0.000000   0.000000
   49        7.983015      7.983392   0.000000   0.000000
   50        8.376106      8.376418   0.000000   0.000000
   51        8.657574      8.657873   0.000000   0.000000
   52        8.918192      8.918450   0.000000   0.000000
   53        9.197634      9.197987   0.000000   0.000000
   54        9.547911      9.548262   0.000000   0.000000
   55       10.712025     10.712245   0.000000   0.000000
   56       11.300133     11.298687   0.000000   0.000000
 
  0.4285714E+00  0.1428571E+00 -0.4997121E-14  0.2332362E-01
    1      -21.974800    -21.974610   1.000000   1.000000
    2      -21.556603    -21.556421   1.000000   1.000000
    3      -20.669839    -20.669671   1.000000   1.000000
    4      -19.933075    -19.932931   1.000000   1.000000
    5      -19.564679    -19.564564   1.000000   1.000000
    6      -19.534648    -19.534523   1.000000   1.000000
    7      -17.909032    -17.908866   1.000000   1.000000
    8      -17.727975    -17.727821   1.000000   1.000000
    9      -17.655528    -17.655376   1.000000   1.000000
   10      -17.627175    -17.627024   1.000000   1.000000
   11      -12.397863    -12.397614   1.000000   1.000000
   12      -11.305431    -11.305194   1.000000   1.000000
   13       -9.369195     -9.368975   1.000000   1.000000
   14       -8.165543     -8.165333   1.000000   1.000000
   15       -7.663513     -7.663311   1.000000   1.000000
   16       -7.407006     -7.406804   1.000000   1.000000
   17       -5.756386     -5.756153   1.000000   1.000000
   18       -5.665531     -5.665294   1.000000   1.000000
   19       -5.193182     -5.192933   1.000000   1.000000
   20       -4.721547     -4.721318   1.000000   1.000000
   21       -4.537753     -4.537531   1.000000   1.000000
   22       -4.188121     -4.187926   1.000000   1.000000
   23       -3.939212     -3.939029   1.000000   1.000000
   24       -3.835452     -3.835277   1.000000   1.000000
   25       -3.611564     -3.611391   1.000000   1.000000
   26       -3.351253     -3.351094   1.000000   1.000000
   27       -3.025863     -3.025698   1.000000   1.000000
   28       -2.794892     -2.794737   1.000000   1.000000
   29       -2.554238     -2.554099   1.000000   1.000000
   30       -2.421173     -2.421034   1.000000   1.000000
   31       -2.282586     -2.282459   1.000000   1.000000
   32       -1.865967     -1.865865   1.000000   1.000000
   33       -1.019820     -1.019647   1.000000   1.000000
   34       -0.955013     -0.954826   1.000000   1.000000
   35       -0.897698     -0.897529   1.000000   1.000000
   36       -0.844595     -0.844429   1.000000   1.000000
   37       -0.814181     -0.814012   1.000000   1.000000
   38       -0.709605     -0.709429   1.000000   1.000000
   39       -0.650746     -0.650588   1.000000   1.000000
   40       -0.609708     -0.609550   1.000000   1.000000
   41        4.422909      4.423210   0.000000   0.000000
   42        5.778367      5.778638   0.000000   0.000000
   43        6.845124      6.845445   0.000000   0.000000
   44        6.930465      6.930780   0.000000   0.000000
   45        7.207954      7.208328   0.000000   0.000000
   46        7.381027      7.381373   0.000000   0.000000
   47        7.676167      7.676552   0.000000   0.000000
   48        7.818034      7.818400   0.000000   0.000000
   49        8.050887      8.051245   0.000000   0.000000
   50        8.346462      8.346741   0.000000   0.000000
   51        8.473972      8.474283   0.000000   0.000000
   52        8.941784      8.942075   0.000000   0.000000
   53        9.196970      9.197286   0.000000   0.000000
   54        9.460407      9.460676   0.000000   0.000000
   55       10.593415     10.593431   0.000000   0.000000
   56       11.061845     11.061220   0.000000   0.000000
 
 -0.4285714E+00  0.1428571E+00 -0.4152736E-14  0.2332362E-01
    1      -21.930741    -21.930553   1.000000   1.000000
    2      -21.423645    -21.423462   1.000000   1.000000
    3      -20.851017    -20.850850   1.000000   1.000000
    4      -20.004542    -20.004393   1.000000   1.000000
    5      -19.564967    -19.564852   1.000000   1.000000
    6      -19.529741    -19.529614   1.000000   1.000000
    7      -17.897158    -17.896993   1.000000   1.000000
    8      -17.712906    -17.712753   1.000000   1.000000
    9      -17.664328    -17.664176   1.000000   1.000000
   10      -17.641841    -17.641690   1.000000   1.000000
   11      -12.302708    -12.302460   1.000000   1.000000
   12      -10.920776    -10.920544   1.000000   1.000000
   13       -9.824826     -9.824604   1.000000   1.000000
   14       -8.182795     -8.182586   1.000000   1.000000
   15       -7.626976     -7.626776   1.000000   1.000000
   16       -7.337920     -7.337719   1.000000   1.000000
   17       -5.572984     -5.572749   1.000000   1.000000
   18       -5.532227     -5.531986   1.000000   1.000000
   19       -5.160019     -5.159785   1.000000   1.000000
   20       -4.914992     -4.914756   1.000000   1.000000
   21       -4.598464     -4.598233   1.000000   1.000000
   22       -4.258351     -4.258160   1.000000   1.000000
   23       -3.996947     -3.996759   1.000000   1.000000
   24       -3.821491     -3.821309   1.000000   1.000000
   25       -3.567155     -3.566990   1.000000   1.000000
   26       -3.323359     -3.323186   1.000000   1.000000
   27       -3.059947     -3.059798   1.000000   1.000000
   28       -2.838617     -2.838471   1.000000   1.000000
   29       -2.652573     -2.652432   1.000000   1.000000
   30       -2.543263     -2.543125   1.000000   1.000000
   31       -2.402882     -2.402749   1.000000   1.000000
   32       -1.890286     -1.890182   1.000000   1.000000
   33       -1.052659     -1.052484   1.000000   1.000000
   34       -0.916681     -0.916494   1.000000   1.000000
   35       -0.881368     -0.881211   1.000000   1.000000
   36       -0.851910     -0.851740   1.000000   1.000000
   37       -0.766099     -0.765924   1.000000   1.000000
   38       -0.731784     -0.731616   1.000000   1.000000
   39       -0.631759     -0.631591   1.000000   1.000000
   40       -0.593519     -0.593365   1.000000   1.000000
   41        4.584257      4.584577   0.000000   0.000000
   42        6.158755      6.159055   0.000000   0.000000
   43        6.754910      6.755261   0.000000   0.000000
   44        7.179962      7.180334   0.000000   0.000000
   45        7.269519      7.269879   0.000000   0.000000
   46        7.519245      7.519587   0.000000   0.000000
   47        7.827313      7.827694   0.000000   0.000000
   48        7.946312      7.946687   0.000000   0.000000
   49        8.223620      8.223951   0.000000   0.000000
   50        8.281610      8.281906   0.000000   0.000000
   51        8.482963      8.483315   0.000000   0.000000
   52        8.882993      8.883340   0.000000   0.000000
   53        9.185464      9.185707   0.000000   0.000000
   54        9.407939      9.408087   0.000000   0.000000
   55       10.094844     10.094760   0.000000   0.000000
   56       10.854079     10.853408   0.000000   0.000000
 
 -0.2857143E+00  0.1428571E+00  0.4834650E-15  0.2332362E-01
    1      -21.963504    -21.963314   1.000000   1.000000
    2      -21.226583    -21.226403   1.000000   1.000000
    3      -21.070670    -21.070499   1.000000   1.000000
    4      -19.946841    -19.946697   1.000000   1.000000
    5      -19.564948    -19.564833   1.000000   1.000000
    6      -19.521483    -19.521355   1.000000   1.000000
    7      -17.916290    -17.916124   1.000000   1.000000
    8      -17.697663    -17.697511   1.000000   1.000000
    9      -17.663951    -17.663800   1.000000   1.000000
   10      -17.646982    -17.646831   1.000000   1.000000
   11      -12.388846    -12.388598   1.000000   1.000000
   12      -10.490664    -10.490436   1.000000   1.000000
   13      -10.226579    -10.226353   1.000000   1.000000
   14       -8.132584     -8.132376   1.000000   1.000000
   15       -7.611863     -7.611664   1.000000   1.000000
   16       -7.353725     -7.353522   1.000000   1.000000
   17       -5.579545     -5.579313   1.000000   1.000000
   18       -5.441163     -5.440915   1.000000   1.000000
   19       -5.320105     -5.319872   1.000000   1.000000
   20       -4.852549     -4.852317   1.000000   1.000000
   21       -4.514138     -4.513906   1.000000   1.000000
   22       -4.335742     -4.335548   1.000000   1.000000
   23       -3.932992     -3.932804   1.000000   1.000000
   24       -3.846320     -3.846136   1.000000   1.000000
   25       -3.610642     -3.610479   1.000000   1.000000
   26       -3.376213     -3.376040   1.000000   1.000000
   27       -2.949225     -2.949075   1.000000   1.000000
   28       -2.800840     -2.800694   1.000000   1.000000
   29       -2.731612     -2.731475   1.000000   1.000000
   30       -2.511439     -2.511299   1.000000   1.000000
   31       -2.443801     -2.443665   1.000000   1.000000
   32       -1.878539     -1.878436   1.000000   1.000000
   33       -1.018843     -1.018667   1.000000   1.000000
   34       -0.937741     -0.937561   1.000000   1.000000
   35       -0.896930     -0.896762   1.000000   1.000000
   36       -0.856748     -0.856582   1.000000   1.000000
   37       -0.742237     -0.742060   1.000000   1.000000
   38       -0.718416     -0.718254   1.000000   1.000000
   39       -0.645119     -0.644949   1.000000   1.000000
   40       -0.599829     -0.599674   1.000000   1.000000
   41        4.467626      4.467947   0.000000   0.000000
   42        6.424491      6.424795   0.000000   0.000000
   43        6.574256      6.574592   0.000000   0.000000
   44        7.225218      7.225593   0.000000   0.000000
   45        7.279552      7.279882   0.000000   0.000000
   46        7.418101      7.418464   0.000000   0.000000
   47        7.878157      7.878521   0.000000   0.000000
   48        7.965408      7.965776   0.000000   0.000000
   49        8.270347      8.270712   0.000000   0.000000
   50        8.306553      8.306960   0.000000   0.000000
   51        8.469919      8.470213   0.000000   0.000000
   52        8.840361      8.840662   0.000000   0.000000
   53        9.248944      9.249192   0.000000   0.000000
   54        9.632463      9.632666   0.000000   0.000000
   55        9.856267      9.856347   0.000000   0.000000
   56       10.767128     10.766210   0.000000   0.000000
 