       N       E                     dE             d eps       ncg     rms          rms(c)
DAV:   1     0.516750183317E+03    0.51675E+03   -0.41817E+04 14432   0.131E+03
DAV:   2    -0.726598631394E+02   -0.58941E+03   -0.57187E+03 18008   0.313E+02
DAV:   3    -0.109572205107E+03   -0.36912E+02   -0.36617E+02 17680   0.820E+01
DAV:   4    -0.110072422633E+03   -0.50022E+00   -0.49869E+00 17440   0.105E+01
DAV:   5    -0.110081168325E+03   -0.87457E-02   -0.87433E-02 17184   0.134E+00    0.397E+01
DAV:   6    -0.927835175666E+02    0.17298E+02   -0.49829E+01 16712   0.327E+01    0.195E+01
DAV:   7    -0.970272283771E+02   -0.42437E+01   -0.87540E+00 16512   0.116E+01    0.627E+00
DAV:   8    -0.980217776206E+02   -0.99455E+00   -0.19708E+00 17320   0.508E+00    0.264E+00
DAV:   9    -0.980137089709E+02    0.80686E-02   -0.90473E-02 16416   0.165E+00    0.127E+00
DAV:  10    -0.980140070454E+02   -0.29807E-03   -0.21818E-02 18272   0.843E-01    0.368E-01
DAV:  11    -0.980145966123E+02   -0.58957E-03   -0.33277E-03 16584   0.310E-01    0.230E-01
DAV:  12    -0.980151059125E+02   -0.50930E-03   -0.15913E-03 17328   0.196E-01    0.101E-01
DAV:  13    -0.980151690321E+02   -0.63120E-04   -0.90542E-05 16504   0.631E-02    0.451E-02
DAV:  14    -0.980151931350E+02   -0.24103E-04   -0.10711E-04 16488   0.546E-02    0.181E-02
DAV:  15    -0.980151950846E+02   -0.19496E-05   -0.92171E-06 11256   0.212E-02
   1 F= -.98015195E+02 E0= -.98015195E+02  d E =0.000000E+00  mag=    -0.0002
