    8    8    1    2
  0.8664579E+01  0.4433348E-09  0.4871811E-09  0.4871811E-09  0.5000000E-15
  1.000000000000000E-004
  CAR 
 unknown system                          
     36    362     26
 
  0.0000000E+00  0.0000000E+00  0.0000000E+00  0.1388889E-02
    1      -37.600777    -37.600635   1.000000   1.000000
    2      -37.563316    -37.563180   1.000000   1.000000
    3      -13.903467    -13.903494   1.000000   1.000000
    4       -9.195762     -9.195802   1.000000   1.000000
    5       -8.988884     -8.988927   1.000000   1.000000
    6       -8.398789     -8.398833   1.000000   1.000000
    7       -6.376990     -6.377020   1.000000   1.000000
    8       -1.982933     -1.982955   1.000000   1.000000
    9       -1.758958     -1.758980   1.000000   1.000000
   10       -1.124371     -1.124394   1.000000   1.000000
   11        1.499757      1.499734   1.000000   1.000000
   12        2.928581      2.928581   1.000000   1.000000
   13        2.985038      2.985023   1.000000   1.000000
   14        3.962859      3.962850   1.000000   1.000000
   15        4.110077      4.110055   1.000000   1.000000
   16        4.507651      4.507626   1.000000   1.000000
   17        4.721996      4.721981   1.000000   1.000000
   18        5.074680      5.074643   1.000000   1.000000
   19        9.526883      9.526929   0.000000   0.000000
   20       12.227516     12.227540   0.000000   0.000000
   21       14.400690     14.400710   0.000000   0.000000
   22       14.786876     14.786887   0.000000   0.000000
   23       14.941879     14.941904   0.000000   0.000000
   24       15.244674     15.244728   0.000000   0.000000
   25       16.247356     16.247833   0.000000   0.000000
   26       16.741808     16.849537   0.000000   0.000000
 
  0.1111111E+00 -0.5234041E-18 -0.5916184E-17  0.2777778E-02
    1      -37.599713    -37.599570   1.000000   1.000000
    2      -37.564353    -37.564217   1.000000   1.000000
    3      -13.819877    -13.819908   1.000000   1.000000
    4       -9.559535     -9.559573   1.000000   1.000000
    5       -8.938192     -8.938235   1.000000   1.000000
    6       -8.445111     -8.445154   1.000000   1.000000
    7       -6.110935     -6.110966   1.000000   1.000000
    8       -1.980381     -1.980403   1.000000   1.000000
    9       -1.753811     -1.753833   1.000000   1.000000
   10       -1.011208     -1.011233   1.000000   1.000000
   11        1.407455      1.407436   1.000000   1.000000
   12        2.904501      2.904491   1.000000   1.000000
   13        3.045745      3.045740   1.000000   1.000000
   14        4.087178      4.087157   1.000000   1.000000
   15        4.149497      4.149472   1.000000   1.000000
   16        4.545675      4.545659   1.000000   1.000000
   17        4.751373      4.751340   1.000000   1.000000
   18        4.799184      4.799171   1.000000   1.000000
   19        9.866730      9.866772   0.000000   0.000000
   20       12.292784     12.292806   0.000000   0.000000
   21       14.139037     14.139012   0.000000   0.000000
   22       14.566617     14.566486   0.000000   0.000000
   23       14.803400     14.803415   0.000000   0.000000
   24       15.640746     15.621436   0.000000   0.000000
   25       16.024428     15.961368   0.000000   0.000000
   26       16.800202     16.622186   0.000000   0.000000
 
  0.2222222E+00  0.1219629E-17 -0.6960996E-16  0.2777778E-02
    1      -37.596672    -37.596529   1.000000   1.000000
    2      -37.567224    -37.567088   1.000000   1.000000
    3      -13.573433    -13.573462   1.000000   1.000000
    4      -10.247065    -10.247101   1.000000   1.000000
    5       -8.993529     -8.993572   1.000000   1.000000
    6       -8.519741     -8.519783   1.000000   1.000000
    7       -5.558338     -5.558369   1.000000   1.000000
    8       -2.001611     -2.001633   1.000000   1.000000
    9       -1.656104     -1.656127   1.000000   1.000000
   10       -0.766039     -0.766065   1.000000   1.000000
   11        1.302576      1.302560   1.000000   1.000000
   12        2.865479      2.865466   1.000000   1.000000
   13        3.168799      3.168791   1.000000   1.000000
   14        3.736342      3.736320   1.000000   1.000000
   15        4.186487      4.186460   1.000000   1.000000
   16        4.333440      4.333410   1.000000   1.000000
   17        4.745508      4.745497   1.000000   1.000000
   18        5.189066      5.189047   1.000000   1.000000
   19       10.757974     10.758004   0.000000   0.000000
   20       12.428883     12.428909   0.000000   0.000000
   21       13.299337     13.299333   0.000000   0.000000
   22       14.348468     14.348480   0.000000   0.000000
   23       14.631135     14.631163   0.000000   0.000000
   24       15.606886     15.606865   0.000000   0.000000
   25       16.075478     16.066655   0.000000   0.000000
   26       17.378733     17.188732   0.000000   0.000000
 
  0.3333333E+00  0.2151291E-16 -0.5470946E-16  0.2777778E-02
    1      -37.592231    -37.592086   1.000000   1.000000
    2      -37.571429    -37.571296   1.000000   1.000000
    3      -13.181686    -13.181715   1.000000   1.000000
    4      -11.012596    -11.012629   1.000000   1.000000
    5       -9.066256     -9.066297   1.000000   1.000000
    6       -8.609322     -8.609364   1.000000   1.000000
    7       -5.034417     -5.034446   1.000000   1.000000
    8       -2.047256     -2.047280   1.000000   1.000000
    9       -1.385354     -1.385380   1.000000   1.000000
   10       -0.609288     -0.609314   1.000000   1.000000
   11        1.427897      1.427882   1.000000   1.000000
   12        2.716808      2.716799   1.000000   1.000000
   13        2.892640      2.892623   1.000000   1.000000
   14        3.326242      3.326226   1.000000   1.000000
   15        4.102131      4.102119   1.000000   1.000000
   16        4.222847      4.222815   1.000000   1.000000
   17        5.069602      5.069584   1.000000   1.000000
   18        5.688234      5.688203   1.000000   1.000000
   19       11.846669     11.846688   0.000000   0.000000
   20       12.468303     12.468316   0.000000   0.000000
   21       12.718126     12.718145   0.000000   0.000000
   22       14.021247     14.021249   0.000000   0.000000
   23       14.444497     14.444644   0.000000   0.000000
   24       15.737133     15.735872   0.000000   0.000000
   25       16.283953     16.275397   0.000000   0.000000
   26       17.051881     17.135261   0.000000   0.000000
 
  0.4444444E+00  0.2439258E-17 -0.1392199E-15  0.2777778E-02
    1      -37.587889    -37.587739   1.000000   1.000000
    2      -37.575629    -37.575500   1.000000   1.000000
    3      -12.721523    -12.721553   1.000000   1.000000
    4      -11.678989    -11.679020   1.000000   1.000000
    5       -9.102512     -9.102552   1.000000   1.000000
    6       -8.679171     -8.679211   1.000000   1.000000
    7       -4.730232     -4.730259   1.000000   1.000000
    8       -2.038964     -2.038993   1.000000   1.000000
    9       -1.114902     -1.114931   1.000000   1.000000
   10       -0.612655     -0.612680   1.000000   1.000000
   11        1.810640      1.810623   1.000000   1.000000
   12        2.126150      2.126148   1.000000   1.000000
   13        2.501802      2.501781   1.000000   1.000000
   14        3.623361      3.623339   1.000000   1.000000
   15        3.982394      3.982375   1.000000   1.000000
   16        4.074688      4.074678   1.000000   1.000000
   17        5.347286      5.347259   1.000000   1.000000
   18        5.938834      5.938799   1.000000   1.000000
   19       12.010621     12.010629   0.000000   0.000000
   20       12.409283     12.409301   0.000000   0.000000
   21       13.375892     13.375881   0.000000   0.000000
   22       13.826316     13.826319   0.000000   0.000000
   23       14.376055     14.376063   0.000000   0.000000
   24       15.769027     15.768956   0.000000   0.000000
   25       16.320149     16.310258   0.000000   0.000000
   26       16.736696     16.660094   0.000000   0.000000
 
  0.1507444E-16  0.1250000E+00  0.5682982E-16  0.2777778E-02
    1      -37.600013    -37.599870   1.000000   1.000000
    2      -37.564103    -37.563967   1.000000   1.000000
    3      -13.833921    -13.833949   1.000000   1.000000
    4       -9.418622     -9.418662   1.000000   1.000000
    5       -9.037723     -9.037764   1.000000   1.000000
    6       -8.523533     -8.523576   1.000000   1.000000
    7       -6.023307     -6.023339   1.000000   1.000000
    8       -1.936455     -1.936478   1.000000   1.000000
    9       -1.754759     -1.754781   1.000000   1.000000
   10       -1.050866     -1.050891   1.000000   1.000000
   11        1.450637      1.450617   1.000000   1.000000
   12        2.960059      2.960046   1.000000   1.000000
   13        3.039494      3.039485   1.000000   1.000000
   14        3.854725      3.854705   1.000000   1.000000
   15        4.097707      4.097687   1.000000   1.000000
   16        4.441357      4.441343   1.000000   1.000000
   17        4.788649      4.788633   1.000000   1.000000
   18        4.983280      4.983247   1.000000   1.000000
   19        9.848635      9.848677   0.000000   0.000000
   20       12.401962     12.401980   0.000000   0.000000
   21       13.895047     13.895070   0.000000   0.000000
   22       14.200754     14.200761   0.000000   0.000000
   23       14.956930     14.956952   0.000000   0.000000
   24       15.529743     15.529736   0.000000   0.000000
   25       16.293461     16.293397   0.000000   0.000000
   26       16.899180     16.902573   0.000000   0.000000
 
  0.1111111E+00  0.1250000E+00  0.5662061E-16  0.2777778E-02
    1      -37.598288    -37.598145   1.000000   1.000000
    2      -37.565727    -37.565591   1.000000   1.000000
    3      -13.697884    -13.697912   1.000000   1.000000
    4       -9.908039     -9.908076   1.000000   1.000000
    5       -8.979933     -8.979975   1.000000   1.000000
    6       -8.605963     -8.606004   1.000000   1.000000
    7       -5.634040     -5.634072   1.000000   1.000000
    8       -1.894099     -1.894120   1.000000   1.000000
    9       -1.684583     -1.684607   1.000000   1.000000
   10       -0.955219     -0.955244   1.000000   1.000000
   11        1.394840      1.394823   1.000000   1.000000
   12        2.856799      2.856787   1.000000   1.000000
   13        3.095979      3.095966   1.000000   1.000000
   14        3.814124      3.814105   1.000000   1.000000
   15        4.157945      4.157916   1.000000   1.000000
   16        4.484427      4.484403   1.000000   1.000000
   17        4.693424      4.693410   1.000000   1.000000
   18        4.907920      4.907904   1.000000   1.000000
   19       10.395446     10.395483   0.000000   0.000000
   20       12.377078     12.377099   0.000000   0.000000
   21       13.512032     13.512036   0.000000   0.000000
   22       14.144376     14.144407   0.000000   0.000000
   23       15.078225     15.078212   0.000000   0.000000
   24       15.408197     15.408311   0.000000   0.000000
   25       15.866499     15.867286   0.000000   0.000000
   26       16.972751     16.868850   0.000000   0.000000
 
  0.2222222E+00  0.1250000E+00  0.4149910E-16  0.2777778E-02
    1      -37.594796    -37.594652   1.000000   1.000000
    2      -37.569041    -37.568906   1.000000   1.000000
    3      -13.403232    -13.403261   1.000000   1.000000
    4      -10.598089    -10.598125   1.000000   1.000000
    5       -9.051912     -9.051953   1.000000   1.000000
    6       -8.651557     -8.651598   1.000000   1.000000
    7       -5.121648     -5.121679   1.000000   1.000000
    8       -2.006415     -2.006438   1.000000   1.000000
    9       -1.447863     -1.447887   1.000000   1.000000
   10       -0.725104     -0.725132   1.000000   1.000000
   11        1.408964      1.408950   1.000000   1.000000
   12        2.724689      2.724676   1.000000   1.000000
   13        2.858230      2.858218   1.000000   1.000000
   14        3.600248      3.600233   1.000000   1.000000
   15        4.062898      4.062872   1.000000   1.000000
   16        4.423120      4.423090   1.000000   1.000000
   17        4.912737      4.912723   1.000000   1.000000
   18        5.292143      5.292120   1.000000   1.000000
   19       11.351266     11.351294   0.000000   0.000000
   20       12.335880     12.335905   0.000000   0.000000
   21       12.955455     12.955457   0.000000   0.000000
   22       14.207335     14.207377   0.000000   0.000000
   23       14.555626     14.555639   0.000000   0.000000
   24       15.312904     15.312942   0.000000   0.000000
   25       15.907772     15.906736   0.000000   0.000000
   26       17.470039     17.090571   0.000000   0.000000
 
  0.3333333E+00  0.1250000E+00  0.2371635E-16  0.2777778E-02
    1      -37.590271    -37.590124   1.000000   1.000000
    2      -37.573345    -37.573213   1.000000   1.000000
    3      -12.972506    -12.972535   1.000000   1.000000
    4      -11.320145    -11.320179   1.000000   1.000000
    5       -9.112848     -9.112889   1.000000   1.000000
    6       -8.717735     -8.717775   1.000000   1.000000
    7       -4.703871     -4.703901   1.000000   1.000000
    8       -2.100367     -2.100394   1.000000   1.000000
    9       -1.169046     -1.169072   1.000000   1.000000
   10       -0.601869     -0.601897   1.000000   1.000000
   11        1.645297      1.645282   1.000000   1.000000
   12        2.128758      2.128752   1.000000   1.000000
   13        2.777110      2.777095   1.000000   1.000000
   14        3.472124      3.472103   1.000000   1.000000
   15        4.057421      4.057408   1.000000   1.000000
   16        4.374996      4.374966   1.000000   1.000000
   17        5.142812      5.142792   1.000000   1.000000
   18        5.716621      5.716588   1.000000   1.000000
   19       12.054615     12.054632   0.000000   0.000000
   20       12.442646     12.442652   0.000000   0.000000
   21       12.760163     12.760168   0.000000   0.000000
   22       13.939518     13.939455   0.000000   0.000000
   23       14.405337     14.405289   0.000000   0.000000
   24       15.408809     15.408782   0.000000   0.000000
   25       16.234742     16.260440   0.000000   0.000000
   26       16.898699     16.933362   0.000000   0.000000
 
  0.4444444E+00  0.1250000E+00 -0.2811086E-16  0.2777778E-02
    1      -37.586827    -37.586675   1.000000   1.000000
    2      -37.576671    -37.576544   1.000000   1.000000
    3      -12.546043    -12.546074   1.000000   1.000000
    4      -11.866395    -11.866425   1.000000   1.000000
    5       -9.135176     -9.135215   1.000000   1.000000
    6       -8.751412     -8.751451   1.000000   1.000000
    7       -4.540587     -4.540614   1.000000   1.000000
    8       -2.183534     -2.183564   1.000000   1.000000
    9       -1.028055     -1.028082   1.000000   1.000000
   10       -0.541495     -0.541521   1.000000   1.000000
   11        1.627229      1.627227   1.000000   1.000000
   12        2.143575      2.143555   1.000000   1.000000
   13        2.567020      2.567005   1.000000   1.000000
   14        3.603650      3.603624   1.000000   1.000000
   15        4.056910      4.056899   1.000000   1.000000
   16        4.241736      4.241714   1.000000   1.000000
   17        5.302666      5.302640   1.000000   1.000000
   18        5.879601      5.879566   1.000000   1.000000
   19       11.873233     11.873233   0.000000   0.000000
   20       12.533814     12.533815   0.000000   0.000000
   21       13.250189     13.250192   0.000000   0.000000
   22       13.903999     13.903981   0.000000   0.000000
   23       14.530963     14.531007   0.000000   0.000000
   24       15.660942     15.661205   0.000000   0.000000
   25       16.257939     16.245243   0.000000   0.000000
   26       16.811932     16.873224   0.000000   0.000000
 
 -0.4444444E+00  0.1250000E+00  0.1189426E-15  0.2777778E-02
    1      -37.588828    -37.588680   1.000000   1.000000
    2      -37.574705    -37.574574   1.000000   1.000000
    3      -12.811466    -12.811496   1.000000   1.000000
    4      -11.527941    -11.527974   1.000000   1.000000
    5       -9.126552     -9.126592   1.000000   1.000000
    6       -8.706247     -8.706287   1.000000   1.000000
    7       -4.696992     -4.697020   1.000000   1.000000
    8       -2.298600     -2.298627   1.000000   1.000000
    9       -1.124346     -1.124372   1.000000   1.000000
   10       -0.447148     -0.447175   1.000000   1.000000
   11        1.452478      1.452464   1.000000   1.000000
   12        2.278936      2.278931   1.000000   1.000000
   13        2.877533      2.877510   1.000000   1.000000
   14        3.752197      3.752173   1.000000   1.000000
   15        3.916458      3.916433   1.000000   1.000000
   16        4.203877      4.203869   1.000000   1.000000
   17        5.229057      5.229034   1.000000   1.000000
   18        5.830464      5.830430   1.000000   1.000000
   19       11.891275     11.891280   0.000000   0.000000
   20       12.475636     12.475646   0.000000   0.000000
   21       12.967420     12.967424   0.000000   0.000000
   22       14.008792     14.008822   0.000000   0.000000
   23       14.760296     14.760331   0.000000   0.000000
   24       15.820084     15.820633   0.000000   0.000000
   25       16.091598     16.118070   0.000000   0.000000
   26       16.798020     16.829877   0.000000   0.000000
 
 -0.3333333E+00  0.1250000E+00  0.1405268E-15  0.2777778E-02
    1      -37.593343    -37.593198   1.000000   1.000000
    2      -37.570328    -37.570194   1.000000   1.000000
    3      -13.269777    -13.269809   1.000000   1.000000
    4      -10.819430    -10.819464   1.000000   1.000000
    5       -9.079267     -9.079308   1.000000   1.000000
    6       -8.608795     -8.608837   1.000000   1.000000
    7       -5.124476     -5.124506   1.000000   1.000000
    8       -2.356067     -2.356088   1.000000   1.000000
    9       -1.299183     -1.299208   1.000000   1.000000
   10       -0.482480     -0.482508   1.000000   1.000000
   11        1.169278      1.169266   1.000000   1.000000
   12        2.891115      2.891101   1.000000   1.000000
   13        3.196058      3.196038   1.000000   1.000000
   14        3.541355      3.541340   1.000000   1.000000
   15        4.035466      4.035434   1.000000   1.000000
   16        4.237682      4.237666   1.000000   1.000000
   17        4.977261      4.977246   1.000000   1.000000
   18        5.553277      5.553251   1.000000   1.000000
   19       11.458783     11.458805   0.000000   0.000000
   20       12.593150     12.593163   0.000000   0.000000
   21       12.833034     12.833029   0.000000   0.000000
   22       14.099031     14.099047   0.000000   0.000000
   23       14.708809     14.708830   0.000000   0.000000
   24       15.662059     15.661910   0.000000   0.000000
   25       16.103984     16.102913   0.000000   0.000000
   26       16.736083     16.695418   0.000000   0.000000
 
 -0.2222222E+00  0.1250000E+00  0.8603833E-16  0.2777778E-02
    1      -37.597282    -37.597138   1.000000   1.000000
    2      -37.566599    -37.566463   1.000000   1.000000
    3      -13.613148    -13.613178   1.000000   1.000000
    4      -10.105749    -10.105785   1.000000   1.000000
    5       -9.016859     -9.016900   1.000000   1.000000
    6       -8.512833     -8.512876   1.000000   1.000000
    7       -5.653118     -5.653149   1.000000   1.000000
    8       -2.306154     -2.306173   1.000000   1.000000
    9       -1.472734     -1.472758   1.000000   1.000000
   10       -0.690171     -0.690198   1.000000   1.000000
   11        1.163313      1.163299   1.000000   1.000000
   12        3.069960      3.069944   1.000000   1.000000
   13        3.197110      3.197097   1.000000   1.000000
   14        3.843392      3.843373   1.000000   1.000000
   15        4.142573      4.142547   1.000000   1.000000
   16        4.385966      4.385938   1.000000   1.000000
   17        4.725325      4.725312   1.000000   1.000000
   18        5.131253      5.131239   1.000000   1.000000
   19       10.536471     10.536504   0.000000   0.000000
   20       12.566930     12.566946   0.000000   0.000000
   21       13.516784     13.516786   0.000000   0.000000
   22       14.294240     14.294265   0.000000   0.000000
   23       14.723489     14.723518   0.000000   0.000000
   24       15.304085     15.304051   0.000000   0.000000
   25       16.244778     16.301559   0.000000   0.000000
   26       16.686569     17.694478   0.000000   0.000000
 
 -0.1111111E+00  0.1250000E+00  0.5088891E-16  0.2777778E-02
    1      -37.599668    -37.599525   1.000000   1.000000
    2      -37.564395    -37.564258   1.000000   1.000000
    3      -13.804986    -13.805015   1.000000   1.000000
    4       -9.531358     -9.531396   1.000000   1.000000
    5       -9.033515     -9.033556   1.000000   1.000000
    6       -8.461939     -8.461983   1.000000   1.000000
    7       -6.037261     -6.037293   1.000000   1.000000
    8       -2.162274     -2.162294   1.000000   1.000000
    9       -1.613199     -1.613222   1.000000   1.000000
   10       -0.937468     -0.937493   1.000000   1.000000
   11        1.345600      1.345581   1.000000   1.000000
   12        3.001987      3.001976   1.000000   1.000000
   13        3.101700      3.101688   1.000000   1.000000
   14        3.864203      3.864184   1.000000   1.000000
   15        4.133822      4.133797   1.000000   1.000000
   16        4.473758      4.473747   1.000000   1.000000
   17        4.810420      4.810402   1.000000   1.000000
   18        4.979235      4.979207   1.000000   1.000000
   19        9.906525      9.906562   0.000000   0.000000
   20       12.460260     12.460276   0.000000   0.000000
   21       13.905068     13.905085   0.000000   0.000000
   22       14.555263     14.555249   0.000000   0.000000
   23       14.759511     14.759593   0.000000   0.000000
   24       15.127628     15.127747   0.000000   0.000000
   25       16.473598     16.494527   0.000000   0.000000
   26       17.057365     17.056308   0.000000   0.000000
 
  0.3014889E-16  0.2500000E+00  0.1136596E-15  0.2777778E-02
    1      -37.597954    -37.597810   1.000000   1.000000
    2      -37.566077    -37.565942   1.000000   1.000000
    3      -13.643319    -13.643347   1.000000   1.000000
    4      -10.021703    -10.021740   1.000000   1.000000
    5       -9.076181     -9.076222   1.000000   1.000000
    6       -8.653427     -8.653469   1.000000   1.000000
    7       -5.378506     -5.378539   1.000000   1.000000
    8       -1.830929     -1.830953   1.000000   1.000000
    9       -1.670970     -1.670993   1.000000   1.000000
   10       -0.907071     -0.907097   1.000000   1.000000
   11        1.417339      1.417322   1.000000   1.000000
   12        2.920178      2.920151   1.000000   1.000000
   13        2.978358      2.978342   1.000000   1.000000
   14        3.457422      3.457420   1.000000   1.000000
   15        4.122120      4.122094   1.000000   1.000000
   16        4.473253      4.473243   1.000000   1.000000
   17        4.720069      4.720048   1.000000   1.000000
   18        5.189989      5.189966   1.000000   1.000000
   19       10.709657     10.709690   0.000000   0.000000
   20       12.385937     12.385943   0.000000   0.000000
   21       13.173231     13.173263   0.000000   0.000000
   22       13.745828     13.745856   0.000000   0.000000
   23       14.895637     14.895642   0.000000   0.000000
   24       15.746500     15.747802   0.000000   0.000000
   25       16.241049     16.245485   0.000000   0.000000
   26       17.023452     17.310636   0.000000   0.000000
 
  0.1111111E+00  0.2500000E+00  0.1563157E-15  0.2777778E-02
    1      -37.595935    -37.595791   1.000000   1.000000
    2      -37.567981    -37.567845   1.000000   1.000000
    3      -13.472877    -13.472906   1.000000   1.000000
    4      -10.447730    -10.447766   1.000000   1.000000
    5       -9.070647     -9.070688   1.000000   1.000000
    6       -8.712580     -8.712621   1.000000   1.000000
    7       -5.047499     -5.047531   1.000000   1.000000
    8       -1.935486     -1.935509   1.000000   1.000000
    9       -1.404967     -1.404993   1.000000   1.000000
   10       -0.827873     -0.827901   1.000000   1.000000
   11        1.446755      1.446740   1.000000   1.000000
   12        2.649641      2.649621   1.000000   1.000000
   13        2.861665      2.861653   1.000000   1.000000
   14        3.525020      3.525011   1.000000   1.000000
   15        4.099169      4.099143   1.000000   1.000000
   16        4.420132      4.420106   1.000000   1.000000
   17        4.871377      4.871364   1.000000   1.000000
   18        5.234317      5.234294   1.000000   1.000000
   19       11.315302     11.315328   0.000000   0.000000
   20       12.222337     12.222354   0.000000   0.000000
   21       12.920175     12.920196   0.000000   0.000000
   22       13.786453     13.786451   0.000000   0.000000
   23       14.978340     14.978323   0.000000   0.000000
   24       15.510878     15.510777   0.000000   0.000000
   25       15.888564     15.888626   0.000000   0.000000
   26       16.937296     16.960097   0.000000   0.000000
 
  0.2222222E+00  0.2500000E+00  0.4404968E-16  0.2777778E-02
    1      -37.592456    -37.592311   1.000000   1.000000
    2      -37.571247    -37.571113   1.000000   1.000000
    3      -13.153099    -13.153129   1.000000   1.000000
    4      -11.016130    -11.016165   1.000000   1.000000
    5       -9.159911     -9.159950   1.000000   1.000000
    6       -8.759898     -8.759938   1.000000   1.000000
    7       -4.622019     -4.622050   1.000000   1.000000
    8       -2.140230     -2.140256   1.000000   1.000000
    9       -1.166804     -1.166829   1.000000   1.000000
   10       -0.610758     -0.610788   1.000000   1.000000
   11        1.517895      1.517882   1.000000   1.000000
   12        2.102196      2.102188   1.000000   1.000000
   13        2.780969      2.780955   1.000000   1.000000
   14        3.739299      3.739282   1.000000   1.000000
   15        4.012278      4.012251   1.000000   1.000000
   16        4.541165      4.541137   1.000000   1.000000
   17        5.058320      5.058299   1.000000   1.000000
   18        5.395575      5.395550   1.000000   1.000000
   19       11.910418     11.910437   0.000000   0.000000
   20       12.304913     12.304934   0.000000   0.000000
   21       12.650170     12.650184   0.000000   0.000000
   22       13.726184     13.726190   0.000000   0.000000
   23       14.812276     14.812276   0.000000   0.000000
   24       15.307402     15.307603   0.000000   0.000000
   25       15.876993     15.877005   0.000000   0.000000
   26       17.126691     16.903011   0.000000   0.000000
 
  0.3333333E+00  0.2500000E+00  0.9751953E-18  0.2777778E-02
    1      -37.588403    -37.588253   1.000000   1.000000
    2      -37.575150    -37.575020   1.000000   1.000000
    3      -12.702515    -12.702548   1.000000   1.000000
    4      -11.634061    -11.634094   1.000000   1.000000
    5       -9.203529     -9.203568   1.000000   1.000000
    6       -8.834898     -8.834938   1.000000   1.000000
    7       -4.274610     -4.274639   1.000000   1.000000
    8       -2.397781     -2.397812   1.000000   1.000000
    9       -0.972727     -0.972751   1.000000   1.000000
   10       -0.476373     -0.476402   1.000000   1.000000
   11        1.468100      1.468097   1.000000   1.000000
   12        2.023864      2.023849   1.000000   1.000000
   13        2.666832      2.666816   1.000000   1.000000
   14        3.735305      3.735280   1.000000   1.000000
   15        4.161649      4.161627   1.000000   1.000000
   16        4.603331      4.603303   1.000000   1.000000
   17        5.076452      5.076432   1.000000   1.000000
   18        5.637192      5.637161   1.000000   1.000000
   19       11.965289     11.965304   0.000000   0.000000
   20       12.375091     12.375098   0.000000   0.000000
   21       13.064537     13.064553   0.000000   0.000000
   22       13.465017     13.465050   0.000000   0.000000
   23       14.773487     14.773540   0.000000   0.000000
   24       15.562237     15.563958   0.000000   0.000000
   25       15.958768     15.979712   0.000000   0.000000
   26       16.803093     16.806983   0.000000   0.000000
 
  0.4444444E+00  0.2500000E+00  0.8299819E-16  0.2777778E-02
    1      -37.586368    -37.586215   1.000000   1.000000
    2      -37.577126    -37.577000   1.000000   1.000000
    3      -12.327587    -12.327619   1.000000   1.000000
    4      -12.048106    -12.048138   1.000000   1.000000
    5       -9.195107     -9.195146   1.000000   1.000000
    6       -8.869414     -8.869452   1.000000   1.000000
    7       -4.203375     -4.203403   1.000000   1.000000
    8       -2.664232     -2.664262   1.000000   1.000000
    9       -0.897929     -0.897952   1.000000   1.000000
   10       -0.328321     -0.328350   1.000000   1.000000
   11        1.411755      1.411750   1.000000   1.000000
   12        2.141442      2.141425   1.000000   1.000000
   13        2.739271      2.739253   1.000000   1.000000
   14        3.570818      3.570792   1.000000   1.000000
   15        4.356783      4.356764   1.000000   1.000000
   16        4.499853      4.499828   1.000000   1.000000
   17        5.168744      5.168721   1.000000   1.000000
   18        5.715437      5.715403   1.000000   1.000000
   19       11.880490     11.880481   0.000000   0.000000
   20       12.402312     12.402310   0.000000   0.000000
   21       13.065849     13.065863   0.000000   0.000000
   22       13.790077     13.789991   0.000000   0.000000
   23       15.004367     15.004223   0.000000   0.000000
   24       15.464102     15.464587   0.000000   0.000000
   25       16.091741     16.091981   0.000000   0.000000