       N       E                     dE             d eps       ncg     rms          rms(c)
DAV:   1     0.213260506979E+03    0.21326E+03   -0.17981E+04 37648   0.139E+03
DAV:   2    -0.410799805407E+02   -0.25434E+03   -0.24626E+03 45910   0.338E+02
DAV:   3    -0.584784355994E+02   -0.17398E+02   -0.17314E+02 62052   0.813E+01
DAV:   4    -0.595117698264E+02   -0.10333E+01   -0.10304E+01 56368   0.162E+01
DAV:   5    -0.595485711990E+02   -0.36801E-01   -0.36799E-01 56180   0.261E+00    0.308E+01
RMM:   6    -0.527334709227E+02    0.68151E+01   -0.20385E+01 41154   0.229E+01    0.142E+01
RMM:   7    -0.529600912772E+02   -0.22662E+00   -0.62365E+00 54949   0.136E+01    0.668E+00
RMM:   8    -0.530594545497E+02   -0.99363E-01   -0.60036E-01 60304   0.545E+00    0.350E+00
RMM:   9    -0.530647069561E+02   -0.52524E-02   -0.25635E-01 59410   0.342E+00    0.114E+00
RMM:  10    -0.530774706650E+02   -0.12764E-01   -0.12771E-01 67031   0.208E+00    0.381E-01
RMM:  11    -0.530822273573E+02   -0.47567E-02   -0.61029E-02 70400   0.117E+00    0.250E-01
RMM:  12    -0.530850151412E+02   -0.27878E-02   -0.23990E-02 72881   0.717E-01    0.202E-01
RMM:  13    -0.530860549240E+02   -0.10398E-02   -0.90741E-03 72319   0.436E-01    0.656E-02
RMM:  14    -0.530864497773E+02   -0.39485E-03   -0.33401E-03 71059   0.286E-01    0.411E-02
RMM:  15    -0.530866253814E+02   -0.17560E-03   -0.15217E-03 71339   0.186E-01    0.275E-02
RMM:  16    -0.530866895245E+02   -0.64143E-04   -0.60138E-04 69946   0.121E-01    0.145E-02
RMM:  17    -0.530867157823E+02   -0.26258E-04   -0.28889E-04 67396   0.851E-02    0.787E-03
RMM:  18    -0.530867314051E+02   -0.15623E-04   -0.11378E-04 56970   0.601E-02    0.486E-03
RMM:  19    -0.530867351750E+02   -0.37699E-05   -0.44248E-05 48288   0.481E-02
   1 F= -.53086735E+02 E0= -.53086735E+02  d E =0.000000E+00  mag=    -0.0000
