   4   4   1   0
  0.1135433E+02  0.3300366E-09  0.3300366E-09  0.4988583E-09  0.5000000E-15
  1.000000000000000E-004
  CAR 
 unknown system                          
     17.96687078    -46.21895057  301      0.90413994      1.00000000
    -46.219  0.0000E+00  0.0000E+00  0.0000E+00  0.0000E+00
    -46.005  0.0000E+00  0.0000E+00  0.0000E+00  0.0000E+00
    -45.791  0.0000E+00  0.0000E+00  0.0000E+00  0.0000E+00
    -45.577  0.0000E+00  0.0000E+00  0.0000E+00  0.0000E+00
    -45.363  0.0000E+00  0.0000E+00  0.0000E+00  0.0000E+00
    -45.149  0.0000E+00  0.0000E+00  0.0000E+00  0.0000E+00
    -44.935  0.0000E+00  0.0000E+00  0.0000E+00  0.0000E+00
    -44.721  0.0000E+00  0.0000E+00  0.0000E+00  0.0000E+00
    -44.507  0.0000E+00  0.0000E+00  0.0000E+00  0.0000E+00
    -44.293  0.0000E+00  0.0000E+00  0.0000E+00  0.0000E+00
    -44.079  0.0000E+00  0.0000E+00  0.0000E+00  0.0000E+00
    -43.865  0.0000E+00  0.0000E+00  0.0000E+00  0.0000E+00
    -43.652  0.0000E+00  0.0000E+00  0.0000E+00  0.0000E+00
    -43.438  0.0000E+00  0.0000E+00  0.0000E+00  0.0000E+00
    -43.224  0.0000E+00  0.0000E+00  0.1010E-01  0.1010E-01
    -43.010  0.0000E+00  0.0000E+00  0.1010E-01  0.1010E-01
    -42.796  0.0000E+00  0.0000E+00  0.1010E-01  0.1010E-01
    -42.582  0.0000E+00  0.0000E+00  0.1010E-01  0.1010E-01
    -42.368  0.0000E+00  0.0000E+00  0.1010E-01  0.1010E-01
    -42.154  0.0000E+00  0.0000E+00  0.1010E-01  0.1010E-01
    -41.940  0.0000E+00  0.0000E+00  0.1010E-01  0.1010E-01
    -41.726  0.0000E+00  0.0000E+00  0.1010E-01  0.1010E-01
    -41.512  0.0000E+00  0.0000E+00  0.1010E-01  0.1010E-01
    -41.298  0.0000E+00  0.0000E+00  0.1010E-01  0.1010E-01
    -41.084  0.0000E+00  0.0000E+00  0.1010E-01  0.1010E-01
    -40.870  0.0000E+00  0.0000E+00  0.1010E-01  0.1010E-01
    -40.656  0.0000E+00  0.0000E+00  0.1010E-01  0.1010E-01
    -40.442  0.0000E+00  0.0000E+00  0.1010E-01  0.1010E-01
    -40.228  0.0000E+00  0.0000E+00  0.1010E-01  0.1010E-01
    -40.014  0.0000E+00  0.0000E+00  0.1010E-01  0.1010E-01
    -39.800  0.0000E+00  0.0000E+00  0.1010E-01  0.1010E-01
    -39.586  0.0000E+00  0.0000E+00  0.1010E-01  0.1010E-01
    -39.372  0.0000E+00  0.0000E+00  0.1010E-01  0.1010E-01
    -39.159  0.0000E+00  0.0000E+00  0.1010E-01  0.1010E-01
    -38.945  0.0000E+00  0.0000E+00  0.1010E-01  0.1010E-01
    -38.731  0.0000E+00  0.0000E+00  0.1010E-01  0.1010E-01
    -38.517  0.0000E+00  0.0000E+00  0.1010E-01  0.1010E-01
    -38.303  0.0000E+00  0.0000E+00  0.1010E-01  0.1010E-01
    -38.089  0.0000E+00  0.0000E+00  0.1010E-01  0.1010E-01
    -37.875  0.0000E+00  0.0000E+00  0.1010E-01  0.1010E-01
    -37.661  0.0000E+00  0.0000E+00  0.1010E-01  0.1010E-01
    -37.447  0.0000E+00  0.0000E+00  0.1010E-01  0.1010E-01
    -37.233  0.0000E+00  0.0000E+00  0.1010E-01  0.1010E-01
    -37.019  0.0000E+00  0.0000E+00  0.1010E-01  0.1010E-01
    -36.805  0.0000E+00  0.0000E+00  0.1010E-01  0.1010E-01
    -36.591  0.0000E+00  0.0000E+00  0.1010E-01  0.1010E-01
    -36.377  0.0000E+00  0.0000E+00  0.1010E-01  0.1010E-01
    -36.163  0.0000E+00  0.0000E+00  0.1010E-01  0.1010E-01
    -35.949  0.0000E+00  0.0000E+00  0.1010E-01  0.1010E-01
    -35.735  0.0000E+00  0.0000E+00  0.1010E-01  0.1010E-01
    -35.521  0.0000E+00  0.0000E+00  0.1010E-01  0.1010E-01
    -35.307  0.0000E+00  0.0000E+00  0.1010E-01  0.1010E-01
    -35.093  0.0000E+00  0.0000E+00  0.1010E-01  0.1010E-01
    -34.879  0.0000E+00  0.0000E+00  0.1010E-01  0.1010E-01
    -34.666  0.0000E+00  0.0000E+00  0.1010E-01  0.1010E-01
    -34.452  0.0000E+00  0.0000E+00  0.1010E-01  0.1010E-01
    -34.238  0.0000E+00  0.0000E+00  0.1010E-01  0.1010E-01
    -34.024  0.0000E+00  0.0000E+00  0.1010E-01  0.1010E-01
    -33.810  0.0000E+00  0.0000E+00  0.1010E-01  0.1010E-01
    -33.596  0.0000E+00  0.0000E+00  0.1010E-01  0.1010E-01
    -33.382  0.0000E+00  0.0000E+00  0.1010E-01  0.1010E-01
    -33.168  0.0000E+00  0.0000E+00  0.1010E-01  0.1010E-01
    -32.954  0.0000E+00  0.0000E+00  0.1010E-01  0.1010E-01
    -32.740  0.0000E+00  0.0000E+00  0.1010E-01  0.1010E-01
    -32.526  0.0000E+00  0.0000E+00  0.1010E-01  0.1010E-01
    -32.312  0.0000E+00  0.0000E+00  0.1010E-01  0.1010E-01
    -32.098  0.0000E+00  0.0000E+00  0.1010E-01  0.1010E-01
    -31.884  0.0000E+00  0.0000E+00  0.1010E-01  0.1010E-01
    -31.670  0.0000E+00  0.0000E+00  0.1010E-01  0.1010E-01
    -31.456  0.0000E+00  0.0000E+00  0.1010E-01  0.1010E-01
    -31.242  0.0000E+00  0.0000E+00  0.1010E-01  0.1010E-01
    -31.028  0.0000E+00  0.0000E+00  0.1010E-01  0.1010E-01
    -30.814  0.0000E+00  0.0000E+00  0.1010E-01  0.1010E-01
    -30.600  0.0000E+00  0.0000E+00  0.1010E-01  0.1010E-01
    -30.386  0.0000E+00  0.0000E+00  0.1010E-01  0.1010E-01
    -30.172  0.0000E+00  0.0000E+00  0.1010E-01  0.1010E-01
    -29.959  0.0000E+00  0.0000E+00  0.1010E-01  0.1010E-01
    -29.745  0.0000E+00  0.0000E+00  0.1010E-01  0.1010E-01
    -29.531  0.0000E+00  0.0000E+00  0.1010E-01  0.1010E-01
    -29.317  0.0000E+00  0.0000E+00  0.1010E-01  0.1010E-01
    -29.103  0.0000E+00  0.0000E+00  0.1010E-01  0.1010E-01
    -28.889  0.0000E+00  0.0000E+00  0.1010E-01  0.1010E-01
    -28.675  0.0000E+00  0.0000E+00  0.1010E-01  0.1010E-01
    -28.461  0.0000E+00  0.0000E+00  0.1010E-01  0.1010E-01
    -28.247  0.0000E+00  0.0000E+00  0.1010E-01  0.1010E-01
    -28.033  0.0000E+00  0.0000E+00  0.1010E-01  0.1010E-01
    -27.819  0.0000E+00  0.0000E+00  0.1010E-01  0.1010E-01
    -27.605  0.0000E+00  0.0000E+00  0.1010E-01  0.1010E-01
    -27.391  0.0000E+00  0.0000E+00  0.1010E-01  0.1010E-01
    -27.177  0.0000E+00  0.0000E+00  0.1010E-01  0.1010E-01
    -26.963  0.0000E+00  0.0000E+00  0.1010E-01  0.1010E-01
    -26.749  0.0000E+00  0.0000E+00  0.1010E-01  0.1010E-01
    -26.535  0.0000E+00  0.0000E+00  0.1010E-01  0.1010E-01
    -26.321  0.0000E+00  0.0000E+00  0.1010E-01  0.1010E-01
    -26.107  0.0000E+00  0.0000E+00  0.1010E-01  0.1010E-01
    -25.893  0.0000E+00  0.0000E+00  0.1010E-01  0.1010E-01
    -25.679  0.0000E+00  0.0000E+00  0.1010E-01  0.1010E-01
    -25.466  0.0000E+00  0.0000E+00  0.1010E-01  0.1010E-01
    -25.252  0.0000E+00  0.0000E+00  0.1010E-01  0.1010E-01
    -25.038  0.0000E+00  0.0000E+00  0.1010E-01  0.1010E-01
    -24.824  0.0000E+00  0.0000E+00  0.1010E-01  0.1010E-01
    -24.610  0.0000E+00  0.0000E+00  0.1010E-01  0.1010E-01
    -24.396  0.0000E+00  0.0000E+00  0.1010E-01  0.1010E-01
    -24.182  0.0000E+00  0.0000E+00  0.1010E-01  0.1010E-01
    -23.968  0.0000E+00  0.0000E+00  0.1010E-01  0.1010E-01
    -23.754  0.0000E+00  0.0000E+00  0.1010E-01  0.1010E-01
    -23.540  0.0000E+00  0.0000E+00  0.1010E-01  0.1010E-01
    -23.326  0.0000E+00  0.0000E+00  0.1010E-01  0.1010E-01
    -23.112  0.0000E+00  0.0000E+00  0.1010E-01  0.1010E-01
    -22.898  0.0000E+00  0.0000E+00  0.1010E-01  0.1010E-01
    -22.684  0.0000E+00  0.0000E+00  0.1010E-01  0.1010E-01
    -22.470  0.0000E+00  0.0000E+00  0.1010E-01  0.1010E-01
    -22.256  0.0000E+00  0.0000E+00  0.1010E-01  0.1010E-01
    -22.042  0.0000E+00  0.0000E+00  0.1010E-01  0.1010E-01
    -21.828  0.0000E+00  0.0000E+00  0.1010E-01  0.1010E-01
    -21.614  0.3278E-01  0.3278E-01  0.1312E-01  0.1312E-01
    -21.400  0.0000E+00  0.0000E+00  0.2020E-01  0.2020E-01
    -21.186  0.0000E+00  0.0000E+00  0.2020E-01  0.2020E-01
    -20.973  0.0000E+00  0.0000E+00  0.2020E-01  0.2020E-01
    -20.759  0.0000E+00  0.0000E+00  0.2020E-01  0.2020E-01
    -20.545  0.0000E+00  0.0000E+00  0.2020E-01  0.2020E-01
    -20.331  0.0000E+00  0.0000E+00  0.2020E-01  0.2020E-01
    -20.117  0.0000E+00  0.0000E+00  0.2020E-01  0.2020E-01
    -19.903  0.0000E+00  0.0000E+00  0.2020E-01  0.2020E-01
    -19.689  0.0000E+00  0.0000E+00  0.2020E-01  0.2020E-01
    -19.475  0.0000E+00  0.0000E+00  0.2020E-01  0.2020E-01
    -19.261  0.0000E+00  0.0000E+00  0.2020E-01  0.2020E-01
    -19.047  0.0000E+00  0.0000E+00  0.2020E-01  0.2020E-01
    -18.833  0.0000E+00  0.0000E+00  0.2020E-01  0.2020E-01
    -18.619  0.0000E+00  0.0000E+00  0.2020E-01  0.2020E-01
    -18.405  0.0000E+00  0.0000E+00  0.2020E-01  0.2020E-01
    -18.191  0.0000E+00  0.0000E+00  0.2020E-01  0.2020E-01
    -17.977  0.0000E+00  0.0000E+00  0.2020E-01  0.2020E-01
    -17.763  0.0000E+00  0.0000E+00  0.2020E-01  0.2020E-01
    -17.549  0.0000E+00  0.0000E+00  0.2020E-01  0.2020E-01
    -17.335  0.5661E-01  0.5661E-01  0.2344E-01  0.2344E-01
    -17.121  0.0000E+00  0.0000E+00  0.3030E-01  0.3030E-01
    -16.907  0.0000E+00  0.0000E+00  0.3030E-01  0.3030E-01
    -16.693  0.0000E+00  0.0000E+00  0.3030E-01  0.3030E-01
    -16.480  0.0000E+00  0.0000E+00  0.3030E-01  0.3030E-01
    -16.266  0.0000E+00  0.0000E+00  0.3030E-01  0.3030E-01
    -16.052  0.0000E+00  0.0000E+00  0.3030E-01  0.3030E-01
    -15.838  0.0000E+00  0.0000E+00  0.3030E-01  0.3030E-01
    -15.624  0.0000E+00  0.0000E+00  0.3030E-01  0.3030E-01
    -15.410  0.0000E+00  0.0000E+00  0.3030E-01  0.3030E-01
    -15.196  0.0000E+00  0.0000E+00  0.3030E-01  0.3030E-01
    -14.982  0.0000E+00  0.0000E+00  0.3030E-01  0.3030E-01
    -14.768  0.0000E+00  0.0000E+00  0.3030E-01  0.3030E-01
    -14.554  0.0000E+00  0.0000E+00  0.3030E-01  0.3030E-01
    -14.340  0.0000E+00  0.0000E+00  0.3030E-01  0.3030E-01
    -14.126  0.0000E+00  0.0000E+00  0.3030E-01  0.3030E-01
    -13.912  0.0000E+00  0.0000E+00  0.3030E-01  0.3030E-01
    -13.698  0.0000E+00  0.0000E+00  0.3030E-01  0.3030E-01
    -13.484  0.0000E+00  0.0000E+00  0.3030E-01  0.3030E-01
    -13.270  0.0000E+00  0.0000E+00  0.3030E-01  0.3030E-01
    -13.056  0.0000E+00  0.0000E+00  0.3030E-01  0.3030E-01
    -12.842  0.0000E+00  0.0000E+00  0.3030E-01  0.3030E-01
    -12.628  0.0000E+00  0.0000E+00  0.3030E-01  0.3030E-01
    -12.414  0.0000E+00  0.0000E+00  0.3030E-01  0.3030E-01
    -12.200  0.0000E+00  0.0000E+00  0.3030E-01  0.3030E-01
    -11.987  0.0000E+00  0.0000E+00  0.3030E-01  0.3030E-01
    -11.773  0.0000E+00  0.0000E+00  0.3030E-01  0.3030E-01
    -11.559  0.0000E+00  0.0000E+00  0.3030E-01  0.3030E-01
    -11.345  0.0000E+00  0.0000E+00  0.3030E-01  0.3030E-01
    -11.131  0.0000E+00  0.0000E+00  0.3030E-01  0.3030E-01
    -10.917  0.0000E+00  0.0000E+00  0.3030E-01  0.3030E-01
    -10.703  0.0000E+00  0.0000E+00  0.3030E-01  0.3030E-01
    -10.489  0.0000E+00  0.0000E+00  0.3030E-01  0.3030E-01
    -10.275  0.0000E+00  0.0000E+00  0.3030E-01  0.3030E-01
    -10.061  0.0000E+00  0.0000E+00  0.3030E-01  0.3030E-01
     -9.847  0.0000E+00  0.0000E+00  0.3030E-01  0.3030E-01
     -9.633  0.0000E+00  0.0000E+00  0.3030E-01  0.3030E-01
     -9.419  0.0000E+00  0.0000E+00  0.3030E-01  0.3030E-01
     -9.205  0.0000E+00  0.0000E+00  0.3030E-01  0.3030E-01
     -8.991  0.0000E+00  0.0000E+00  0.3030E-01  0.3030E-01
     -8.777  0.0000E+00  0.0000E+00  0.3030E-01  0.3030E-01
     -8.563  0.0000E+00  0.0000E+00  0.3030E-01  0.3030E-01
     -8.349  0.0000E+00  0.0000E+00  0.3030E-01  0.3030E-01
     -8.135  0.0000E+00  0.0000E+00  0.3030E-01  0.3030E-01
     -7.921  0.0000E+00  0.0000E+00  0.3030E-01  0.3030E-01
     -7.707  0.0000E+00  0.0000E+00  0.3030E-01  0.3030E-01
     -7.494  0.0000E+00  0.0000E+00  0.3030E-01  0.3030E-01
     -7.280  0.0000E+00  0.0000E+00  0.3030E-01  0.3030E-01
     -7.066  0.0000E+00  0.0000E+00  0.3030E-01  0.3030E-01
     -6.852  0.0000E+00  0.0000E+00  0.3030E-01  0.3030E-01
     -6.638  0.4086E-02  0.4085E-02  0.3049E-01  0.3049E-01
     -6.424  0.2318E-01  0.2318E-01  0.3570E-01  0.3570E-01
     -6.210  0.5785E-02  0.5785E-02  0.3887E-01  0.3887E-01
     -5.996  0.9523E-02  0.9523E-02  0.4007E-01  0.4007E-01
     -5.782  0.2136E-01  0.2136E-01  0.4344E-01  0.4344E-01
     -5.568  0.2661E-01  0.2661E-01  0.4827E-01  0.4827E-01
     -5.354  0.3135E-01  0.3135E-01  0.5546E-01  0.5546E-01
     -5.140  0.1087E-01  0.1087E-01  0.6046E-01  0.6046E-01
     -4.926  0.2584E-02  0.2583E-02  0.6072E-01  0.6072E-01
     -4.712  0.4175E-02  0.4175E-02  0.6148E-01  0.6148E-01
     -4.498  0.6687E-02  0.6687E-02  0.6261E-01  0.6261E-01
     -4.284  0.8171E-02  0.8171E-02  0.6426E-01  0.6426E-01
     -4.070  0.9046E-02  0.9046E-02  0.6610E-01  0.6610E-01
     -3.856  0.1154E-01  0.1154E-01  0.6823E-01  0.6823E-01
     -3.642  0.7201E-02  0.7201E-02  0.7047E-01  0.7047E-01
     -3.428  0.0000E+00  0.0000E+00  0.7071E-01  0.7071E-01
     -3.214  0.0000E+00  0.0000E+00  0.7071E-01  0.7071E-01
     -3.000  0.0000E+00  0.0000E+00  0.7071E-01  0.7071E-01
     -2.787  0.0000E+00  0.0000E+00  0.7071E-01  0.7071E-01
     -2.573  0.0000E+00  0.0000E+00  0.7071E-01  0.7071E-01
     -2.359  0.0000E+00  0.0000E+00  0.7071E-01  0.7071E-01
     -2.145  0.0000E+00  0.0000E+00  0.7071E-01  0.7071E-01
     -1.931  0.0000E+00  0.0000E+00  0.7071E-01  0.7071E-01
     -1.717  0.0000E+00  0.0000E+00  0.7071E-01  0.7071E-01
     -1.503  0.0000E+00  0.0000E+00  0.7071E-01  0.7071E-01
     -1.289  0.0000E+00  0.0000E+00  0.7071E-01  0.7071E-01
     -1.075  0.5136E-03  0.5136E-03  0.7072E-01  0.7072E-01
     -0.861  0.6756E-02  0.6756E-02  0.7126E-01  0.7126E-01
     -0.647  0.1494E-01  0.1494E-01  0.7388E-01  0.7388E-01
     -0.433  0.8759E-02  0.8759E-02  0.7656E-01  0.7656E-01
     -0.219  0.7618E-02  0.7618E-02  0.7803E-01  0.7803E-01
     -0.005  0.1000E-01  0.1000E-01  0.7987E-01  0.7987E-01
      0.209  0.1426E-01  0.1426E-01  0.8256E-01  0.8256E-01
      0.423  0.1508E-01  0.1508E-01  0.8571E-01  0.8571E-01
      0.637  0.1488E-01  0.1488E-01  0.8905E-01  0.8905E-01
      0.851  0.2003E-02  0.2004E-02  0.9087E-01  0.9087E-01
      1.065  0.0000E+00  0.0000E+00  0.9091E-01  0.9091E-01
      1.279  0.0000E+00  0.0000E+00  0.9091E-01  0.9091E-01
      1.493  0.0000E+00  0.0000E+00  0.9091E-01  0.9091E-01
      1.706  0.0000E+00  0.0000E+00  0.9091E-01  0.9091E-01
      1.920  0.0000E+00  0.0000E+00  0.9091E-01  0.9091E-01
      2.134  0.0000E+00  0.0000E+00  0.9091E-01  0.9091E-01
      2.348  0.0000E+00  0.0000E+00  0.9091E-01  0.9091E-01
      2.562  0.0000E+00  0.0000E+00  0.9091E-01  0.9091E-01
      2.776  0.0000E+00  0.0000E+00  0.9091E-01  0.9091E-01
      2.990  0.0000E+00  0.0000E+00  0.9091E-01  0.9091E-01
      3.204  0.0000E+00  0.0000E+00  0.9091E-01  0.9091E-01
      3.418  0.0000E+00  0.0000E+00  0.9091E-01  0.9091E-01
      3.632  0.0000E+00  0.0000E+00  0.9091E-01  0.9091E-01
      3.846  0.0000E+00  0.0000E+00  0.9091E-01  0.9091E-01
      4.060  0.0000E+00  0.0000E+00  0.9091E-01  0.9091E-01
      4.274  0.0000E+00  0.0000E+00  0.9091E-01  0.9091E-01
      4.488  0.0000E+00  0.0000E+00  0.9091E-01  0.9091E-01
      4.702  0.1804E-02  0.1804E-02  0.9107E-01  0.9107E-01
      4.916  0.1380E-01  0.1380E-01  0.9265E-01  0.9265E-01
      5.130  0.1105E-01  0.1105E-01  0.9581E-01  0.9581E-01
      5.344  0.9517E-02  0.9517E-02  0.9780E-01  0.9780E-01
      5.558  0.1253E-01  0.1253E-01  0.9990E-01  0.9990E-01
      5.772  0.1255E-01  0.1255E-01  0.1026E+00  0.1026E+00
      5.986  0.1214E-01  0.1214E-01  0.1052E+00  0.1052E+00
      6.199  0.1200E-01  0.1200E-01  0.1079E+00  0.1079E+00
      6.413  0.9942E-02  0.9942E-02  0.1101E+00  0.1101E+00
      6.627  0.2266E-02  0.2266E-02  0.1111E+00  0.1111E+00
      6.841  0.1254E-02  0.1254E-02  0.1114E+00  0.1114E+00
      7.055  0.1344E-02  0.1344E-02  0.1117E+00  0.1117E+00
      7.269  0.1529E-02  0.1529E-02  0.1120E+00  0.1120E+00
      7.483  0.1543E-02  0.1543E-02  0.1123E+00  0.1123E+00
      7.697  0.1688E-02  0.1688E-02  0.1127E+00  0.1127E+00
      7.911  0.1842E-02  0.1842E-02  0.1131E+00  0.1131E+00
      8.125  0.2006E-02  0.2006E-02  0.1135E+00  0.1135E+00
      8.339  0.2248E-02  0.2248E-02  0.1139E+00  0.1139E+00
      8.553  0.2897E-02  0.2897E-02  0.1145E+00  0.1145E+00
      8.767  0.3346E-02  0.3346E-02  0.1151E+00  0.1151E+00
      8.981  0.3929E-02  0.3929E-02  0.1159E+00  0.1159E+00
      9.195  0.3998E-02  0.3998E-02  0.1168E+00  0.1168E+00
      9.409  0.3956E-02  0.3956E-02  0.1176E+00  0.1176E+00
      9.623  0.3661E-02  0.3661E-02  0.1184E+00  0.1184E+00
      9.837  0.3310E-02  0.3310E-02  0.1192E+00  0.1192E+00
     10.051  0.2466E-02  0.2466E-02  0.1198E+00  0.1198E+00
     10.265  0.3437E-02  0.3437E-02  0.1204E+00  0.1204E+00
     10.479  0.3923E-02  0.3923E-02  0.1212E+00  0.1212E+00
     10.692  0.4716E-02  0.4716E-02  0.1221E+00  0.1221E+00
     10.906  0.6744E-02  0.6744E-02  0.1233E+00  0.1233E+00
     11.120  0.9814E-02  0.9814E-02  0.1253E+00  0.1253E+00
     11.334  0.1466E-01  0.1466E-01  0.1279E+00  0.1279E+00
     11.548  0.8520E-02  0.8520E-02  0.1303E+00  0.1303E+00
     11.762  0.1156E-01  0.1156E-01  0.1324E+00  0.1324E+00
     11.976  0.1570E-01  0.1570E-01  0.1352E+00  0.1352E+00
     12.190  0.1469E-01  0.1469E-01  0.1387E+00  0.1387E+00
     12.404  0.1221E-01  0.1220E-01  0.1414E+00  0.1414E+00
     12.618  0.1214E-01  0.1214E-01  0.1441E+00  0.1441E+00
     12.832  0.1126E-01  0.1126E-01  0.1468E+00  0.1468E+00
     13.046  0.7317E-02  0.7318E-02  0.1487E+00  0.1487E+00
     13.260  0.4560E-02  0.4561E-02  0.1500E+00  0.1500E+00
     13.474  0.2873E-02  0.2874E-02  0.1508E+00  0.1508E+00
     13.688  0.1259E-01  0.1259E-01  0.1516E+00  0.1516E+00
     13.902  0.1935E-01  0.1935E-01  0.1551E+00  0.1551E+00
     14.116  0.1522E-01  0.1522E-01  0.1589E+00  0.1589E+00
     14.330  0.4841E-02  0.4842E-02  0.1609E+00  0.1609E+00
     14.544  0.1196E-02  0.1196E-02  0.1614E+00  0.1614E+00
     14.758  0.4605E-03  0.4605E-03  0.1615E+00  0.1615E+00
     14.972  0.1419E-03  0.1420E-03  0.1616E+00  0.1616E+00
     15.185  0.0000E+00  0.0000E+00  0.1616E+00  0.1616E+00
     15.399  0.0000E+00  0.0000E+00  0.1616E+00  0.1616E+00
     15.613  0.0000E+00  0.0000E+00  0.1616E+00  0.1616E+00
     15.827  0.0000E+00  0.0000E+00  0.1616E+00  0.1616E+00
     16.041  0.0000E+00  0.0000E+00  0.1616E+00  0.1616E+00
     16.255  0.0000E+00  0.0000E+00  0.1616E+00  0.1616E+00
     16.469  0.0000E+00  0.0000E+00  0.1616E+00  0.1616E+00
     16.683  0.0000E+00  0.0000E+00  0.1616E+00  0.1616E+00
     16.897  0.0000E+00  0.0000E+00  0.1616E+00  0.1616E+00
     17.111  0.0000E+00  0.0000E+00  0.1616E+00  0.1616E+00
     17.325  0.0000E+00  0.0000E+00  0.1616E+00  0.1616E+00
     17.539  0.0000E+00  0.0000E+00  0.1616E+00  0.1616E+00
     17.753  0.0000E+00  0.0000E+00  0.1616E+00  0.1616E+00
     17.967  0.0000E+00  0.0000E+00  0.1616E+00  0.1616E+00
     17.96687078    -46.21895057  301      0.90413994      1.00000000
    -46.219  0.0000E+00  0.0000E+00  0.0000E+00  0.0000E+00  0.0000E+00  0.0000E+00  0.0000E+00  0.0000E+00  0.0000E+00  0.0000E+00  0.0000E+00  0.0000E+00  0.0000E+00  0.0000E+00  0.0000E+00  0.0000E+00  0.0000E+00  0.0000E+00
    -46.005  0.0000E+00  0.0000E+00  0.0000E+00  0.0000E+00  0.0000E+00  0.0000E+00  0.0000E+00  0.0000E+00  0.0000E+00  0.0000E+00  0.0000E+00  0.0000E+00  0.0000E+00  0.0000E+00  0.0000E+00  0.0000E+00  0.0000E+00  0.0000E+00
    -45.791  0.0000E+00  0.0000E+00  0.0000E+00  0.0000E+00  0.0000E+00  0.0000E+00  0.0000E+00  0.0000E+00  0.0000E+00  0.0000E+00  0.0000E+00  0.0000E+00  0.0000E+00  0.0000E+00  0.0000E+00  0.0000E+00  0.0000E+00  0.0000E+00
    -45.577  0.0000E+00  0.0000E+00  0.0000E+00  0.0000E+00  0.0000E+00  0.0000E+00  0.0000E+00  0.0000E+00  0.0000E+00  0.0000E+00  0.0000E+00  0.0000E+00  0.0000E+00  0.0000E+00  0.0000E+00  0.0000E+00  0.0000E+00  0.0000E+00
    -45.363  0.0000E+00  0.0000E+00  0.0000E+00  0.0000E+00  0.0000E+00  0.0000E+00  0.0000E+00  0.0000E+00  0.0000E+00  0.0000E+00  0.0000E+00  0.0000E+00  0.0000E+00  0.0000E+00  0.0000E+00  0.0000E+00  0.0000E+00  0.0000E+00
    -45.149  0.0000E+00  0.0000E+00  0.0000E+00  0.0000E+00  0.0000E+00  0.0000E+00  0.0000E+00  0.0000E+00  0.0000E+00  0.0000E+00  0.0000E+00  0.0000E+00  0.0000E+00  0.0000E+00  0.0000E+00  0.0000E+00  0.0000E+00  0.0000E+00
    -44.935  0.0000E+00  0.0000E+00  0.0000E+00  0.0000E+00  0.0000E+00  0.0000E+00  0.0000E+00  0.0000E+00  0.0000E+00  0.0000E+00  0.0000E+00  0.0000E+00  0.0000E+00  0.0000E+00  0.0000E+00  0.0000E+00  0.0000E+00  0.0000E+00
    -44.721  0.0000E+00  0.0000E+00  0.0000E+00  0.0000E+00  0.0000E+00  0.0000E+00  0.0000E+00  0.0000E+00  0.0000E+00  0.0000E+00  0.0000E+00  0.0000E+00  0.0000E+00  0.0000E+00  0.0000E+00  0.0000E+00  0.0000E+00  0.0000E+00
    -44.507  0.0000E+00  0.0000E+00  0.0000E+00  0.0000E+00  0.0000E+00  0.0000E+00  0.0000E+00  0.0000E+00  0.0000E+00  0.0000E+00  0.0000E+00  0.0000E+00  0.0000E+00  0.0000E+00  0.0000E+00  0.0000E+00  0.0000E+00  0.0000E+00
    -44.293  0.0000E+00  0.0000E+00  0.0000E+00  0.0000E+00  0.0000E+00  0.0000E+00  0.0000E+00  0.0000E+00  0.0000E+00  0.0000E+00  0.0000E+00  0.0000E+00  0.0000E+00  0.0000E+00  0.0000E+00  0.0000E+00  0.0000E+00  0.0000E+00
    -44.079  0.0000E+00  0.0000E+00  0.0000E+00  0.0000E+00  0.0000E+00  0.0000E+00  0.0000E+00  0.0000E+00  0.0000E+00  0.0000E+00  0.0000E+00  0.0000E+00  0.0000E+00  0.0000E+00  0.0000E+00  0.0000E+00  0.0000E+00  0.0000E+00
    -43.865  0.0000E+00  0.0000E+00  0.0000E+00  0.0000E+00  0.0000E+00  0.0000E+00  0.0000E+00  0.0000E+00  0.0000E+00  0.0000E+00  0.0000E+00  0.0000E+00  0.0000E+00  0.0000E+00  0.0000E+00  0.0000E+00  0.0000E+00  0.0000E+00
    -43.652  0.0000E+00  0.0000E+00  0.0000E+00  0.0000E+00  0.0000E+00  0.0000E+00  0.0000E+00  0.0000E+00  0.0000E+00  0.0000E+00  0.0000E+00  0.0000E+00  0.0000E+00  0.0000E+00  0.0000E+00  0.0000E+00  0.0000E+00  0.0000E+00
    -43.438  0.0000E+00  0.0000E+00  0.0000E+00  0.0000E+00  0.0000E+00  0.0000E+00  0.0000E+00  0.0000E+00  0.0000E+00  0.0000E+00  0.0000E+00  0.0000E+00  0.0000E+00  0.0000E+00  0.0000E+00  0.0000E+00  0.0000E+00  0.0000E+00
    -43.224  0.0000E+00  0.0000E+00  0.0000E+00  0.0000E+00  0.0000E+00  0.0000E+00  0.0000E+00  0.0000E+00  0.0000E+00  0.0000E+00  0.0000E+00  0.0000E+00  0.0000E+00  0.0000E+00  0.0000E+00  0.0000E+00  0.0000E+00  0.0000E+00
    -43.010  0.0000E+00  0.0000E+00  0.0000E+00  0.0000E+00  0.0000E+00  0.0000E+00  0.0000E+00  0.0000E+00  0.0000E+00  0.0000E+00  0.0000E+00  0.0000E+00  0.0000E+00  0.0000E+00  0.0000E+00  0.0000E+00  0.0000E+00  0.0000E+00
    -42.796  0.0000E+00  0.0000E+00  0.0000E+00  0.0000E+00  0.0000E+00  0.0000E+00  0.0000E+00  0.0000E+00  0.0000E+00  0.0000E+00  0.0000E+00  0.0000E+00  0.0000E+00  0.0000E+00  0.0000E+00  0.0000E+00  0.0000E+00  0.0000E+00
    -42.582  0.0000E+00  0.0000E+00  0.0000E+00  0.0000E+00  0.0000E+00  0.0000E+00  0.0000E+00  0.0000E+00  0.0000E+00  0.0000E+00  0.0000E+00  0.0000E+00  0.0000E+00  0.0000E+00  0.0000E+00  0.0000E+00  0.0000E+00  0.0000E+00
    -42.368  0.0000E+00  0.0000E+00  0.0000E+00  0.0000E+00  0.0000E+00  0.0000E+00  0.0000E+00  0.0000E+00  0.0000E+00  0.0000E+00  0.0000E+00  0.0000E+00  0.0000E+00  0.0000E+00  0.0000E+00  0.0000E+00  0.0000E+00  0.0000E+00
    -42.154  0.0000E+00  0.0000E+00  0.0000E+00  0.0000E+00  0.0000E+00  0.0000E+00  0.0000E+00  0.0000E+00  0.0000E+00  0.0000E+00  0.0000E+00  0.0000E+00  0.0000E+00  0.0000E+00  0.0000E+00  0.0000E+00  0.0000E+00  0.0000E+00
    -41.940  0.0000E+00  0.0000E+00  0.0000E+00  0.0000E+00  0.0000E+00  0.0000E+00  0.0000E+00  0.0000E+00  0.0000E+00  0.0000E+00  0.0000E+00  0.0000E+00  0.0000E+00  0.0000E+00  0.0000E+00  0.0000E+00  0.0000E+00  0.0000E+00
    -41.726  0.0000E+00  0.0000E+00  0.0000E+00  0.0000E+00  0.0000E+00  0.0000E+00  0.0000E+00  0.0000E+00  0.0000E+00  0.0000E+00  0.0000E+00  0.0000E+00  0.0000E+00  0.0000E+00  0.0000E+00  0.0000E+00  0.0000E+00  0.0000E+00
    -41.512  0.0000E+00  0.0000E+00  0.0000E+00  0.0000E+00  0.0000E+00  0.0000E+00  0.0000E+00  0.0000E+00  0.0000E+00  0.0000E+00  0.0000E+00  0.0000E+00  0.0000E+00  0.0000E+00  0.0000E+00  0.0000E+00  0.0000E+00  0.0000E+00
    -41.298  0.0000E+00  0.0000E+00  0.0000E+00  0.0000E+00  0.0000E+00  0.0000E+00  0.0000E+00  0.0000E+00  0.0000E+00  0.0000E+00  0.0000E+00  0.0000E+00  0.0000E+00  0.0000E+00  0.0000E+00  0.0000E+00  0.0000E+00  0.0000E+00
    -41.084  0.0000E+00  0.0000E+00  0.0000E+00  0.0000E+00  0.0000E+00  0.0000E+00  0.0000E+00  0.0000E+00  0.0000E+00  0.0000E+00  0.0000E+00  0.0000E+00  0.0000E+00  0.0000E+00  0.0000E+00  0.0000E+00  0.0000E+00  0.0000E+00
    -40.870  0.0000E+00  0.0000E+00  0.0000E+00  0.0000E+00  0.0000E+00  0.0000E+00  0.0000E+00  0.0000E+00  0.0000E+00  0.0000E+00  0.0000E+00  0.0000E+00  0.0000E+00  0.0000E+00  0.0000E+00  0.0000E+00  0.0000E+00  0.0000E+00
    -40.656  0.0000E+00  0.0000E+00  0.0000E+00  0.0000E+00  0.0000E+00  0.0000E+00  0.0000E+00  0.0000E+00  0.0000E+00  0.0000E+00  0.0000E+00  0.0000E+00  0.0000E+00  0.0000E+00  0.0000E+00  0.0000E+00  0.0000E+00  0.0000E+00
    -40.442  0.0000E+00  0.0000E+00  0.0000E+00  0.0000E+00  0.0000E+00  0.0000E+00  0.0000E+00  0.0000E+00  0.0000E+00  0.0000E+00  0.0000E+00  0.0000E+00  0.0000E+00  0.0000E+00  0.0000E+00  0.0000E+00  0.0000E+00  0.0000E+00
    -40.228  0.0000E+00  0.0000E+00  0.0000E+00  0.0000E+00  0.0000E+00  0.0000E+00  0.0000E+00  0.0000E+00  0.0000E+00  0.0000E+00  0.0000E+00  0.0000E+00  0.0000E+00  0.0000E+00  0.0000E+00  0.0000E+00  0.0000E+00  0.0000E+00
    -40.014  0.0000E+00  0.0000E+00  0.0000E+00  0.0000E+00  0.0000E+00  0.0000E+00  0.0000E+00  0.0000E+00  0.0000E+00  0.0000E+00  0.0000E+00  0.0000E+00  0.0000E+00  0.0000E+00  0.0000E+00  0.0000E+00  0.0000E+00  0.0000E+00
    -39.800  0.0000E+00  0.0000E+00  0.0000E+00  0.0000E+00  0.0000E+00  0.0000E+00  0.0000E+00  0.0000E+00  0.0000E+00  0.0000E+00  0.0000E+00  0.0000E+00  0.0000E+00  0.0000E+00  0.0000E+00  0.0000E+00  0.0000E+00  0.0000E+00
    -39.586  0.0000E+00  0.0000E+00  0.0000E+00  0.0000E+00  0.0000E+00  0.0000E+00  0.0000E+00  0.0000E+00  0.0000E+00  0.0000E+00  0.0000E+00  0.0000E+00  0.0000E+00  0.0000E+00  0.0000E+00  0.0000E+00  0.0000E+00  0.0000E+00
    -39.372  0.0000E+00  0.0000E+00  0.0000E+00  0.0000E+00  0.0000E+00  0.0000E+00  0.0000E+00  0.0000E+00  0.0000E+00  0.0000E+00  0.0000E+00  0.0000E+00  0.0000E+00  0.0000E+00  0.0000E+00  0.0000E+00  0.0000E+00  0.0000E+00
    -39.159  0.0000E+00  0.0000E+00  0.0000E+00  0.0000E+00  0.0000E+00  0.0000E+00  0.0000E+00  0.0000E+00  0.0000E+00  0.0000E+00  0.0000E+00  0.0000E+00  0.0000E+00  0.0000E+00  0.0000E+00  0.0000E+00  0.0000E+00  0.0000E+00
    -38.945  0.0000E+00  0.0000E+00  0.0000E+00  0.0000E+00  0.0000E+00  0.0000E+00  0.0000E+00  0.0000E+00  0.0000E+00  0.0000E+00  0.0000E+00  0.0000E+00  0.0000E+00  0.0000E+00  0.0000E+00  0.0000E+00  0.0000E+00  0.0000E+00
    -38.731  0.0000E+00  0.0000E+00  0.0000E+00  0.0000E+00  0.0000E+00  0.0000E+00  0.0000E+00  0.0000E+00  0.0000E+00  0.0000E+00  0.0000E+00  0.0000E+00  0.0000E+00  0.0000E+00  0.0000E+00  0.0000E+00  0.0000E+00  0.0000E+00
    -38.517  0.0000E+00  0.0000E+00  0.0000E+00  0.0000E+00  0.0000E+00  0.0000E+00  0.0000E+00  0.0000E+00  0.0000E+00  0.0000E+00  0.0000E+00  0.0000E+00  0.0000E+00  0.0000E+00  0.0000E+00  0.0000E+00  0.0000E+00  0.0000E+00
    -38.303  0.0000E+00  0.0000E+00  0.0000E+00  0.0000E+00  0.0000E+00  0.0000E+00  0.0000E+00  0.0000E+00  0.0000E+00  0.0000E+00  0.0000E+00  0.0000E+00  0.0000E+00  0.0000E+00  0.0000E+00  0.0000E+00  0.0000E+00  0.0000E+00
    -38.089  0.0000E+00  0.0000E+00  0.0000E+00  0.0000E+00  0.0000E+00  0.0000E+00  0.0000E+00  0.0000E+00  0.0000E+00  0.0000E+00  0.0000E+00  0.0000E+00  0.0000E+00  0.0000E+00  0.0000E+00  0.0000E+00  0.0000E+00  0.0000E+00
    -37.875  0.0000E+00  0.0000E+00  0.0000E+00  0.0000E+00  0.0000E+00  0.0000E+00  0.0000E+00  0.0000E+00  0.0000E+00  0.0000E+00  0.0000E+00  0.0000E+00  0.0000E+00  0.0000E+00  0.0000E+00  0.0000E+00  0.0000E+00  0.0000E+00
    -37.661  0.0000E+00  0.0000E+00  0.0000E+00  0.0000E+00  0.0000E+00  0.0000E+00  0.0000E+00  0.0000E+00  0.0000E+00  0.0000E+00  0.0000E+00  0.0000E+00  0.0000E+00  0.0000E+00  0.0000E+00  0.0000E+00  0.0000E+00  0.0000E+00
    -37.447  0.0000E+00  0.0000E+00  0.0000E+00  0.0000E+00  0.0000E+00  0.0000E+00  0.0000E+00  0.0000E+00  0.0000E+00  0.0000E+00  0.0000E+00  0.0000E+00  0.0000E+00  0.0000E+00  0.0000E+00  0.0000E+00  0.0000E+00  0.0000E+00
    -37.233  0.0000E+00  0.0000E+00  0.0000E+00  0.0000E+00  0.0000E+00  0.0000E+00  0.0000E+00  0.0000E+00  0.0000E+00  0.0000E+00  0.0000E+00  0.0000E+00  0.0000E+00  0.0000E+00  0.0000E+00  0.0000E+00  0.0000E+00  0.0000E+00
    -37.019  0.0000E+00  0.0000E+00  0.0000E+00  0.0000E+00  0.0000E+00  0.0000E+00  0.0000E+00  0.0000E+00  0.0000E+00  0.0000E+00  0.0000E+00  0.0000E+00  0.0000E+00  0.0000E+00  0.0000E+00  0.0000E+00  0.0000E+00  0.0000E+00
    -36.805  0.0000E+00  0.0000E+00  0.0000E+00  0.0000E+00  0.0000E+00  0.0000E+00  0.0000E+00  0.0000E+00  0.0000E+00  0.0000E+00  0.0000E+00  0.0000E+00  0.0000E+00  0.0000E+00  0.0000E+00  0.0000E+00  0.0000E+00  0.0000E+00
    -36.591  0.0000E+00  0.0000E+00  0.0000E+00  0.0000E+00  0.0000E+00  0.0000E+00  0.0000E+00  0.0000E+00  0.0000E+00  0.0000E+00  0.0000E+00  0.0000E+00  0.0000E+00  0.0000E+00  0.0000E+00  0.0000E+00  0.0000E+00  0.0000E+00
    -36.377  0.0000E+00  0.0000E+00  0.0000E+00  0.0000E+00  0.0000E+00  0.0000E+00  0.0000E+00  0.0000E+00  0.0000E+00  0.0000E+00  0.0000E+00  0.0000E+00  0.0000E+00  0.0000E+00  0.0000E+00  0.0000E+00  0.0000E+00  0.0000E+00
    -36.163  0.0000E+00  0.0000E+00  0.0000E+00  0.0000E+00  0.0000E+00  0.0000E+00  0.0000E+00  0.0000E+00  0.0000E+00  0.0000E+00  0.0000E+00  0.0000E+00  0.0000E+00  0.0000E+00  0.0000E+00  0.0000E+00  0.0000E+00  0.0000E+00
    -35.949  0.0000E+00  0.0000E+00  0.0000E+00  0.0000E+00  0.0000E+00  0.0000E+00  0.0000E+00  0.0000E+00  0.0000E+00  0.0000E+00  0.0000E+00  0.0000E+00  0.0000E+00  0.0000E+00  0.0000E+00  0.0000E+00  0.0000E+00  0.0000E+00
    -35.735  0.0000E+00  0.0000E+00  0.0000E+00  0.0000E+00  0.0000E+00  0.0000E+00  0.0000E+00  0.0000E+00  0.0000E+00  0.0000E+00  0.0000E+00  0.0000E+00  0.0000E+00  0.0000E+00  0.0000E+00  0.0000E+00  0.0000E+00  0.0000E+00
    -35.521  0.0000E+00  0.0000E+00  0.0000E+00  0.0000E+00  0.0000E+00  0.0000E+00  0.0000E+00  0.0000E+00  0.0000E+00  0.0000E+00  0.0000E+00  0.0000E+00  0.0000E+00  0.0000E+00  0.0000E+00  0.0000E+00  0.0000E+00  0.0000E+00