    4    4   99    2
  0.1135433E+02  0.3300365E-09  0.3300365E-09  0.4988583E-09  0.5000000E-15
  1.000000000000000E-004
  CAR 
 unknown system                          
     18    234     16
 
  0.0000000E+00  0.0000000E+00  0.0000000E+00  0.1180638E-02
    1      -43.301398    -43.301411   1.000000   1.000000
    2      -21.751818    -21.751820   1.000000   1.000000
    3      -17.387302    -17.387303   1.000000   1.000000
    4       -6.751391     -6.751385   1.000000   1.000000
    5       -5.162257     -5.162257   1.000000   1.000000
    6       -5.098734     -5.098735   1.000000   1.000000
    7       -3.663198     -3.663195   1.000000   1.000000
    8        0.629856      0.629858   1.000000   1.000000
    9        0.700073      0.700075   1.000000   1.000000
   10        6.303578      6.303579   0.000000   0.000000
   11        6.344552      6.344555   0.000000   0.000000
   12        6.668592      6.668594   0.000000   0.000000
   13       10.119731     10.119742   0.000000   0.000000
   14       11.531565     11.531575   0.000000   0.000000
   15       14.252081     14.252093   0.000000   0.000000
   16       14.546058     14.546059   0.000000   0.000000
 
  0.9090909E-01 -0.6938894E-17 -0.3469447E-17  0.4722550E-02
    1      -43.300952    -43.300966   1.000000   1.000000
    2      -21.735874    -21.735876   1.000000   1.000000
    3      -17.378325    -17.378326   1.000000   1.000000
    4       -6.713214     -6.713208   1.000000   1.000000
    5       -5.257861     -5.257861   1.000000   1.000000
    6       -5.130914     -5.130915   1.000000   1.000000
    7       -3.667794     -3.667790   1.000000   1.000000
    8        0.518174      0.518176   1.000000   1.000000
    9        0.615132      0.615134   1.000000   1.000000
   10        6.191497      6.191500   0.000000   0.000000
   11        6.440192      6.440194   0.000000   0.000000
   12        6.805857      6.805859   0.000000   0.000000
   13       10.324998     10.325010   0.000000   0.000000
   14       11.571880     11.571889   0.000000   0.000000
   15       14.221785     14.221787   0.000000   0.000000
   16       14.405703     14.405664   0.000000   0.000000
 
  0.1818182E+00 -0.1387779E-16 -0.6938894E-17  0.4722550E-02
    1      -43.299802    -43.299816   1.000000   1.000000
    2      -21.692590    -21.692592   1.000000   1.000000
    3      -17.354291    -17.354292   1.000000   1.000000
    4       -6.612558     -6.612552   1.000000   1.000000
    5       -5.520803     -5.520803   1.000000   1.000000
    6       -5.189355     -5.189356   1.000000   1.000000
    7       -3.682535     -3.682532   1.000000   1.000000
    8        0.137710      0.137712   1.000000   1.000000
    9        0.490715      0.490718   1.000000   1.000000
   10        5.947100      5.947104   0.000000   0.000000
   11        6.429042      6.429044   0.000000   0.000000
   12        7.369793      7.369795   0.000000   0.000000
   13       10.856420     10.856432   0.000000   0.000000
   14       11.681117     11.681125   0.000000   0.000000
   15       13.460732     13.460737   0.000000   0.000000
   16       14.253885     14.253886   0.000000   0.000000
 
  0.2727273E+00 -0.2775558E-16  0.0000000E+00  0.4722550E-02
    1      -43.298316    -43.298330   1.000000   1.000000
    2      -21.635105    -21.635106   1.000000   1.000000
    3      -17.322692    -17.322693   1.000000   1.000000
    4       -6.505659     -6.505655   1.000000   1.000000
    5       -5.804277     -5.804277   1.000000   1.000000
    6       -5.259874     -5.259875   1.000000   1.000000
    7       -3.711354     -3.711350   1.000000   1.000000
    8       -0.330395     -0.330392   1.000000   1.000000
    9        0.341619      0.341622   1.000000   1.000000
   10        5.552953      5.552959   0.000000   0.000000
   11        6.451686      6.451687   0.000000   0.000000
   12        8.094116      8.094118   0.000000   0.000000
   13       11.395699     11.395709   0.000000   0.000000
   14       11.865210     11.865217   0.000000   0.000000
   15       12.797114     12.797121   0.000000   0.000000
   16       14.105319     14.105322   0.000000   0.000000
 
  0.3636364E+00 -0.2775558E-16 -0.1387779E-16  0.4722550E-02
    1      -43.296971    -43.296985   1.000000   1.000000
    2      -21.581368    -21.581369   1.000000   1.000000
    3      -17.293543    -17.293544   1.000000   1.000000
    4       -6.512247     -6.512245   1.000000   1.000000
    5       -5.918669     -5.918665   1.000000   1.000000
    6       -5.323134     -5.323135   1.000000   1.000000
    7       -3.754629     -3.754625   1.000000   1.000000
    8       -0.728553     -0.728549   1.000000   1.000000
    9        0.211266      0.211269   1.000000   1.000000
   10        5.177393      5.177400   0.000000   0.000000
   11        6.473361      6.473363   0.000000   0.000000
   12        8.641350      8.641353   0.000000   0.000000
   13       11.612154     11.612163   0.000000   0.000000
   14       11.962578     11.962584   0.000000   0.000000
   15       13.029359     13.029367   0.000000   0.000000
   16       13.999550     13.999555   0.000000   0.000000
 
  0.4545455E+00  0.2775558E-16  0.2775558E-16  0.4722550E-02
    1      -43.296141    -43.296154   1.000000   1.000000
    2      -21.548903    -21.548904   1.000000   1.000000
    3      -17.276060    -17.276061   1.000000   1.000000
    4       -6.595878     -6.595878   1.000000   1.000000
    5       -5.885558     -5.885554   1.000000   1.000000
    6       -5.360519     -5.360519   1.000000   1.000000
    7       -3.792720     -3.792717   1.000000   1.000000
    8       -0.951805     -0.951801   1.000000   1.000000
    9        0.137011      0.137014   1.000000   1.000000
   10        4.953148      4.953155   0.000000   0.000000
   11        6.483688      6.483689   0.000000   0.000000
   12        8.850538      8.850542   0.000000   0.000000
   13       11.624810     11.624818   0.000000   0.000000
   14       12.162516     12.162523   0.000000   0.000000
   15       13.413238     13.413250   0.000000   0.000000
   16       13.935276     13.935277   0.000000   0.000000
 
  0.9090909E-01  0.9090909E-01 -0.1387779E-16  0.2361275E-02
    1      -43.300926    -43.300940   1.000000   1.000000
    2      -21.733900    -21.733902   1.000000   1.000000
    3      -17.379876    -17.379877   1.000000   1.000000
    4       -6.693817     -6.693811   1.000000   1.000000
    5       -5.208446     -5.208447   1.000000   1.000000
    6       -5.196007     -5.196007   1.000000   1.000000
    7       -3.691322     -3.691319   1.000000   1.000000
    8        0.458462      0.458464   1.000000   1.000000
    9        0.695056      0.695059   1.000000   1.000000
   10        6.138251      6.138254   0.000000   0.000000
   11        6.572365      6.572367   0.000000   0.000000
   12        6.772842      6.772844   0.000000   0.000000
   13       10.277033     10.277045   0.000000   0.000000
   14       11.510316     11.510326   0.000000   0.000000
   15       14.247194     14.247181   0.000000   0.000000
   16       14.591066     14.591068   0.000000   0.000000
 
  0.1818182E+00  0.9090909E-01 -0.1387779E-16  0.4722550E-02
    1      -43.300081    -43.300095   1.000000   1.000000
    2      -21.702541    -21.702542   1.000000   1.000000
    3      -17.364769    -17.364770   1.000000   1.000000
    4       -6.604972     -6.604966   1.000000   1.000000
    5       -5.422752     -5.422752   1.000000   1.000000
    6       -5.219134     -5.219134   1.000000   1.000000
    7       -3.723626     -3.723623   1.000000   1.000000
    8        0.208473      0.208475   1.000000   1.000000
    9        0.613321      0.613323   1.000000   1.000000
   10        6.046778      6.046782   0.000000   0.000000
   11        6.452305      6.452307   0.000000   0.000000
   12        7.221910      7.221911   0.000000   0.000000
   13       10.618402     10.618414   0.000000   0.000000
   14       11.540043     11.540052   0.000000   0.000000
   15       13.808535     13.808541   0.000000   0.000000
   16       14.240273     14.240285   0.000000   0.000000
 
  0.2727273E+00  0.9090909E-01 -0.2775558E-16  0.4722550E-02
    1      -43.298761    -43.298775   1.000000   1.000000
    2      -21.651159    -21.651160   1.000000   1.000000
    3      -17.337850    -17.337851   1.000000   1.000000
    4       -6.481576     -6.481571   1.000000   1.000000
    5       -5.704834     -5.704833   1.000000   1.000000
    6       -5.284668     -5.284669   1.000000   1.000000
    7       -3.763377     -3.763374   1.000000   1.000000
    8       -0.166394     -0.166392   1.000000   1.000000
    9        0.440849      0.440852   1.000000   1.000000
   10        5.732745      5.732750   0.000000   0.000000
   11        6.418813      6.418815   0.000000   0.000000
   12        7.913216      7.913219   0.000000   0.000000
   13       11.130064     11.130074   0.000000   0.000000
   14       11.704560     11.704567   0.000000   0.000000
   15       12.934834     12.934841   0.000000   0.000000
   16       14.210917     14.210982   0.000000   0.000000
 
  0.3636364E+00  0.9090909E-01  0.2775558E-16  0.4722550E-02
    1      -43.297329    -43.297343   1.000000   1.000000
    2      -21.595503    -21.595505   1.000000   1.000000
    3      -17.307420    -17.307421   1.000000   1.000000
    4       -6.428407     -6.428404   1.000000   1.000000
    5       -5.887224     -5.887222   1.000000   1.000000
    6       -5.360311     -5.360311   1.000000   1.000000
    7       -3.810324     -3.810320   1.000000   1.000000
    8       -0.550136     -0.550133   1.000000   1.000000
    9        0.257301      0.257303   1.000000   1.000000
   10        5.336564      5.336570   0.000000   0.000000
   11        6.409110      6.409112   0.000000   0.000000
   12        8.623319      8.623322   0.000000   0.000000
   13       11.435986     11.435994   0.000000   0.000000
   14       11.877481     11.877489   0.000000   0.000000
   15       12.806178     12.806186   0.000000   0.000000
   16       14.135625     14.135627   0.000000   0.000000
 
  0.4545455E+00  0.9090909E-01  0.0000000E+00  0.4722550E-02
    1      -43.296250    -43.296263   1.000000   1.000000
    2      -21.553467    -21.553469   1.000000   1.000000
    3      -17.283121    -17.283122   1.000000   1.000000
    4       -6.515063     -6.515063   1.000000   1.000000
    5       -5.877699     -5.877695   1.000000   1.000000
    6       -5.411675     -5.411676   1.000000   1.000000
    7       -3.850381     -3.850377   1.000000   1.000000
    8       -0.828051     -0.828048   1.000000   1.000000
    9        0.115538      0.115541   1.000000   1.000000
   10        5.034052      5.034059   0.000000   0.000000
   11        6.387504      6.387505   0.000000   0.000000
   12        9.038978      9.038981   0.000000   0.000000
   13       11.651834     11.651843   0.000000   0.000000
   14       11.934198     11.934204   0.000000   0.000000
   15       13.164917     13.164928   0.000000   0.000000
   16       14.033673     14.033673   0.000000   0.000000
 
 -0.4545455E+00  0.9090909E-01 -0.1387779E-16  0.4722550E-02
    1      -43.295894    -43.295908   1.000000   1.000000
    2      -21.539300    -21.539302   1.000000   1.000000
    3      -17.272852    -17.272853   1.000000   1.000000
    4       -6.578030     -6.578030   1.000000   1.000000
    5       -5.848921     -5.848917   1.000000   1.000000
    6       -5.425368     -5.425369   1.000000   1.000000
    7       -3.848559     -3.848555   1.000000   1.000000
    8       -0.930972     -0.930969   1.000000   1.000000
    9        0.049551      0.049554   1.000000   1.000000
   10        4.926876      4.926883   0.000000   0.000000
   11        6.363874      6.363876   0.000000   0.000000
   12        9.146580      9.146583   0.000000   0.000000
   13       11.679629     11.679637   0.000000   0.000000
   14       12.159887     12.159893   0.000000   0.000000
   15       13.258820     13.258832   0.000000   0.000000
   16       13.940954     13.940957   0.000000   0.000000
 
 -0.3636364E+00  0.9090909E-01  0.1387779E-16  0.4722550E-02
    1      -43.296343    -43.296356   1.000000   1.000000
    2      -21.557641    -21.557643   1.000000   1.000000
    3      -17.279908    -17.279909   1.000000   1.000000
    4       -6.550434     -6.550433   1.000000   1.000000
    5       -5.863640     -5.863636   1.000000   1.000000
    6       -5.410536     -5.410536   1.000000   1.000000
    7       -3.790973     -3.790969   1.000000   1.000000
    8       -0.836549     -0.836545   1.000000   1.000000
    9        0.077376      0.077379   1.000000   1.000000
   10        5.044220      5.044227   0.000000   0.000000
   11        6.347470      6.347471   0.000000   0.000000
   12        9.045289      9.045292   0.000000   0.000000
   13       11.681846     11.681853   0.000000   0.000000
   14       12.120097     12.120103   0.000000   0.000000
   15       13.082418     13.082429   0.000000   0.000000
   16       13.857038     13.857041   0.000000   0.000000
 
 -0.2727273E+00  0.9090909E-01 -0.2081668E-16  0.4722550E-02
    1      -43.297462    -43.297476   1.000000   1.000000
    2      -21.602267    -21.602269   1.000000   1.000000
    3      -17.302107    -17.302108   1.000000   1.000000
    4       -6.514025     -6.514021   1.000000   1.000000
    5       -5.830788     -5.830786   1.000000   1.000000
    6       -5.358556     -5.358557   1.000000   1.000000
    7       -3.718294     -3.718290   1.000000   1.000000
    8       -0.558824     -0.558820   1.000000   1.000000
    9        0.193300      0.193302   1.000000   1.000000
   10        5.343297      5.343304   0.000000   0.000000
   11        6.335590      6.335592   0.000000   0.000000
   12        8.622951      8.622953   0.000000   0.000000
   13       11.653274     11.653283   0.000000   0.000000
   14       12.047651     12.047656   0.000000   0.000000
   15       12.700230     12.700238   0.000000   0.000000
   16       13.796441     13.796447   0.000000   0.000000
 
 -0.1818182E+00  0.9090909E-01  0.3469447E-17  0.4722550E-02
    1      -43.298895    -43.298909   1.000000   1.000000
    2      -21.658311    -21.658313   1.000000   1.000000
    3      -17.332200    -17.332201   1.000000   1.000000
    4       -6.570511     -6.570506   1.000000   1.000000
    5       -5.651269     -5.651269   1.000000   1.000000
    6       -5.271780     -5.271781   1.000000   1.000000
    7       -3.672137     -3.672134   1.000000   1.000000
    8       -0.157004     -0.157000   1.000000   1.000000
    9        0.358840      0.358842   1.000000   1.000000
   10        5.730963      5.730968   0.000000   0.000000
   11        6.319786      6.319788   0.000000   0.000000
   12        7.914190      7.914192   0.000000   0.000000
   13       11.290416     11.290427   0.000000   0.000000
   14       11.919622     11.919629   0.000000   0.000000
   15       12.954881     12.954886   0.000000   0.000000
   16       13.846032     13.846072   0.000000   0.000000
 
 -0.9090909E-01  0.9090909E-01  0.0000000E+00  0.2361275E-02
    1      -43.300214    -43.300227   1.000000   1.000000
    2      -21.707916    -21.707917   1.000000   1.000000
    3      -17.360621    -17.360622   1.000000   1.000000
    4       -6.662242     -6.662236   1.000000   1.000000
    5       -5.418791     -5.418791   1.000000   1.000000
    6       -5.178494     -5.178495   1.000000   1.000000
    7       -3.658689     -3.658686   1.000000   1.000000
    8        0.258734      0.258737   1.000000   1.000000
    9        0.509588      0.509590   1.000000   1.000000
   10        6.089172      6.089176   0.000000   0.000000
   11        6.305958      6.305960   0.000000   0.000000
   12        7.223715      7.223717   0.000000   0.000000
   13       10.722619     10.722630   0.000000   0.000000
   14       11.717411     11.717419   0.000000   0.000000
   15       13.968259     13.950067   0.000000   0.000000
   16       14.010720     14.010886   0.000000   0.000000
 
  0.1818182E+00  0.1818182E+00 -0.2775558E-16  0.2361275E-02
    1      -43.299667    -43.299681   1.000000   1.000000
    2      -21.685186    -21.685187   1.000000   1.000000
    3      -17.360544    -17.360545   1.000000   1.000000
    4       -6.536353     -6.536347   1.000000   1.000000
    5       -5.473219     -5.473219   1.000000   1.000000
    6       -5.285197     -5.285197   1.000000   1.000000
    7       -3.781716     -3.781712   1.000000   1.000000
    8        0.028599      0.028602   1.000000   1.000000
    9        0.684385      0.684387   1.000000   1.000000
   10        6.069858      6.069861   0.000000   0.000000
   11        6.316543      6.316545   0.000000   0.000000
   12        7.466873      7.466875   0.000000   0.000000
   13       10.674882     10.674893   0.000000   0.000000
   14       11.537341     11.537350   0.000000   0.000000
   15       13.684501     13.684509   0.000000   0.000000
   16       14.186947     14.187030   0.000000   0.000000
 
  0.2727273E+00  0.1818182E+00  0.2775558E-16  0.4722550E-02
    1      -43.298640    -43.298653   1.000000   1.000000
    2      -21.645503    -21.645504   1.000000   1.000000
    3      -17.342826    -17.342827   1.000000   1.000000
    4       -6.430452     -6.430447   1.000000   1.000000
    5       -5.650047     -5.650047   1.000000   1.000000
    6       -5.355673     -5.355674   1.000000   1.000000
    7       -3.849235     -3.849231   1.000000   1.000000
    8       -0.251526     -0.251523   1.000000   1.000000
    9        0.595791      0.595793   1.000000   1.000000
   10        5.865381      5.865385   0.000000   0.000000
   11        6.234763      6.234765   0.000000   0.000000
   12        8.014581      8.014583   0.000000   0.000000
   13       10.926940     10.926951   0.000000   0.000000
   14       11.731306     11.731315   0.000000   0.000000
   15       13.021403     13.021410   0.000000   0.000000
   16       14.093343     14.093350   0.000000   0.000000
 
  0.3636364E+00  0.1818182E+00 -0.2775558E-16  0.4722550E-02
    1      -43.297388    -43.297402   1.000000   1.000000
    2      -21.595811    -21.595813   1.000000   1.000000
    3      -17.317330    -17.317331   1.000000   1.000000
    4       -6.362807     -6.362804   1.000000   1.000000
    5       -5.781718     -5.781716   1.000000   1.000000
    6       -5.458434     -5.458434   1.000000   1.000000
    7       -3.923503     -3.923499   1.000000   1.000000
    8       -0.527767     -0.527764   1.000000   1.000000
    9        0.379882      0.379884   1.000000   1.000000
   10        5.496180      5.496186   0.000000   0.000000
   11        6.199305      6.199307   0.000000   0.000000
   12        8.785486      8.785489   0.000000   0.000000
   13       11.131384     11.131392   0.000000   0.000000
   14       11.975408     11.975417   0.000000   0.000000
   15       12.715553     12.715561   0.000000   0.000000
   16       14.002168     14.002183   0.000000   0.000000
 
  0.4545455E+00  0.1818182E+00  0.0000000E+00  0.4722550E-02
    1      -43.296224    -43.296237   1.000000   1.000000
    2      -21.551562    -21.551564   1.000000   1.000000
    3      -17.291787    -17.291788   1.000000   1.000000
    4       -6.398912     -6.398911   1.000000   1.000000
    5       -5.819860     -5.819857   1.000000   1.000000
    6       -5.514622     -5.514622   1.000000   1.000000
    7       -3.991109     -3.991105   1.000000   1.000000
    8       -0.723306     -0.723302   1.000000   1.000000
    9        0.122919      0.122922   1.000000   1.000000
   10        5.159875      5.159882   0.000000   0.000000
   11        6.149305      6.149307   0.000000   0.000000
   12        9.493264      9.493267   0.000000   0.000000
   13       11.379318     11.379324   0.000000   0.000000
   14       11.901727     11.901735   0.000000   0.000000
   15       12.927377     12.927388   0.000000   0.000000
   16       13.904484     13.904490   0.000000   0.000000
 
 -0.4545455E+00  0.1818182E+00 -0.1387779E-16  0.4722550E-02
    1      -43.295623    -43.295636   1.000000   1.000000
    2      -21.527638    -21.527639   1.000000   1.000000
    3      -17.274564    -17.274565   1.000000   1.000000
    4       -6.462837     -6.462837   1.000000   1.000000
    5       -5.848226     -5.848224   1.000000   1.000000
    6       -5.500983     -5.500982   1.000000   1.000000
    7       -4.008168     -4.008164   1.000000   1.000000
    8       -0.800462     -0.800459   1.000000   1.000000
    9       -0.086470     -0.086467   1.000000   1.000000
   10        4.965728      4.965735   0.000000   0.000000
   11        6.115622      6.115624   0.000000   0.000000
   12        9.797624      9.797627   0.000000   0.000000
   13       11.752998     11.753004   0.000000   0.000000
   14       11.938376     11.938384   0.000000   0.000000
   15       12.922113     12.922125   0.000000   0.000000
   16       13.823610     13.823616   0.000000   0.000000
 
 -0.3636364E+00  0.1818182E+00  0.6938894E-17  0.4722550E-02
    1      -43.295719    -43.295733   1.000000   1.000000
    2      -21.531859    -21.531860   1.000000   1.000000
    3      -17.271094    -17.271095   1.000000   1.000000
    4       -6.494505     -6.494505   1.000000   1.000000
    5       -5.823442     -5.823440   1.000000   1.000000
    6       -5.530162     -5.530161   1.000000   1.000000
    7       -3.934248     -3.934244   1.000000   1.000000
    8       -0.773331     -0.773328   1.000000   1.000000
    9       -0.163499     -0.163496   1.000000   1.000000
   10        4.964434      4.964441   0.000000   0.000000
   11        6.121721      6.121723   0.000000   0.000000
   12        9.762341      9.762344   0.000000   0.000000
   13       11.719169     11.719175   0.000000   0.000000
   14       12.174281     12.174289   0.000000   0.000000
   15       12.856128     12.856140   0.000000   0.000000
   16       13.771870     13.771875   0.000000   0.000000
 
 -0.2727273E+00  0.1818182E+00 -0.6938894E-17  0.4722550E-02
    1      -43.296480    -43.296494   1.000000   1.000000
    2      -21.562819    -21.562820   1.000000   1.000000
    3      -17.282659    -17.282660   1.000000   1.000000
    4       -6.500975     -6.500972   1.000000   1.000000
    5       -5.752403     -5.752401   1.000000   1.000000
    6       -5.560539     -5.560539   1.000000   1.000000
    7       -3.809322     -3.809318   1.000000   1.000000
    8       -0.667041     -0.667037   1.000000   1.000000
    9       -0.062884     -0.062881   1.000000   1.000000
   10        5.140619      5.140627   0.000000   0.000000
   11        6.166304      6.166305   0.000000   0.000000
   12        9.384902      9.384904   0.000000   0.000000
   13       11.669169     11.669175   0.000000   0.000000
   14       12.258049     12.258058   0.000000   0.000000
   15       12.632738     12.632747   0.000000   0.000000
   16       13.690620     13.690635   0.000000   0.000000
 
 -0.1818182E+00  0.1818182E+00  0.0000000E+00  0.2361275E-02
    1      -43.297656    -43.297670   1.000000   1.000000
    2      -21.610046    -21.610047   1.000000   1.000000
    3      -17.305446    -17.305447   1.000000   1.000000
    4       -6.520325     -6.520321   1.000000   1.000000
    5       -5.729670     -5.729669   1.000000   1.000000
    6       -5.433969     -5.433970   1.000000   1.000000
    7       -3.710939     -3.710935   1.000000   1.000000
    8       -0.459405     -0.459401   1.000000   1.000000
    9        0.150600      0.150603   1.000000   1.000000
   10        5.427830      5.427837   0.000000   0.000000
   11        6.233526      6.233528   0.000000   0.000000
   12        8.673502      8.673504   0.000000   0.000000
   13       11.679108     11.679117   0.000000   0.000000
   14       12.202151     12.202156   0.000000   0.000000
   15       12.437908     12.437915   0.000000   0.000000
   16       13.668553     13.668558   0.000000   0.000000
 
  0.2727273E+00  0.2727273E+00  0.0000000E+00  0.2361275E-02
    1      -43.298016    -43.298030   1.000000   1.000000
    2      -21.619759    -21.619760   1.000000   1.000000
    3      -17.336283    -17.336284   1.000000   1.000000
    4       -6.374991     -6.374987   1.000000   1.000000
    5       -5.691405     -5.691404   1.000000   1.000000
    6       -5.399177     -5.399177   1.000000   1.000000
    7       -3.953172     -3.953168   1.000000   1.000000
    8       -0.478131     -0.478128   1.000000   1.000000
    9        0.676652      0.676654   1.000000   1.000000
   10        5.906463      5.906466   0.000000   0.000000
   11        5.986283      5.986286   0.000000   0.000000
   12        8.337880      8.337882   0.000000   0.000000
   13       10.837464     10.837474   0.000000   0.000000
   14       11.955339     11.955347   0.000000   0.000000
   15       12.877132     12.877141   0.000000   0.000000
   16       13.914426     13.914434   0.000000   0.000000
 
  0.3636364E+00  0.2727273E+00  0.0000000E+00  0.4722550E-02
    1      -43.297074    -43.297087   1.000000   1.000000
    2      -21.581820    -21.581821   1.000000   1.000000
    3      -17.320171    -17.320172   1.000000   1.000000
    4       -6.366965     -6.366963   1.000000   1.000000
    5       -5.675223     -5.675220   1.000000   1.000000
    6       -5.494259     -5.494259   1.000000   1.000000
    7       -4.067448     -4.067444   1.000000   1.000000
    8       -0.698578     -0.698575   1.000000   1.000000
    9        0.581150      0.581152   1.000000   1.000000
   10        5.623524      5.623528   0.000000   0.000000
   11        5.934078      5.934081   0.000000   0.000000
   12        8.932701      8.932704   0.000000   0.000000
   13       10.876116     10.876126   0.000000   0.000000
   14       12.147194     12.147202   0.000000   0.000000
   15       12.733993     12.734003   0.000000   0.000000
   16       13.753075     13.753080   0.000000   0.000000
 
  0.4545455E+00  0.2727273E+00 -0.5551115E-16  0.4722550E-02
    1      -43.296110    -43.296124   1.000000   1.000000
    2      -21.543695    -21.543696   1.000000   1.000000
    3      -17.299538    -17.299538   1.000000   1.000000
    4       -6.380564     -6.380563   1.000000   1.000000
    5       -5.723131     -5.723130   1.000000   1.000000
    6       -5.510316     -5.510313   1.000000   1.000000
    7       -4.177089     -4.177085   1.000000   1.000000
    8       -0.824497     -0.824494   1.000000   1.000000
    9        0.327398      0.327401   1.000000   1.000000
   10        5.312458      5.312463   0.000000   0.000000
   11        5.873817      5.873819   0.000000   0.000000
   12        9.779575      9.779578   0.000000   0.000000
   13       10.983925     10.983932   0.000000   0.000000
   14       12.070695     12.070705   0.000000   0.000000
   15       12.747479     12.747488   0.000000   0.000000
   16       13.705593     13.705601   0.000000   0.000000
 
 -0.4545455E+00  0.2727273E+00  0.6938894E-17  0.4722550E-02
    1      -43.295434    -43.295448   1.000000   1.000000
    2      -21.517576    -21.517578   1.000000   1.000000
    3      -17.280815    -17.280816   1.000000   1.000000
    4       -6.348137     -6.348137   1.000000   1.000000
    5       -5.932025     -5.932025   1.000000   1.000000
    6       -5.408288     -5.408285   1.000000   1.000000
    7       -4.229612     -4.229607   1.000000   1.000000
    8       -0.811381     -0.811378   1.000000   1.000000
    9       -0.006745     -0.006741   1.000000   1.000000
   10        5.075608      5.075614   0.000000   0.000000
   11        5.842088      5.842090   0.000000   0.000000
   12       10.529462     10.529466   0.000000   0.000000
   13       11.255760     11.255765   0.000000   0.000000
   14       12.042947     12.042956   0.000000   0.000000
   15       12.509798     12.509808   0.000000   0.000000
   16       13.703622     13.703631   0.000000   0.000000
 
 -0.3636364E+00  0.2727273E+00  0.1387779E-16  0.4722550E-02
    1      -43.295264    -43.295278   1.000000   1.000000
    2      -21.512140    -21.512141   1.000000   1.000000
    3      -17.269984    -17.269985   1.000000   1.000000
    4       -6.335466     -6.335465   1.000000   1.000000
    5       -6.013985     -6.013985   1.000000   1.000000
    6       -5.429902     -5.429899   1.000000   1.000000
    7       -4.152468     -4.152464   1.000000   1.000000
    8       -0.660858     -0.660855   1.000000   1.000000
    9       -0.327321     -0.327318   1.000000   1.000000
   10        4.966738      4.966745   0.000000   0.000000
   11        5.884808      5.884810   0.000000   0.000000
   12       10.588327     10.588331   0.000000   0.000000
   13       11.684475     11.684479   0.000000   0.000000
   14       12.103812     12.103820   0.000000   0.000000
   15       12.417183     12.417196   0.000000   0.000000
   16       13.674799     13.674808   0.000000   0.000000
 
 -0.2727273E+00  0.2727273E+00  0.0000000E+00  0.2361275E-02
    1      -43.295632    -43.295645   1.000000   1.000000
    2      -21.529052    -21.529053   1.000000   1.000000
    3      -17.270594    -17.270595   1.000000   1.000000
    4       -6.434671     -6.434670   1.000000   1.000000
    5       -5.842939     -5.842939   1.000000   1.000000
    6       -5.564679     -5.564676   1.000000   1.000000
    7       -3.976820     -3.976816   1.000000   1.000000
    8       -0.601372     -0.601368   1.000000   1.000000
    9       -0.357442     -0.357439   1.000000   1.000000
   10        4.998147      4.998154   0.000000   0.000000
   11        6.003011      6.003013   0.000000   0.000000
   12       10.150576     10.150578   0.000000   0.000000
   13       11.577745     11.577749   0.000000   0.000000
   14       12.405823     12.405837   0.000000   0.000000
   15       12.517819     12.517826   0.000000   0.000000
   16       13.666879     13.666886   0.000000   0.000000
 
  0.3636364E+00  0.3636364E+00 -0.5551115E-16  0.2361275E-02