       N       E                     dE             d eps       ncg     rms          rms(c)
DAV:   1     0.784357070125E+02    0.78436E+02   -0.85725E+03 14976   0.107E+03
DAV:   2    -0.244428948340E+02   -0.10288E+03   -0.99334E+02 20560   0.245E+02
DAV:   3    -0.292955173434E+02   -0.48526E+01   -0.48354E+01 21536   0.555E+01
DAV:   4    -0.294401075512E+02   -0.14459E+00   -0.14454E+00 20920   0.841E+00
DAV:   5    -0.294418277013E+02   -0.17202E-02   -0.17201E-02 20664   0.852E-01    0.100E+01
RMM:   6    -0.277037004252E+02    0.17381E+01   -0.32582E+00 14976   0.101E+01    0.519E+00
RMM:   7    -0.274941373840E+02    0.20956E+00   -0.34227E-01 15134   0.375E+00    0.300E+00
RMM:   8    -0.274596036880E+02    0.34534E-01   -0.14668E-01 15101   0.236E+00    0.947E-01
RMM:   9    -0.274589125772E+02    0.69111E-03   -0.12234E-02 15662   0.723E-01    0.178E-01
RMM:  10    -0.274594347889E+02   -0.52221E-03   -0.27468E-03 15691   0.351E-01    0.112E-01
RMM:  11    -0.274593068232E+02    0.12797E-03   -0.47261E-04 15079   0.133E-01    0.208E-02
RMM:  12    -0.274593191126E+02   -0.12289E-04   -0.13169E-04 14884   0.617E-02    0.159E-02
RMM:  13    -0.274593154913E+02    0.36213E-05   -0.21843E-05 10885   0.246E-02
   1 F= -.27459315E+02 E0= -.27459315E+02  d E =-.274593E+02  mag=    -0.0000
       N       E                     dE             d eps       ncg     rms          rms(c)
DAV:   1    -0.274595897324E+02   -0.27062E-03   -0.29408E-02 18728   0.131E+00    0.103E-01
RMM:   2    -0.274593508075E+02    0.23892E-03   -0.72807E-04 15453   0.203E-01    0.445E-02
RMM:   3    -0.274593007931E+02    0.50014E-04   -0.16606E-04 14995   0.782E-02    0.151E-02
RMM:   4    -0.274592990728E+02    0.17204E-05   -0.11419E-06 10189   0.154E-02
   2 F= -.27459299E+02 E0= -.27459299E+02  d E =0.164186E-04  mag=    -0.0000
       N       E                     dE             d eps       ncg     rms          rms(c)
DAV:   1    -0.274594406336E+02   -0.13984E-03   -0.82117E-03 16120   0.693E-01    0.534E-02
RMM:   2    -0.274593759352E+02    0.64698E-04   -0.19093E-04 14852   0.106E-01    0.235E-02
RMM:   3    -0.274593618116E+02    0.14124E-04   -0.44557E-05 13955   0.412E-02    0.761E-03
RMM:   4    -0.274593610485E+02    0.76304E-06   -0.80097E-07  8184   0.884E-03
   3 F= -.27459361E+02 E0= -.27459361E+02  d E =-.455572E-04  mag=     0.0000
