 vasp.5.4.4.18Apr17-6-g9f103f2a35 (build Aug 12 2020 11:57:02) complex          
  
 executed on             LinuxIFC date 2021.02.02  18:38:59
 running on   24 total cores
 distrk:  each k-point on   24 cores,    1 groups
 distr:  one band on NCORES_PER_BAND=   6 cores,    4 groups


--------------------------------------------------------------------------------------------------------


 INCAR:
 POTCAR:    PAW_PBE Li_sv 10Sep2004               
 POTCAR:    PAW_PBE N 08Apr2002                   
 POTCAR:    PAW_PBE Li_sv 10Sep2004               
   VRHFIN =Li: 1s2s2p                                                           
   LEXCH  = PE                                                                  
   EATOM  =   202.7858 eV,   14.9043 Ry                                         
                                                                                
   TITEL  = PAW_PBE Li_sv 10Sep2004                                             
   LULTRA =        F    use ultrasoft PP ?                                      
   IUNSCR =        0    unscreen: 0-lin 1-nonlin 2-no                           
   RPACOR =    0.000    partial core radius                                     
   POMASS =    7.010; ZVAL   =    3.000    mass and valenz                      
   RCORE  =    1.700    outmost cutoff radius                                   
   RWIGS  =    2.050; RWIGS  =    1.085    wigner-seitz radius (au A)           
   ENMAX  =  499.034; ENMIN  =  374.276 eV                                      
   ICORE  =        2    local potential                                         
   LCOR   =        T    correct aug charges                                     
   LPAW   =        T    paw PP                                                  
   EAUG   =  628.945                                                            
   RMAX   =    1.732    core radius for proj-oper                               
   RAUG   =    1.300    factor for augmentation sphere                          
   RDEP   =    1.728    radius for radial grids                                 
   RDEPT  =    1.329    core radius for aug-charge                              
                                                                                
   Atomic configuration                                                         
    4 entries                                                                   
     n  l   j            E        occ.                                          
     1  0  0.50       -51.8549   2.0000                                         
     2  0  0.50        -2.8742   1.0000                                         
     2  1  0.50        -1.3606   0.0000                                         
     3  2  1.50        -1.3606   0.0000                                         
   Description                                                                  
     l       E           TYP  RCUT    TYP  RCUT                                 
     0    -51.8548813     23  1.400                                             
     0     -2.8742052     23  1.700                                             
     1     -1.3605826     23  1.400                                             
     2     -1.3605826     23  1.400                                             
  local pseudopotential read in
  atomic valenz-charges read in
  non local Contribution for L=           0  read in
    real space projection operators read in
  non local Contribution for L=           0  read in
    real space projection operators read in
  non local Contribution for L=           1  read in
    real space projection operators read in
    PAW grid and wavefunctions read in
 
   number of l-projection  operators is LMAX  =           3
   number of lm-projection operators is LMMAX =           5
 
 POTCAR:    PAW_PBE N 08Apr2002                   
   VRHFIN =N: s2p3                                                              
   LEXCH  = PE                                                                  
   EATOM  =   264.5486 eV,   19.4438 Ry                                         
                                                                                
   TITEL  = PAW_PBE N 08Apr2002                                                 
   LULTRA =        F    use ultrasoft PP ?                                      
   IUNSCR =        1    unscreen: 0-lin 1-nonlin 2-no                           
   RPACOR =    1.200    partial core radius                                     
   POMASS =   14.001; ZVAL   =    5.000    mass and valenz                      
   RCORE  =    1.500    outmost cutoff radius                                   
   RWIGS  =    1.400; RWIGS  =    0.741    wigner-seitz radius (au A)           
   ENMAX  =  400.000; ENMIN  =  300.000 eV                                      
   ICORE  =        2    local potential                                         
   LCOR   =        T    correct aug charges                                     
   LPAW   =        T    paw PP                                                  
   EAUG   =  627.112                                                            
   DEXC   =    0.000                                                            
   RMAX   =    1.529    core radius for proj-oper                               
   RAUG   =    1.300    factor for augmentation sphere                          
   RDEP   =    1.514    radius for radial grids                                 
   RDEPT  =    1.338    core radius for aug-charge                              
                                                                                
   Atomic configuration                                                         
    4 entries                                                                   
     n  l   j            E        occ.                                          
     1  0  0.50      -384.7179   2.0000                                         
     2  0  0.50       -18.5828   2.0000                                         
     2  1  0.50        -7.0898   3.0000                                         
     3  2  1.50        -6.8029   0.0000                                         
   Description                                                                  
     l       E           TYP  RCUT    TYP  RCUT                                 
     0    -18.5828119     23  1.200                                             
     0    -13.5018863     23  1.200                                             
     1     -7.0897853     23  1.500                                             
     1      9.5240782     23  1.500                                             
     2     -6.8029130      7  1.500                                             
  local pseudopotential read in
  partial core-charges read in
  partial kinetic energy density read in
  atomic valenz-charges read in
  non local Contribution for L=           0  read in
    real space projection operators read in
  non local Contribution for L=           0  read in
    real space projection operators read in
  non local Contribution for L=           1  read in
    real space projection operators read in
  non local Contribution for L=           1  read in
    real space projection operators read in
    PAW grid and wavefunctions read in
 
   number of l-projection  operators is LMAX  =           4
   number of lm-projection operators is LMMAX =           8
 

 ----------------------------------------------------------------------------- 
|                                                                             |
|  ADVICE TO THIS USER RUNNING 'VASP/VAMP'   (HEAR YOUR MASTER'S VOICE ...):  |
|                                                                             |
|      You have a (more or less) 'small supercell' and for smaller cells      |
|      it is recommended  to use the reciprocal-space projection scheme!      |
|      The real space optimization is not  efficient for small cells and it   |
|      is also less accurate ...                                              |
|      Therefore set LREAL=.FALSE. in the  INCAR file                         |
|                                                                             |
 ----------------------------------------------------------------------------- 

 Optimization of the real space projectors (new method)

 maximal supplied QI-value         = 22.11
 optimisation between [QCUT,QGAM] = [ 11.50, 23.22] = [ 37.02,150.92] Ry 
 Optimized for a Real-space Cutoff    1.08 Angstroem

   l    n(q)    QCUT    max X(q) W(low)/X(q) W(high)/X(q)  e(spline) 
   0      7    11.497    10.506    0.36E-04    0.62E-04    0.14E-07
   0      7    11.497     8.367    0.65E-04    0.14E-03    0.28E-07
   1      7    11.497     8.983    0.21E-03    0.43E-03    0.90E-07
 Optimization of the real space projectors (new method)

 maximal supplied QI-value         = 25.13
 optimisation between [QCUT,QGAM] = [ 11.56, 23.12] = [ 37.43,149.72] Ry 
 Optimized for a Real-space Cutoff    1.40 Angstroem

   l    n(q)    QCUT    max X(q) W(low)/X(q) W(high)/X(q)  e(spline) 
   0     10    11.561    79.467    0.46E-04    0.78E-04    0.61E-06
   0     10    11.561    66.151    0.45E-04    0.77E-04    0.61E-06
   1      9    11.561    18.886    0.22E-03    0.13E-03    0.12E-05
   1      9    11.561    13.488    0.23E-03    0.13E-03    0.12E-05
  PAW_PBE Li_sv 10Sep2004               :
 energy of atom  1       EATOM= -202.7858
 kinetic energy error for atom=    0.0130 (will be added to EATOM!!)
  PAW_PBE N 08Apr2002                   :
 energy of atom  2       EATOM= -264.5486
 kinetic energy error for atom=    0.0125 (will be added to EATOM!!)
 
 
 POSCAR: Li1 N3                                  
  positions in direct lattice
  No initial velocities read in
 exchange correlation table for  LEXCH =        8
   RHO(1)=    0.500       N(1)  =     2000
   RHO(2)=  100.500       N(2)  =     4000
 


--------------------------------------------------------------------------------------------------------


 ion  position               nearest neighbor table
   1  0.000  0.000  0.000-
   2  0.606  0.606  0.257-   4 1.18
   3  0.394  0.394  0.743-   4 1.18
   4  0.500  0.500  0.500-   2 1.18   3 1.18
 
  LATTYP: Found a base centered monoclinic cell.
 ALAT       =     5.6850680000
 B/A-ratio  =     0.5899753530
 C/A-ratio  =     2.4107902249
 COS(beta)  =    -0.8075790219
  
  Lattice vectors:
  
 A1 = (  -1.6770250000,   2.8425340000,   0.0000000000)
 A2 = (   1.6770250000,   2.8425340000,   0.0000000000)
 A3 = (   0.0000000000, -12.8509870000,  -4.7637210000)


Analysis of symmetry for initial positions (statically):
=====================================================================
 Subroutine PRICEL returns:
 Original cell was already a primitive cell.
 

 Routine SETGRP: Setting up the symmetry group for a 
 base centered monoclinic supercell.


 Subroutine GETGRP returns: Found  4 space group operations
 (whereof  4 operations were pure point group operations)
 out of a pool of  4 trial point group operations.


The static configuration has the point symmetry C_2h.


Analysis of symmetry for dynamics (positions and initial velocities):
=====================================================================
 Subroutine PRICEL returns:
 Original cell was already a primitive cell.
 

 Routine SETGRP: Setting up the symmetry group for a 
 base centered monoclinic supercell.


 Subroutine GETGRP returns: Found  4 space group operations
 (whereof  4 operations were pure point group operations)
 out of a pool of  4 trial point group operations.


The dynamic configuration has the point symmetry C_2h.


Analysis of structural, dynamic, and magnetic symmetry:
=====================================================================
 Subroutine PRICEL returns:
 Original cell was already a primitive cell.
 

 Routine SETGRP: Setting up the symmetry group for a 
 base centered monoclinic supercell.


 Subroutine GETGRP returns: Found  4 space group operations
 (whereof  4 operations were pure point group operations)
 out of a pool of  4 trial point group operations.


The magnetic configuration has the point symmetry C_2h.


 Subroutine INISYM returns: Found  4 space group operations
 (whereof  4 operations are pure point group operations),
 and found     1 'primitive' translations

 
 
 KPOINTS: Fully automatic kpoint scheme           

Automatic generation of k-mesh.
 generate k-points for:   11   11    7
Space group operators:
 irot       det(A)        alpha          n_x          n_y          n_z        tau_x        tau_y        tau_z
    1     1.000000     0.000000     1.000000     0.000000     0.000000     0.000000     0.000000     0.000000
    2    -1.000000     0.000000     1.000000     0.000000     0.000000     0.000000     0.000000     0.000000
    3     1.000000   180.000000     1.000000     0.000000     0.000000     0.000000     0.000000     0.000000
    4    -1.000000   180.000000     1.000000     0.000000     0.000000     0.000000     0.000000     0.000000
 
 Subroutine IBZKPT returns following result:
 ===========================================
 
 Found    234 irreducible k-points:
 
 Following reciprocal coordinates:
            Coordinates               Weight
  0.000000  0.000000  0.000000      1.000000
  0.090909 -0.000000 -0.000000      4.000000
  0.181818 -0.000000 -0.000000      4.000000
  0.272727 -0.000000  0.000000      4.000000
  0.363636 -0.000000 -0.000000      4.000000
  0.454545  0.000000  0.000000      4.000000
  0.090909  0.090909 -0.000000      2.000000
  0.181818  0.090909 -0.000000      4.000000
  0.272727  0.090909 -0.000000      4.000000
  0.363636  0.090909  0.000000      4.000000
  0.454545  0.090909  0.000000      4.000000
 -0.454545  0.090909 -0.000000      4.000000
 -0.363636  0.090909  0.000000      4.000000
 -0.272727  0.090909 -0.000000      4.000000
 -0.181818  0.090909  0.000000      4.000000
 -0.090909  0.090909  0.000000      2.000000
  0.181818  0.181818 -0.000000      2.000000
  0.272727  0.181818  0.000000      4.000000
  0.363636  0.181818 -0.000000      4.000000
  0.454545  0.181818  0.000000      4.000000
 -0.454545  0.181818 -0.000000      4.000000
 -0.363636  0.181818  0.000000      4.000000
 -0.272727  0.181818 -0.000000      4.000000
 -0.181818  0.181818  0.000000      2.000000
  0.272727  0.272727  0.000000      2.000000
  0.363636  0.272727  0.000000      4.000000
  0.454545  0.272727 -0.000000      4.000000
 -0.454545  0.272727  0.000000      4.000000
 -0.363636  0.272727  0.000000      4.000000
 -0.272727  0.272727  0.000000      2.000000
  0.363636  0.363636 -0.000000      2.000000
  0.454545  0.363636 -0.000000      4.000000
 -0.454545  0.363636 -0.000000      4.000000
 -0.363636  0.363636  0.000000      2.000000
  0.454545  0.454545  0.000000      2.000000
 -0.454545  0.454545  0.000000      2.000000
  0.000000  0.000000  0.142857      2.000000
  0.090909 -0.000000  0.142857      4.000000
  0.181818 -0.000000  0.142857      4.000000
  0.272727 -0.000000  0.142857      4.000000
  0.363636 -0.000000  0.142857      4.000000
  0.454545  0.000000  0.142857      4.000000
 -0.454545  0.000000  0.142857      4.000000
 -0.363636  0.000000  0.142857      4.000000
 -0.272727  0.000000  0.142857      4.000000
 -0.181818  0.000000  0.142857      4.000000
 -0.090909  0.000000  0.142857      4.000000
  0.090909  0.090909  0.142857      2.000000
  0.181818  0.090909  0.142857      4.000000
  0.272727  0.090909  0.142857      4.000000
  0.363636  0.090909  0.142857      4.000000
  0.454545  0.090909  0.142857      4.000000
 -0.454545  0.090909  0.142857      4.000000
 -0.363636  0.090909  0.142857      4.000000
 -0.272727  0.090909  0.142857      4.000000
 -0.181818  0.090909  0.142857      4.000000
 -0.090909  0.090909  0.142857      4.000000
  0.181818  0.181818  0.142857      2.000000
  0.272727  0.181818  0.142857      4.000000
  0.363636  0.181818  0.142857      4.000000
  0.454545  0.181818  0.142857      4.000000
 -0.454545  0.181818  0.142857      4.000000
 -0.363636  0.181818  0.142857      4.000000
 -0.272727  0.181818  0.142857      4.000000
 -0.181818  0.181818  0.142857      4.000000
 -0.090909  0.181818  0.142857      4.000000
  0.272727  0.272727  0.142857      2.000000
  0.363636  0.272727  0.142857      4.000000
  0.454545  0.272727  0.142857      4.000000
 -0.454545  0.272727  0.142857      4.000000
 -0.363636  0.272727  0.142857      4.000000
 -0.272727  0.272727  0.142857      4.000000
 -0.181818  0.272727  0.142857      4.000000
 -0.090909  0.272727  0.142857      4.000000
  0.363636  0.363636  0.142857      2.000000
  0.454545  0.363636  0.142857      4.000000
 -0.454545  0.363636  0.142857      4.000000
 -0.363636  0.363636  0.142857      4.000000
 -0.272727  0.363636  0.142857      4.000000
 -0.181818  0.363636  0.142857      4.000000
 -0.090909  0.363636  0.142857      4.000000
  0.454545  0.454545  0.142857      2.000000
 -0.454545  0.454545  0.142857      4.000000
 -0.363636  0.454545  0.142857      4.000000
 -0.272727  0.454545  0.142857      4.000000
 -0.181818  0.454545  0.142857      4.000000
 -0.090909  0.454545  0.142857      4.000000
 -0.454545 -0.454545  0.142857      2.000000
 -0.363636 -0.454545  0.142857      4.000000
 -0.272727 -0.454545  0.142857      4.000000
 -0.181818 -0.454545  0.142857      4.000000
 -0.090909 -0.454545  0.142857      4.000000
 -0.363636 -0.363636  0.142857      2.000000
 -0.272727 -0.363636  0.142857      4.000000
 -0.181818 -0.363636  0.142857      4.000000
 -0.090909 -0.363636  0.142857      4.000000
 -0.272727 -0.272727  0.142857      2.000000
 -0.181818 -0.272727  0.142857      4.000000
 -0.090909 -0.272727  0.142857      4.000000
 -0.181818 -0.181818  0.142857      2.000000
 -0.090909 -0.181818  0.142857      4.000000
 -0.090909 -0.090909  0.142857      2.000000
  0.000000  0.000000  0.285714      2.000000
  0.090909 -0.000000  0.285714      4.000000
  0.181818 -0.000000  0.285714      4.000000
  0.272727 -0.000000  0.285714      4.000000
  0.363636 -0.000000  0.285714      4.000000
  0.454545  0.000000  0.285714      4.000000
 -0.454545  0.000000  0.285714      4.000000
 -0.363636  0.000000  0.285714      4.000000
 -0.272727  0.000000  0.285714      4.000000
 -0.181818  0.000000  0.285714      4.000000
 -0.090909  0.000000  0.285714      4.000000
  0.090909  0.090909  0.285714      2.000000
  0.181818  0.090909  0.285714      4.000000
  0.272727  0.090909  0.285714      4.000000
  0.363636  0.090909  0.285714      4.000000
  0.454545  0.090909  0.285714      4.000000
 -0.454545  0.090909  0.285714      4.000000
 -0.363636  0.090909  0.285714      4.000000
 -0.272727  0.090909  0.285714      4.000000
 -0.181818  0.090909  0.285714      4.000000
 -0.090909  0.090909  0.285714      4.000000
  0.181818  0.181818  0.285714      2.000000
  0.272727  0.181818  0.285714      4.000000
  0.363636  0.181818  0.285714      4.000000
  0.454545  0.181818  0.285714      4.000000
 -0.454545  0.181818  0.285714      4.000000
 -0.363636  0.181818  0.285714      4.000000
 -0.272727  0.181818  0.285714      4.000000
 -0.181818  0.181818  0.285714      4.000000
 -0.090909  0.181818  0.285714      4.000000
  0.272727  0.272727  0.285714      2.000000
  0.363636  0.272727  0.285714      4.000000
  0.454545  0.272727  0.285714      4.000000
 -0.454545  0.272727  0.285714      4.000000
 -0.363636  0.272727  0.285714      4.000000
 -0.272727  0.272727  0.285714      4.000000
 -0.181818  0.272727  0.285714      4.000000
 -0.090909  0.272727  0.285714      4.000000
  0.363636  0.363636  0.285714      2.000000
  0.454545  0.363636  0.285714      4.000000
 -0.454545  0.363636  0.285714      4.000000
 -0.363636  0.363636  0.285714      4.000000
 -0.272727  0.363636  0.285714      4.000000
 -0.181818  0.363636  0.285714      4.000000
 -0.090909  0.363636  0.285714      4.000000
  0.454545  0.454545  0.285714      2.000000
 -0.454545  0.454545  0.285714      4.000000
 -0.363636  0.454545  0.285714      4.000000
 -0.272727  0.454545  0.285714      4.000000
 -0.181818  0.454545  0.285714      4.000000
 -0.090909  0.454545  0.285714      4.000000
 -0.454545 -0.454545  0.285714      2.000000
 -0.363636 -0.454545  0.285714      4.000000
 -0.272727 -0.454545  0.285714      4.000000
 -0.181818 -0.454545  0.285714      4.000000
 -0.090909 -0.454545  0.285714      4.000000
 -0.363636 -0.363636  0.285714      2.000000
 -0.272727 -0.363636  0.285714      4.000000
 -0.181818 -0.363636  0.285714      4.000000
 -0.090909 -0.363636  0.285714      4.000000
 -0.272727 -0.272727  0.285714      2.000000
 -0.181818 -0.272727  0.285714      4.000000
 -0.090909 -0.272727  0.285714      4.000000
 -0.181818 -0.181818  0.285714      2.000000
 -0.090909 -0.181818  0.285714      4.000000
 -0.090909 -0.090909  0.285714      2.000000
  0.000000  0.000000  0.428571      2.000000
  0.090909 -0.000000  0.428571      4.000000
  0.181818 -0.000000  0.428571      4.000000
  0.272727 -0.000000  0.428571      4.000000
  0.363636 -0.000000  0.428571      4.000000
  0.454545  0.000000  0.428571      4.000000
 -0.454545  0.000000  0.428571      4.000000
 -0.363636  0.000000  0.428571      4.000000
 -0.272727  0.000000  0.428571      4.000000
 -0.181818  0.000000  0.428571      4.000000
 -0.090909  0.000000  0.428571      4.000000
  0.090909  0.090909  0.428571      2.000000
  0.181818  0.090909  0.428571      4.000000
  0.272727  0.090909  0.428571      4.000000
  0.363636  0.090909  0.428571      4.000000
  0.454545  0.090909  0.428571      4.000000
 -0.454545  0.090909  0.428571      4.000000
 -0.363636  0.090909  0.428571      4.000000
 -0.272727  0.090909  0.428571      4.000000
 -0.181818  0.090909  0.428571      4.000000
 -0.090909  0.090909  0.428571      4.000000
  0.181818  0.181818  0.428571      2.000000
  0.272727  0.181818  0.428571      4.000000
  0.363636  0.181818  0.428571      4.000000
  0.454545  0.181818  0.428571      4.000000
 -0.454545  0.181818  0.428571      4.000000
 -0.363636  0.181818  0.428571      4.000000
 -0.272727  0.181818  0.428571      4.000000
 -0.181818  0.181818  0.428571      4.000000
 -0.090909  0.181818  0.428571      4.000000
  0.272727  0.272727  0.428571      2.000000
  0.363636  0.272727  0.428571      4.000000
  0.454545  0.272727  0.428571      4.000000
 -0.454545  0.272727  0.428571      4.000000
 -0.363636  0.272727  0.428571      4.000000
 -0.272727  0.272727  0.428571      4.000000
 -0.181818  0.272727  0.428571      4.000000
 -0.090909  0.272727  0.428571      4.000000
  0.363636  0.363636  0.428571      2.000000
  0.454545  0.363636  0.428571      4.000000
 -0.454545  0.363636  0.428571      4.000000
 -0.363636  0.363636  0.428571      4.000000
 -0.272727  0.363636  0.428571      4.000000
 -0.181818  0.363636  0.428571      4.000000
 -0.090909  0.363636  0.428571      4.000000
  0.454545  0.454545  0.428571      2.000000
 -0.454545  0.454545  0.428571      4.000000
 -0.363636  0.454545  0.428571      4.000000
 -0.272727  0.454545  0.428571      4.000000
 -0.181818  0.454545  0.428571      4.000000
 -0.090909  0.454545  0.428571      4.000000
 -0.454545 -0.454545  0.428571      2.000000
 -0.363636 -0.454545  0.428571      4.000000
 -0.272727 -0.454545  0.428571      4.000000
 -0.181818 -0.454545  0.428571      4.000000
 -0.090909 -0.454545  0.428571      4.000000
 -0.363636 -0.363636  0.428571      2.000000
 -0.272727 -0.363636  0.428571      4.000000
 -0.181818 -0.363636  0.428571      4.000000
 -0.090909 -0.363636  0.428571      4.000000
 -0.272727 -0.272727  0.428571      2.000000
 -0.181818 -0.272727  0.428571      4.000000
 -0.090909 -0.272727  0.428571      4.000000
 -0.181818 -0.181818  0.428571      2.000000
 -0.090909 -0.181818  0.428571      4.000000
 -0.090909 -0.090909  0.428571      2.000000
 
 Following cartesian coordinates:
            Coordinates               Weight
  0.000000  0.000000  0.000000      1.000000
  0.027104  0.015991 -0.004971      4.000000
  0.054209  0.031982 -0.009942      4.000000
  0.081313  0.047973 -0.014913      4.000000
  0.108417  0.063963 -0.019884      4.000000
  0.135521  0.079954 -0.024855      4.000000
  0.000000  0.031982 -0.009942      2.000000
  0.027104  0.047973 -0.014913      4.000000
  0.054209  0.063963 -0.019884      4.000000
  0.081313  0.079954 -0.024855      4.000000
  0.108417  0.095945 -0.029826      4.000000
 -0.162626 -0.063963  0.019884      4.000000
 -0.135521 -0.047973  0.014913      4.000000
 -0.108417 -0.031982  0.009942      4.000000
 -0.081313 -0.015991  0.004971      4.000000
 -0.054209  0.000000  0.000000      2.000000
  0.000000  0.063963 -0.019884      2.000000
  0.027104  0.079954 -0.024855      4.000000
  0.054209  0.095945 -0.029826      4.000000
  0.081313  0.111936 -0.034796      4.000000
 -0.189730 -0.047973  0.014913      4.000000
 -0.162626 -0.031982  0.009942      4.000000
 -0.135521 -0.015991  0.004971      4.000000
 -0.108417  0.000000  0.000000      2.000000
  0.000000  0.095945 -0.029826      2.000000
  0.027104  0.111936 -0.034796      4.000000
  0.054209  0.127927 -0.039767      4.000000
 -0.216834 -0.031982  0.009942      4.000000
 -0.189730 -0.015991  0.004971      4.000000
 -0.162626  0.000000  0.000000      2.000000
  0.000000  0.127927 -0.039767      2.000000
  0.027104  0.143918 -0.044738      4.000000
 -0.243938 -0.015991  0.004971      4.000000
 -0.216834  0.000000  0.000000      2.000000
  0.000000  0.159909 -0.049709      2.000000
 -0.271043 -0.000000  0.000000      2.000000
  0.000000  0.000000  0.029989      2.000000
  0.027104  0.015991  0.025018      4.000000
  0.054209  0.031982  0.020047      4.000000
  0.081313  0.047973  0.015076      4.000000
  0.108417  0.063963  0.010105      4.000000
  0.135521  0.079954  0.005134      4.000000
 -0.135521 -0.079954  0.054843      4.000000
 -0.108417 -0.063963  0.049872      4.000000
 -0.081313 -0.047973  0.044901      4.000000
 -0.054209 -0.031982  0.039930      4.000000
 -0.027104 -0.015991  0.034959      4.000000
  0.000000  0.031982  0.020047      2.000000
  0.027104  0.047973  0.015076      4.000000
  0.054209  0.063963  0.010105      4.000000
  0.081313  0.079954  0.005134      4.000000
  0.108417  0.095945  0.000163      4.000000
 -0.162626 -0.063963  0.049872      4.000000
 -0.135521 -0.047973  0.044901      4.000000
 -0.108417 -0.031982  0.039930      4.000000
 -0.081313 -0.015991  0.034959      4.000000
 -0.054209  0.000000  0.029989      4.000000
  0.000000  0.063963  0.010105      2.000000
  0.027104  0.079954  0.005134      4.000000
  0.054209  0.095945  0.000163      4.000000
  0.081313  0.111936 -0.004808      4.000000
 -0.189730 -0.047973  0.044901      4.000000
 -0.162626 -0.031982  0.039930      4.000000
 -0.135521 -0.015991  0.034959      4.000000
 -0.108417  0.000000  0.029989      4.000000
 -0.081313  0.015991  0.025018      4.000000
  0.000000  0.095945  0.000163      2.000000
  0.027104  0.111936 -0.004808      4.000000
  0.054209  0.127927 -0.009779      4.000000
 -0.216834 -0.031982  0.039930      4.000000
 -0.189730 -0.015991  0.034959      4.000000
 -0.162626  0.000000  0.029989      4.000000
 -0.135521  0.015991  0.025018      4.000000
 -0.108417  0.031982  0.020047      4.000000
  0.000000  0.127927 -0.009779      2.000000
  0.027104  0.143918 -0.014750      4.000000
 -0.243938 -0.015991  0.034959      4.000000
 -0.216834  0.000000  0.029989      4.000000
 -0.189730  0.015991  0.025018      4.000000
 -0.162626  0.031982  0.020047      4.000000
 -0.135521  0.047973  0.015076      4.000000
  0.000000  0.159909 -0.019721      2.000000
 -0.271043 -0.000000  0.029989      4.000000
 -0.243938  0.015991  0.025018      4.000000
 -0.216834  0.031982  0.020047      4.000000
 -0.189730  0.047973  0.015076      4.000000
 -0.162626  0.063963  0.010105      4.000000
  0.000000 -0.159909  0.079698      2.000000
  0.027104 -0.143918  0.074727      4.000000
  0.054209 -0.127927  0.069756      4.000000
  0.081313 -0.111936  0.064785      4.000000
  0.108417 -0.095945  0.059814      4.000000
  0.000000 -0.127927  0.069756      2.000000
  0.027104 -0.111936  0.064785      4.000000
  0.054209 -0.095945  0.059814      4.000000
  0.081313 -0.079954  0.054843      4.000000
  0.000000 -0.095945  0.059814      2.000000
  0.027104 -0.079954  0.054843      4.000000
  0.054209 -0.063963  0.049872      4.000000
  0.000000 -0.063963  0.049872      2.000000
  0.027104 -0.047973  0.044901      4.000000
  0.000000 -0.031982  0.039930      2.000000
  0.000000  0.000000  0.059977      2.000000
  0.027104  0.015991  0.055006      4.000000
  0.054209  0.031982  0.050035      4.000000
  0.081313  0.047973  0.045064      4.000000
  0.108417  0.063963  0.040093      4.000000
  0.135521  0.079954  0.035123      4.000000
 -0.135521 -0.079954  0.084832      4.000000
 -0.108417 -0.063963  0.079861      4.000000
 -0.081313 -0.047973  0.074890      4.000000
 -0.054209 -0.031982  0.069919      4.000000
 -0.027104 -0.015991  0.064948      4.000000
  0.000000  0.031982  0.050035      2.000000
  0.027104  0.047973  0.045064      4.000000
  0.054209  0.063963  0.040093      4.000000
  0.081313  0.079954  0.035123      4.000000
  0.108417  0.095945  0.030152      4.000000
 -0.162626 -0.063963  0.079861      4.000000
 -0.135521 -0.047973  0.074890      4.000000
 -0.108417 -0.031982  0.069919      4.000000
 -0.081313 -0.015991  0.064948      4.000000
 -0.054209  0.000000  0.059977      4.000000
  0.000000  0.063963  0.040093      2.000000
  0.027104  0.079954  0.035123      4.000000
  0.054209  0.095945  0.030152      4.000000
  0.081313  0.111936  0.025181      4.000000
 -0.189730 -0.047973  0.074890      4.000000
 -0.162626 -0.031982  0.069919      4.000000
 -0.135521 -0.015991  0.064948      4.000000
 -0.108417  0.000000  0.059977      4.000000
 -0.081313  0.015991  0.055006      4.000000
  0.000000  0.095945  0.030152      2.000000
  0.027104  0.111936  0.025181      4.000000
  0.054209  0.127927  0.020210      4.000000
 -0.216834 -0.031982  0.069919      4.000000
 -0.189730 -0.015991  0.064948      4.000000
 -0.162626  0.000000  0.059977      4.000000
 -0.135521  0.015991  0.055006      4.000000
 -0.108417  0.031982  0.050035      4.000000
  0.000000  0.127927  0.020210      2.000000
  0.027104  0.143918  0.015239      4.000000
 -0.243938 -0.015991  0.064948      4.000000
 -0.216834  0.000000  0.059977      4.000000
 -0.189730  0.015991  0.055006      4.000000
 -0.162626  0.031982  0.050035      4.000000
 -0.135521  0.047973  0.045064      4.000000
  0.000000  0.159909  0.010268      2.000000
 -0.271043 -0.000000  0.059977      4.000000
 -0.243938  0.015991  0.055006      4.000000
 -0.216834  0.031982  0.050035      4.000000
 -0.189730  0.047973  0.045064      4.000000
 -0.162626  0.063963  0.040093      4.000000
  0.000000 -0.159909  0.109686      2.000000
  0.027104 -0.143918  0.104715      4.000000
  0.054209 -0.127927  0.099744      4.000000
  0.081313 -0.111936  0.094774      4.000000
  0.108417 -0.095945  0.089803      4.000000
  0.000000 -0.127927  0.099744      2.000000
  0.027104 -0.111936  0.094774      4.000000
  0.054209 -0.095945  0.089803      4.000000
  0.081313 -0.079954  0.084832      4.000000
  0.000000 -0.095945  0.089803      2.000000
  0.027104 -0.079954  0.084832      4.000000
  0.054209 -0.063963  0.079861      4.000000
  0.000000 -0.063963  0.079861      2.000000
  0.027104 -0.047973  0.074890      4.000000
  0.000000 -0.031982  0.069919      2.000000
  0.000000  0.000000  0.089966      2.000000
  0.027104  0.015991  0.084995      4.000000
  0.054209  0.031982  0.080024      4.000000
  0.081313  0.047973  0.075053      4.000000
  0.108417  0.063963  0.070082      4.000000
  0.135521  0.079954  0.065111      4.000000
 -0.135521 -0.079954  0.114820      4.000000
 -0.108417 -0.063963  0.109849      4.000000
 -0.081313 -0.047973  0.104878      4.000000
 -0.054209 -0.031982  0.099908      4.000000
 -0.027104 -0.015991  0.094937      4.000000
  0.000000  0.031982  0.080024      2.000000
  0.027104  0.047973  0.075053      4.000000
  0.054209  0.063963  0.070082      4.000000
  0.081313  0.079954  0.065111      4.000000
  0.108417  0.095945  0.060140      4.000000
 -0.162626 -0.063963  0.109849      4.000000
 -0.135521 -0.047973  0.104878      4.000000
 -0.108417 -0.031982  0.099908      4.000000
 -0.081313 -0.015991  0.094937      4.000000
 -0.054209  0.000000  0.089966      4.000000
  0.000000  0.063963  0.070082      2.000000
  0.027104  0.079954  0.065111      4.000000
  0.054209  0.095945  0.060140      4.000000
  0.081313  0.111936  0.055169      4.000000
 -0.189730 -0.047973  0.104878      4.000000
 -0.162626 -0.031982  0.099908      4.000000
 -0.135521 -0.015991  0.094937      4.000000
 -0.108417  0.000000  0.089966      4.000000
 -0.081313  0.015991  0.084995      4.000000
  0.000000  0.095945  0.060140      2.000000
  0.027104  0.111936  0.055169      4.000000
  0.054209  0.127927  0.050198      4.000000
 -0.216834 -0.031982  0.099908      4.000000
 -0.189730 -0.015991  0.094937      4.000000
 -0.162626  0.000000  0.089966      4.000000
 -0.135521  0.015991  0.084995      4.000000
 -0.108417  0.031982  0.080024      4.000000
  0.000000  0.127927  0.050198      2.000000
  0.027104  0.143918  0.045227      4.000000
 -0.243938 -0.015991  0.094937      4.000000
 -0.216834  0.000000  0.089966      4.000000
 -0.189730  0.015991  0.084995      4.000000
 -0.162626  0.031982  0.080024      4.000000
 -0.135521  0.047973  0.075053      4.000000
  0.000000  0.159909  0.040256      2.000000
 -0.271043 -0.000000  0.089966      4.000000
 -0.243938  0.015991  0.084995      4.000000
 -0.216834  0.031982  0.080024      4.000000
 -0.189730  0.047973  0.075053      4.000000
 -0.162626  0.063963  0.070082      4.000000
  0.000000 -0.159909  0.139675      2.000000
  0.027104 -0.143918  0.134704      4.000000
  0.054209 -0.127927  0.129733      4.000000
  0.081313 -0.111936  0.124762      4.000000
  0.108417 -0.095945  0.119791      4.000000
  0.000000 -0.127927  0.129733      2.000000
  0.027104 -0.111936  0.124762      4.000000
  0.054209 -0.095945  0.119791      4.000000
  0.081313 -0.079954  0.114820      4.000000
  0.000000 -0.095945  0.119791      2.000000
  0.027104 -0.079954  0.114820      4.000000
  0.054209 -0.063963  0.109849      4.000000
  0.000000 -0.063963  0.109849      2.000000
  0.027104 -0.047973  0.104878      4.000000
  0.000000 -0.031982  0.099908      2.000000
 
 TETIRR: Found   1275 inequivalent tetrahedra from     5082


--------------------------------------------------------------------------------------------------------




 Dimension of arrays:
   k-points           NKPTS =    234   k-points in BZ     NKDIM =    234   number of bands    NBANDS=     16
   number of dos      NEDOS =    301   number of ions     NIONS =      4
   non local maximal  LDIM  =      4   non local SUM 2l+1 LMDIM =      8
   total plane-waves  NPLWV =  31360
   max r-space proj   IRMAX =   8048   max aug-charges    IRDMAX=   8695
   dimension x,y,z NGX =    28 NGY =   28 NGZ =   40
   dimension x,y,z NGXF=    56 NGYF=   56 NGZF=   80
   support grid    NGXF=    56 NGYF=   56 NGZF=   80
   ions per type =               1   3
   NGX,Y,Z   is equivalent  to a cutoff of  14.10, 14.10, 13.33 a.u.
   NGXF,Y,Z  is equivalent  to a cutoff of  28.21, 28.21, 26.66 a.u.

 SYSTEM =  unknown system                          
 POSCAR =  Li1 N3                                  

 Startparameter for this run:
   NWRITE =      2    write-flag & timer
   PREC   = accura    normal or accurate (medium, high low for compatibility)
   ISTART =      0    job   : 0-new  1-cont  2-samecut
   ICHARG =      2    charge: 1-file 2-atom 10-const
   ISPIN  =      2    spin polarized calculation?
   LNONCOLLINEAR =      F non collinear calculations
   LSORBIT =      F    spin-orbit coupling
   INIWAV =      1    electr: 0-lowe 1-rand  2-diag
   LASPH  =      T    aspherical Exc in radial PAW
   METAGGA=      F    non-selfconsistent MetaGGA calc.

 Electronic Relaxation 1
   ENCUT  =  520.0 eV  38.22 Ry    6.18 a.u.   6.14  6.14  9.28*2*pi/ulx,y,z
   ENINI  =  520.0     initial cutoff
   ENAUG  =  628.9 eV  augmentation charge cutoff
   NELM   =    100;   NELMIN=  2; NELMDL= -5     # of ELM steps 
   EDIFF  = 0.1E-04   stopping-criterion for ELM
   LREAL  =      T    real-space projection
   NLSPLINE    = F    spline interpolate recip. space projectors
   LCOMPAT=      F    compatible to vasp.4.4
   GGA_COMPAT  = T    GGA compatible to vasp.4.4-vasp.4.6
   LMAXPAW     = -100 max onsite density
   LMAXMIX     =    2 max onsite mixed and CHGCAR
   VOSKOWN=      0    Vosko Wilk Nusair interpolation
   ROPT   =   -0.00025  -0.00025
 Ionic relaxation
   EDIFFG = 0.1E-03   stopping-criterion for IOM
   NSW    =     99    number of steps for IOM
   NBLOCK =      1;   KBLOCK =     99    inner block; outer block 
   IBRION =      2    ionic relax: 0-MD 1-quasi-New 2-CG
   NFREE  =      1    steps in history (QN), initial steepest desc. (CG)
   ISIF   =      3    stress and relaxation
   IWAVPR =     11    prediction:  0-non 1-charg 2-wave 3-comb
   ISYM   =      2    0-nonsym 1-usesym 2-fastsym
   LCORR  =      T    Harris-Foulkes like correction to forces

   POTIM  = 0.5000    time-step for ionic-motion
   TEIN   =    0.0    initial temperature
   TEBEG  =    0.0;   TEEND  =   0.0 temperature during run
   SMASS  =  -3.00    Nose mass-parameter (am)
   estimated Nose-frequenzy (Omega)   =  0.10E-29 period in steps =****** mass=  -0.249E-27a.u.
   SCALEE = 1.0000    scale energy and forces
   NPACO  =    256;   APACO  = 16.0  distance and # of slots for P.C.
   PSTRESS=    0.0 pullay stress

  Mass of Ions in am
   POMASS =   7.01 14.00
  Ionic Valenz
   ZVAL   =   3.00  5.00
  Atomic Wigner-Seitz radii
   RWIGS  =  -1.00 -1.00
  virtual crystal weights 
   VCA    =   1.00  1.00
   NELECT =      18.0000    total number of electrons
   NUPDOWN=      -1.0000    fix difference up-down

 DOS related values:
   EMIN   =  10.00;   EMAX   =-10.00  energy-range for DOS
   EFERMI =   0.00
   ISMEAR =    -5;   SIGMA  =   0.05  broadening in eV -4-tet -1-fermi 0-gaus

 Electronic relaxation 2 (details)
   IALGO  =     68    algorithm
   LDIAG  =      T    sub-space diagonalisation (order eigenvalues)
   LSUBROT=      F    optimize rotation matrix (better conditioning)
   TURBO    =      0    0=normal 1=particle mesh
   IRESTART =      0    0=no restart 2=restart with 2 vectors
   NREBOOT  =      0    no. of reboots
   NMIN     =      0    reboot dimension
   EREF     =   0.00    reference energy to select bands
   IMIX   =      4    mixing-type and parameters
     AMIX     =   0.40;   BMIX     =  1.00
     AMIX_MAG =   1.60;   BMIX_MAG =  1.00
     AMIN     =   0.10
     WC   =   100.;   INIMIX=   1;  MIXPRE=   1;  MAXMIX= -45

 Intra band minimization:
   WEIMIN = 0.0010     energy-eigenvalue tresh-hold
   EBREAK =  0.16E-06  absolut break condition
   DEPER  =   0.30     relativ break condition  

   TIME   =   0.40     timestep for ELM

  volume/ion in A,a.u.               =      11.35        76.62
  Fermi-wavevector in a.u.,A,eV,Ry     =   1.202519  2.272431 19.674720  1.446051
  Thomas-Fermi vector in A             =   2.338298
 
 Write flags
   LWAVE        =      F    write WAVECAR
   LDOWNSAMPLE  =      F    k-point downsampling of WAVECAR
   LCHARG       =      F    write CHGCAR
   LVTOT        =      F    write LOCPOT, total local potential
   LVHAR        =      F    write LOCPOT, Hartree potential only
   LELF         =      F    write electronic localiz. function (ELF)
   LORBIT       =     11    0 simple, 1 ext, 2 COOP (PROOUT), +10 PAW based schemes


 Dipole corrections
   LMONO  =      F    monopole corrections only (constant potential shift)
   LDIPOL =      F    correct potential (dipole corrections)
   IDIPOL =      0    1-x, 2-y, 3-z, 4-all directions 
   EPSILON=  1.0000000 bulk dielectric constant

 Exchange correlation treatment:
   GGA     =    --    GGA type
   LEXCH   =     8    internal setting for exchange type
   VOSKOWN=      0    Vosko Wilk Nusair interpolation
   LHFCALC =     F    Hartree Fock is set to
   LHFONE  =     F    Hartree Fock one center treatment
   AEXX    =    0.0000 exact exchange contribution

 Linear response parameters
   LEPSILON=     F    determine dielectric tensor
   LRPA    =     F    only Hartree local field effects (RPA)
   LNABLA  =     F    use nabla operator in PAW spheres
   LVEL    =     F    velocity operator in full k-point grid
   LINTERFAST=   F  fast interpolation
   KINTER  =     0    interpolate to denser k-point grid
   CSHIFT  =0.1000    complex shift for real part using Kramers Kronig
   OMEGAMAX=  -1.0    maximum frequency
   DEG_THRESHOLD= 0.2000000E-02 threshold for treating states as degnerate
   RTIME   =   -0.100 relaxation time in fs
  (WPLASMAI=    0.000 imaginary part of plasma frequency in eV, 0.658/RTIME)
   DFIELD  = 0.0000000 0.0000000 0.0000000 field for delta impulse in time
 
 Orbital magnetization related:
   ORBITALMAG=     F  switch on orbital magnetization
   LCHIMAG   =     F  perturbation theory with respect to B field
   DQ        =  0.001000  dq finite difference perturbation B field
   LLRAUG    =     F  two centre corrections for induced B field



--------------------------------------------------------------------------------------------------------


 conjugate gradient relaxation of ions
 charge density and potential will be updated during run
 spin polarized calculation
 RMM-DIIS sequential band-by-band and
  variant of blocked Davidson during initial phase
 perform sub-space diagonalisation
    before iterative eigenvector-optimisation
 modified Broyden-mixing scheme, WC =      100.0
 initial mixing is a Kerker type mixing with AMIX =  0.4000 and BMIX =      1.0000
 Hartree-type preconditioning will be used
 using additional bands            7
 real space projection scheme for non local part
 use partial core corrections
 calculate Harris-corrections to forces 
   (improved forces if not selfconsistent)
 use gradient corrections 
 use of overlap-Matrix (Vanderbilt PP)
 Fermi weights with tetrahedron method with Bloechl corrections


--------------------------------------------------------------------------------------------------------


  energy-cutoff  :      520.00
  volume of cell :       45.42
      direct lattice vectors                 reciprocal lattice vectors
     1.677025000  2.842534000  0.000000000     0.298147016  0.175899391 -0.054680110
    -1.677025000  2.842534000  0.000000000    -0.298147016  0.175899391 -0.054680110
     0.000000000  1.480851000  4.763721000     0.000000000  0.000000000  0.209919934

  length of vectors
     3.300365494  3.300365494  4.988582710     0.350459917  0.350459917  0.209919934


 
 k-points in units of 2pi/SCALE and weight: Fully automatic kpoint scheme           
   0.00000000  0.00000000  0.00000000       0.001
   0.02710427  0.01599085 -0.00497092       0.005
   0.05420855  0.03198171 -0.00994184       0.005
   0.08131282  0.04797256 -0.01491276       0.005
   0.10841710  0.06396341 -0.01988368       0.005
   0.13552137  0.07995427 -0.02485460       0.005
   0.00000000  0.03198171 -0.00994184       0.002
   0.02710427  0.04797256 -0.01491276       0.005
   0.05420855  0.06396341 -0.01988368       0.005
   0.08131282  0.07995427 -0.02485460       0.005
   0.10841710  0.09594512 -0.02982551       0.005
  -0.16262565 -0.06396341  0.01988368       0.005
  -0.13552137 -0.04797256  0.01491276       0.005
  -0.10841710 -0.03198171  0.00994184       0.005
  -0.08131282 -0.01599085  0.00497092       0.005
  -0.05420855  0.00000000  0.00000000       0.002
   0.00000000  0.06396341 -0.01988368       0.002
   0.02710427  0.07995427 -0.02485460       0.005
   0.05420855  0.09594512 -0.02982551       0.005
   0.08131282  0.11193598 -0.03479643       0.005
  -0.18972992 -0.04797256  0.01491276       0.005
  -0.16262565 -0.03198171  0.00994184       0.005
  -0.13552137 -0.01599085  0.00497092       0.005
  -0.10841710  0.00000000  0.00000000       0.002
   0.00000000  0.09594512 -0.02982551       0.002
   0.02710427  0.11193598 -0.03479643       0.005
   0.05420855  0.12792683 -0.03976735       0.005
  -0.21683419 -0.03198171  0.00994184       0.005
  -0.18972992 -0.01599085  0.00497092       0.005
  -0.16262565  0.00000000  0.00000000       0.002
   0.00000000  0.12792683 -0.03976735       0.002
   0.02710427  0.14391768 -0.04473827       0.005
  -0.24393847 -0.01599085  0.00497092       0.005
  -0.21683419  0.00000000  0.00000000       0.002
   0.00000000  0.15990854 -0.04970919       0.002
  -0.27104274 -0.00000000  0.00000000       0.002
   0.00000000  0.00000000  0.02998856       0.002
   0.02710427  0.01599085  0.02501764       0.005
   0.05420855  0.03198171  0.02004672       0.005
   0.08131282  0.04797256  0.01507580       0.005
   0.10841710  0.06396341  0.01010489       0.005
   0.13552137  0.07995427  0.00513397       0.005
  -0.13552137 -0.07995427  0.05484316       0.005
  -0.10841710 -0.06396341  0.04987224       0.005
  -0.08131282 -0.04797256  0.04490132       0.005
  -0.05420855 -0.03198171  0.03993040       0.005
  -0.02710427 -0.01599085  0.03495948       0.005
   0.00000000  0.03198171  0.02004672       0.002
   0.02710427  0.04797256  0.01507580       0.005
   0.05420855  0.06396341  0.01010489       0.005
   0.08131282  0.07995427  0.00513397       0.005
   0.10841710  0.09594512  0.00016305       0.005
  -0.16262565 -0.06396341  0.04987224       0.005
  -0.13552137 -0.04797256  0.04490132       0.005
  -0.10841710 -0.03198171  0.03993040       0.005
  -0.08131282 -0.01599085  0.03495948       0.005
  -0.05420855  0.00000000  0.02998856       0.005
   0.00000000  0.06396341  0.01010489       0.002
   0.02710427  0.07995427  0.00513397       0.005
   0.05420855  0.09594512  0.00016305       0.005
   0.08131282  0.11193598 -0.00480787       0.005
  -0.18972992 -0.04797256  0.04490132       0.005
  -0.16262565 -0.03198171  0.03993040       0.005
  -0.13552137 -0.01599085  0.03495948       0.005
  -0.10841710  0.00000000  0.02998856       0.005
  -0.08131282  0.01599085  0.02501764       0.005
   0.00000000  0.09594512  0.00016305       0.002
   0.02710427  0.11193598 -0.00480787       0.005
   0.05420855  0.12792683 -0.00977879       0.005
  -0.21683419 -0.03198171  0.03993040       0.005
  -0.18972992 -0.01599085  0.03495948       0.005
  -0.16262565  0.00000000  0.02998856       0.005
  -0.13552137  0.01599085  0.02501764       0.005
  -0.10841710  0.03198171  0.02004672       0.005
   0.00000000  0.12792683 -0.00977879       0.002
   0.02710427  0.14391768 -0.01474971       0.005
  -0.24393847 -0.01599085  0.03495948       0.005
  -0.21683419  0.00000000  0.02998856       0.005
  -0.18972992  0.01599085  0.02501764       0.005
  -0.16262565  0.03198171  0.02004672       0.005
  -0.13552137  0.04797256  0.01507580       0.005
   0.00000000  0.15990854 -0.01972063       0.002
  -0.27104274 -0.00000000  0.02998856       0.005
  -0.24393847  0.01599085  0.02501764       0.005
  -0.21683419  0.03198171  0.02004672       0.005
  -0.18972992  0.04797256  0.01507580       0.005
  -0.16262565  0.06396341  0.01010489       0.005
   0.00000000 -0.15990854  0.07969775       0.002
   0.02710427 -0.14391768  0.07472683       0.005
   0.05420855 -0.12792683  0.06975591       0.005
   0.08131282 -0.11193598  0.06478500       0.005
   0.10841710 -0.09594512  0.05981408       0.005
   0.00000000 -0.12792683  0.06975591       0.002
   0.02710427 -0.11193598  0.06478500       0.005
   0.05420855 -0.09594512  0.05981408       0.005
   0.08131282 -0.07995427  0.05484316       0.005
   0.00000000 -0.09594512  0.05981408       0.002
   0.02710427 -0.07995427  0.05484316       0.005
   0.05420855 -0.06396341  0.04987224       0.005
   0.00000000 -0.06396341  0.04987224       0.002
   0.02710427 -0.04797256  0.04490132       0.005
   0.00000000 -0.03198171  0.03993040       0.002
   0.00000000  0.00000000  0.05997712       0.002
   0.02710427  0.01599085  0.05500621       0.005
   0.05420855  0.03198171  0.05003529       0.005
   0.08131282  0.04797256  0.04506437       0.005
   0.10841710  0.06396341  0.04009345       0.005
   0.13552137  0.07995427  0.03512253       0.005
  -0.13552137 -0.07995427  0.08483172       0.005
  -0.10841710 -0.06396341  0.07986080       0.005
  -0.08131282 -0.04797256  0.07488988       0.005
  -0.05420855 -0.03198171  0.06991896       0.005
  -0.02710427 -0.01599085  0.06494804       0.005
   0.00000000  0.03198171  0.05003529       0.002
   0.02710427  0.04797256  0.04506437       0.005
   0.05420855  0.06396341  0.04009345       0.005
   0.08131282  0.07995427  0.03512253       0.005
   0.10841710  0.09594512  0.03015161       0.005
  -0.16262565 -0.06396341  0.07986080       0.005
  -0.13552137 -0.04797256  0.07488988       0.005
  -0.10841710 -0.03198171  0.06991896       0.005
  -0.08131282 -0.01599085  0.06494804       0.005
  -0.05420855  0.00000000  0.05997712       0.005
   0.00000000  0.06396341  0.04009345       0.002
   0.02710427  0.07995427  0.03512253       0.005
   0.05420855  0.09594512  0.03015161       0.005
   0.08131282  0.11193598  0.02518069       0.005
  -0.18972992 -0.04797256  0.07488988       0.005
  -0.16262565 -0.03198171  0.06991896       0.005
  -0.13552137 -0.01599085  0.06494804       0.005
  -0.10841710  0.00000000  0.05997712       0.005
  -0.08131282  0.01599085  0.05500621       0.005
   0.00000000  0.09594512  0.03015161       0.002
   0.02710427  0.11193598  0.02518069       0.005
   0.05420855  0.12792683  0.02020977       0.005
  -0.21683419 -0.03198171  0.06991896       0.005
  -0.18972992 -0.01599085  0.06494804       0.005
  -0.16262565  0.00000000  0.05997712       0.005
  -0.13552137  0.01599085  0.05500621       0.005
  -0.10841710  0.03198171  0.05003529       0.005
   0.00000000  0.12792683  0.02020977       0.002
   0.02710427  0.14391768  0.01523885       0.005
  -0.24393847 -0.01599085  0.06494804       0.005
  -0.21683419  0.00000000  0.05997712       0.005
  -0.18972992  0.01599085  0.05500621       0.005
  -0.16262565  0.03198171  0.05003529       0.005
  -0.13552137  0.04797256  0.04506437       0.005
   0.00000000  0.15990854  0.01026793       0.002
  -0.27104274 -0.00000000  0.05997712       0.005
  -0.24393847  0.01599085  0.05500621       0.005
  -0.21683419  0.03198171  0.05003529       0.005
  -0.18972992  0.04797256  0.04506437       0.005
  -0.16262565  0.06396341  0.04009345       0.005
   0.00000000 -0.15990854  0.10968632       0.002
   0.02710427 -0.14391768  0.10471540       0.005
   0.05420855 -0.12792683  0.09974448       0.005
   0.08131282 -0.11193598  0.09477356       0.005
   0.10841710 -0.09594512  0.08980264       0.005
   0.00000000 -0.12792683  0.09974448       0.002
   0.02710427 -0.11193598  0.09477356       0.005
   0.05420855 -0.09594512  0.08980264       0.005
   0.08131282 -0.07995427  0.08483172       0.005
   0.00000000 -0.09594512  0.08980264       0.002
   0.02710427 -0.07995427  0.08483172       0.005
   0.05420855 -0.06396341  0.07986080       0.005
   0.00000000 -0.06396341  0.07986080       0.002
   0.02710427 -0.04797256  0.07488988       0.005
   0.00000000 -0.03198171  0.06991896       0.002
   0.00000000  0.00000000  0.08996569       0.002
   0.02710427  0.01599085  0.08499477       0.005
   0.05420855  0.03198171  0.08002385       0.005
   0.08131282  0.04797256  0.07505293       0.005
   0.10841710  0.06396341  0.07008201       0.005
   0.13552137  0.07995427  0.06511109       0.005
  -0.13552137 -0.07995427  0.11482028       0.005
  -0.10841710 -0.06396341  0.10984936       0.005
  -0.08131282 -0.04797256  0.10487844       0.005
  -0.05420855 -0.03198171  0.09990752       0.005
  -0.02710427 -0.01599085  0.09493661       0.005
   0.00000000  0.03198171  0.08002385       0.002
   0.02710427  0.04797256  0.07505293       0.005
   0.05420855  0.06396341  0.07008201       0.005
   0.08131282  0.07995427  0.06511109       0.005
   0.10841710  0.09594512  0.06014017       0.005
  -0.16262565 -0.06396341  0.10984936       0.005
  -0.13552137 -0.04797256  0.10487844       0.005
  -0.10841710 -0.03198171  0.09990752       0.005
  -0.08131282 -0.01599085  0.09493661       0.005
  -0.05420855  0.00000000  0.08996569       0.005
   0.00000000  0.06396341  0.07008201       0.002
   0.02710427  0.07995427  0.06511109       0.005
   0.05420855  0.09594512  0.06014017       0.005
   0.08131282  0.11193598  0.05516925       0.005
  -0.18972992 -0.04797256  0.10487844       0.005
  -0.16262565 -0.03198171  0.09990752       0.005
  -0.13552137 -0.01599085  0.09493661       0.005
  -0.10841710  0.00000000  0.08996569       0.005
  -0.08131282  0.01599085  0.08499477       0.005
   0.00000000  0.09594512  0.06014017       0.002
   0.02710427  0.11193598  0.05516925       0.005
   0.05420855  0.12792683  0.05019833       0.005
  -0.21683419 -0.03198171  0.09990752       0.005
  -0.18972992 -0.01599085  0.09493661       0.005
  -0.16262565  0.00000000  0.08996569       0.005
  -0.13552137  0.01599085  0.08499477       0.005
  -0.10841710  0.03198171  0.08002385       0.005
   0.00000000  0.12792683  0.05019833       0.002
   0.02710427  0.14391768  0.04522741       0.005
  -0.24393847 -0.01599085  0.09493661       0.005
  -0.21683419  0.00000000  0.08996569       0.005
  -0.18972992  0.01599085  0.08499477       0.005
  -0.16262565  0.03198171  0.08002385       0.005
  -0.13552137  0.04797256  0.07505293       0.005
   0.00000000  0.15990854  0.04025650       0.002
  -0.27104274 -0.00000000  0.08996569       0.005
  -0.24393847  0.01599085  0.08499477       0.005
  -0.21683419  0.03198171  0.08002385       0.005
  -0.18972992  0.04797256  0.07505293       0.005
  -0.16262565  0.06396341  0.07008201       0.005
   0.00000000 -0.15990854  0.13967488       0.002
   0.02710427 -0.14391768  0.13470396       0.005
   0.05420855 -0.12792683  0.12973304       0.005
   0.08131282 -0.11193598  0.12476212       0.005
   0.10841710 -0.09594512  0.11979120       0.005
   0.00000000 -0.12792683  0.12973304       0.002
   0.02710427 -0.11193598  0.12476212       0.005
   0.05420855 -0.09594512  0.11979120       0.005
   0.08131282 -0.07995427  0.11482028       0.005
   0.00000000 -0.09594512  0.11979120       0.002
   0.02710427 -0.07995427  0.11482028       0.005
   0.05420855 -0.06396341  0.10984936       0.005
   0.00000000 -0.06396341  0.10984936       0.002
   0.02710427 -0.04797256  0.10487844       0.005
   0.00000000 -0.03198171  0.09990752       0.002
 
 k-points in reciprocal lattice and weights: Fully automatic kpoint scheme           
   0.00000000  0.00000000  0.00000000       0.001
   0.09090909 -0.00000000 -0.00000000       0.005
   0.18181818 -0.00000000 -0.00000000       0.005
   0.27272727 -0.00000000  0.00000000       0.005
   0.36363636 -0.00000000 -0.00000000       0.005
   0.45454545  0.00000000  0.00000000       0.005
   0.09090909  0.09090909 -0.00000000       0.002
   0.18181818  0.09090909 -0.00000000       0.005
   0.27272727  0.09090909 -0.00000000       0.005
   0.36363636  0.09090909  0.00000000       0.005
   0.45454545  0.09090909  0.00000000       0.005
  -0.45454545  0.09090909 -0.00000000       0.005
  -0.36363636  0.09090909  0.00000000       0.005
  -0.27272727  0.09090909 -0.00000000       0.005
  -0.18181818  0.09090909  0.00000000       0.005
  -0.09090909  0.09090909  0.00000000       0.002
   0.18181818  0.18181818 -0.00000000       0.002
   0.27272727  0.18181818  0.00000000       0.005
   0.36363636  0.18181818 -0.00000000       0.005
   0.45454545  0.18181818  0.00000000       0.005
  -0.45454545  0.18181818 -0.00000000       0.005
  -0.36363636  0.18181818  0.00000000       0.005
  -0.27272727  0.18181818 -0.00000000       0.005
  -0.18181818  0.18181818  0.00000000       0.002
   0.27272727  0.27272727  0.00000000       0.002
   0.36363636  0.27272727  0.00000000       0.005
   0.45454545  0.27272727 -0.00000000       0.005
  -0.45454545  0.27272727  0.00000000       0.005
  -0.36363636  0.27272727  0.00000000       0.005
  -0.27272727  0.27272727  0.00000000       0.002
   0.36363636  0.36363636 -0.00000000       0.002
   0.45454545  0.36363636 -0.00000000       0.005
  -0.45454545  0.36363636 -0.00000000       0.005
  -0.36363636  0.36363636  0.00000000       0.002
   0.45454545  0.45454545  0.00000000       0.002
  -0.45454545  0.45454545  0.00000000       0.002
   0.00000000  0.00000000  0.14285714       0.002
   0.09090909 -0.00000000  0.14285714       0.005
   0.18181818 -0.00000000  0.14285714       0.005
   0.27272727 -0.00000000  0.14285714       0.005
   0.36363636 -0.00000000  0.14285714       0.005
   0.45454545  0.00000000  0.14285714       0.005
  -0.45454545  0.00000000  0.14285714       0.005
  -0.36363636  0.00000000  0.14285714       0.005
  -0.27272727  0.00000000  0.14285714       0.005
  -0.18181818  0.00000000  0.14285714       0.005
  -0.09090909  0.00000000  0.14285714       0.005
   0.09090909  0.09090909  0.14285714       0.002
   0.18181818  0.09090909  0.14285714       0.005
   0.27272727  0.09090909  0.14285714       0.005
   0.36363636  0.09090909  0.14285714       0.005
   0.45454545  0.09090909  0.14285714       0.005
  -0.45454545  0.09090909  0.14285714       0.005
  -0.36363636  0.09090909  0.14285714       0.005
  -0.27272727  0.09090909  0.14285714       0.005
  -0.18181818  0.09090909  0.14285714       0.005
  -0.09090909  0.09090909  0.14285714       0.005
   0.18181818  0.18181818  0.14285714       0.002
   0.27272727  0.18181818  0.14285714       0.005
   0.36363636  0.18181818  0.14285714       0.005
   0.45454545  0.18181818  0.14285714       0.005
  -0.45454545  0.18181818  0.14285714       0.005
  -0.36363636  0.18181818  0.14285714       0.005
  -0.27272727  0.18181818  0.14285714       0.005
  -0.18181818  0.18181818  0.14285714       0.005
  -0.09090909  0.18181818  0.14285714       0.005
   0.27272727  0.27272727  0.14285714       0.002
   0.36363636  0.27272727  0.14285714       0.005
   0.45454545  0.27272727  0.14285714       0.005
  -0.45454545  0.27272727  0.14285714       0.005
  -0.36363636  0.27272727  0.14285714       0.005
  -0.27272727  0.27272727  0.14285714       0.005
  -0.18181818  0.27272727  0.14285714       0.005
  -0.09090909  0.27272727  0.14285714       0.005
   0.36363636  0.36363636  0.14285714       0.002
   0.45454545  0.36363636  0.14285714       0.005
  -0.45454545  0.36363636  0.14285714       0.005
  -0.36363636  0.36363636  0.14285714       0.005
  -0.27272727  0.36363636  0.14285714       0.005
  -0.18181818  0.36363636  0.14285714       0.005
  -0.09090909  0.36363636  0.14285714       0.005
   0.45454545  0.45454545  0.14285714       0.002
  -0.45454545  0.45454545  0.14285714       0.005
  -0.36363636  0.45454545  0.14285714       0.005
  -0.27272727  0.45454545  0.14285714       0.005
  -0.18181818  0.45454545  0.14285714       0.005
  -0.09090909  0.45454545  0.14285714       0.005
  -0.45454545 -0.45454545  0.14285714       0.002
  -0.36363636 -0.45454545  0.14285714       0.005
  -0.27272727 -0.45454545  0.14285714       0.005
  -0.18181818 -0.45454545  0.14285714       0.005
  -0.09090909 -0.45454545  0.14285714       0.005
  -0.36363636 -0.36363636  0.14285714       0.002
  -0.27272727 -0.36363636  0.14285714       0.005
  -0.18181818 -0.36363636  0.14285714       0.005
  -0.09090909 -0.36363636  0.14285714       0.005
  -0.27272727 -0.27272727  0.14285714       0.002
  -0.18181818 -0.27272727  0.14285714       0.005
  -0.09090909 -0.27272727  0.14285714       0.005
  -0.18181818 -0.18181818  0.14285714       0.002
  -0.09090909 -0.18181818  0.14285714       0.005
  -0.09090909 -0.09090909  0.14285714       0.002
   0.00000000  0.00000000  0.28571429       0.002
   0.09090909 -0.00000000  0.28571429       0.005
   0.18181818 -0.00000000  0.28571429       0.005
   0.27272727 -0.00000000  0.28571429       0.005
   0.36363636 -0.00000000  0.28571429       0.005
   0.45454545  0.00000000  0.28571429       0.005
  -0.45454545  0.00000000  0.28571429       0.005
  -0.36363636  0.00000000  0.28571429       0.005
  -0.27272727  0.00000000  0.28571429       0.005
  -0.18181818  0.00000000  0.28571429       0.005
  -0.09090909  0.00000000  0.28571429       0.005
   0.09090909  0.09090909  0.28571429       0.002
   0.18181818  0.09090909  0.28571429       0.005
   0.27272727  0.09090909  0.28571429       0.005
   0.36363636  0.09090909  0.28571429       0.005
   0.45454545  0.09090909  0.28571429       0.005
  -0.45454545  0.09090909  0.28571429       0.005
  -0.36363636  0.09090909  0.28571429       0.005
  -0.27272727  0.09090909  0.28571429       0.005
  -0.18181818  0.09090909  0.28571429       0.005
  -0.09090909  0.09090909  0.28571429       0.005
   0.18181818  0.18181818  0.28571429       0.002
   0.27272727  0.18181818  0.28571429       0.005
   0.36363636  0.18181818  0.28571429       0.005
   0.45454545  0.18181818  0.28571429       0.005
  -0.45454545  0.18181818  0.28571429       0.005
  -0.36363636  0.18181818  0.28571429       0.005
  -0.27272727  0.18181818  0.28571429       0.005
  -0.18181818  0.18181818  0.28571429       0.005
  -0.09090909  0.18181818  0.28571429       0.005
   0.27272727  0.27272727  0.28571429       0.002
   0.36363636  0.27272727  0.28571429       0.005
   0.45454545  0.27272727  0.28571429       0.005
  -0.45454545  0.27272727  0.28571429       0.005
  -0.36363636  0.27272727  0.28571429       0.005
  -0.27272727  0.27272727  0.28571429       0.005
  -0.18181818  0.27272727  0.28571429       0.005
  -0.09090909  0.27272727  0.28571429       0.005
   0.36363636  0.36363636  0.28571429       0.002
   0.45454545  0.36363636  0.28571429       0.005
  -0.45454545  0.36363636  0.28571429       0.005
  -0.36363636  0.36363636  0.28571429       0.005
  -0.27272727  0.36363636  0.28571429       0.005
  -0.18181818  0.36363636  0.28571429       0.005
  -0.09090909  0.36363636  0.28571429       0.005
   0.45454545  0.45454545  0.28571429       0.002
  -0.45454545  0.45454545  0.28571429       0.005
  -0.36363636  0.45454545  0.28571429       0.005
  -0.27272727  0.45454545  0.28571429       0.005
  -0.18181818  0.45454545  0.28571429       0.005
  -0.09090909  0.45454545  0.28571429       0.005
  -0.45454545 -0.45454545  0.28571429       0.002
  -0.36363636 -0.45454545  0.28571429       0.005
  -0.27272727 -0.45454545  0.28571429       0.005
  -0.18181818 -0.45454545  0.28571429       0.005
  -0.09090909 -0.45454545  0.28571429       0.005
  -0.36363636 -0.36363636  0.28571429       0.002
  -0.27272727 -0.36363636  0.28571429       0.005
  -0.18181818 -0.36363636  0.28571429       0.005
  -0.09090909 -0.36363636  0.28571429       0.005
  -0.27272727 -0.27272727  0.28571429       0.002
  -0.18181818 -0.27272727  0.28571429       0.005
  -0.09090909 -0.27272727  0.28571429       0.005
  -0.18181818 -0.18181818  0.28571429       0.002
  -0.09090909 -0.18181818  0.28571429       0.005
  -0.09090909 -0.09090909  0.28571429       0.002
   0.00000000  0.00000000  0.42857143       0.002
   0.09090909 -0.00000000  0.42857143       0.005
   0.18181818 -0.00000000  0.42857143       0.005
   0.27272727 -0.00000000  0.42857143       0.005
   0.36363636 -0.00000000  0.42857143       0.005
   0.45454545  0.00000000  0.42857143       0.005
  -0.45454545  0.00000000  0.42857143       0.005
  -0.36363636  0.00000000  0.42857143       0.005
  -0.27272727  0.00000000  0.42857143       0.005
  -0.18181818  0.00000000  0.42857143       0.005
  -0.09090909  0.00000000  0.42857143       0.005
   0.09090909  0.09090909  0.42857143       0.002
   0.18181818  0.09090909  0.42857143       0.005
   0.27272727  0.09090909  0.42857143       0.005
   0.36363636  0.09090909  0.42857143       0.005
   0.45454545  0.09090909  0.42857143       0.005
  -0.45454545  0.09090909  0.42857143       0.005
  -0.36363636  0.09090909  0.42857143       0.005
  -0.27272727  0.09090909  0.42857143       0.005
  -0.18181818  0.09090909  0.42857143       0.005
  -0.09090909  0.09090909  0.42857143       0.005
   0.18181818  0.18181818  0.42857143       0.002
   0.27272727  0.18181818  0.42857143       0.005
   0.36363636  0.18181818  0.42857143       0.005
   0.45454545  0.18181818  0.42857143       0.005
  -0.45454545  0.18181818  0.42857143       0.005
  -0.36363636  0.18181818  0.42857143       0.005
  -0.27272727  0.18181818  0.42857143       0.005
  -0.18181818  0.18181818  0.42857143       0.005
  -0.09090909  0.18181818  0.42857143       0.005
   0.27272727  0.27272727  0.42857143       0.002
   0.36363636  0.27272727  0.42857143       0.005
   0.45454545  0.27272727  0.42857143       0.005
  -0.45454545  0.27272727  0.42857143       0.005
  -0.36363636  0.27272727  0.42857143       0.005
  -0.27272727  0.27272727  0.42857143       0.005
  -0.18181818  0.27272727  0.42857143       0.005
  -0.09090909  0.27272727  0.42857143       0.005
   0.36363636  0.36363636  0.42857143       0.002
   0.45454545  0.36363636  0.42857143       0.005
  -0.45454545  0.36363636  0.42857143       0.005
  -0.36363636  0.36363636  0.42857143       0.005
  -0.27272727  0.36363636  0.42857143       0.005
  -0.18181818  0.36363636  0.42857143       0.005
  -0.09090909  0.36363636  0.42857143       0.005
   0.45454545  0.45454545  0.42857143       0.002
  -0.45454545  0.45454545  0.42857143       0.005
  -0.36363636  0.45454545  0.42857143       0.005
  -0.27272727  0.45454545  0.42857143       0.005
  -0.18181818  0.45454545  0.42857143       0.005
  -0.09090909  0.45454545  0.42857143       0.005
  -0.45454545 -0.45454545  0.42857143       0.002
  -0.36363636 -0.45454545  0.42857143       0.005
  -0.27272727 -0.45454545  0.42857143       0.005
  -0.18181818 -0.45454545  0.42857143       0.005
  -0.09090909 -0.45454545  0.42857143       0.005
  -0.36363636 -0.36363636  0.42857143       0.002
  -0.27272727 -0.36363636  0.42857143       0.005
  -0.18181818 -0.36363636  0.42857143       0.005
  -0.09090909 -0.36363636  0.42857143       0.005
  -0.27272727 -0.27272727  0.42857143       0.002
  -0.18181818 -0.27272727  0.42857143       0.005
  -0.09090909 -0.27272727  0.42857143       0.005
  -0.18181818 -0.18181818  0.42857143       0.002
  -0.09090909 -0.18181818  0.42857143       0.005
  -0.09090909 -0.09090909  0.42857143       0.002
 
 position of ions in fractional coordinates (direct lattice) 
   0.00000000  0.00000000  0.00000000
   0.60581100  0.60581100  0.25670700
   0.39418900  0.39418900  0.74329300
   0.50000000  0.50000000  0.50000000
 
 position of ions in cartesian coordinates  (Angst):
   0.00000000  0.00000000  0.00000000
   0.00000000  3.82422155  1.22288053
   0.00000000  3.34169745  3.54084047
   0.00000000  3.58295950  2.38186050
 


--------------------------------------------------------------------------------------------------------


 k-point  1 :   0.0000 0.0000 0.0000  plane waves:    1223
 k-point  2 :   0.0909-0.0000-0.0000  plane waves:    1217
 k-point  3 :   0.1818-0.0000-0.0000  plane waves:    1216
 k-point  4 :   0.2727-0.0000 0.0000  plane waves:    1221
 k-point  5 :   0.3636-0.0000-0.0000  plane waves:    1234
 k-point  6 :   0.4545 0.0000 0.0000  plane waves:    1228
 k-point  7 :   0.0909 0.0909-0.0000  plane waves:    1224
 k-point  8 :   0.1818 0.0909-0.0000  plane waves:    1215
 k-point  9 :   0.2727 0.0909-0.0000  plane waves:    1222
 k-point 10 :   0.3636 0.0909 0.0000  plane waves:    1222
 k-point 11 :   0.4545 0.0909 0.0000  plane waves:    1217
 k-point 12 :  -0.4545 0.0909-0.0000  plane waves:    1224
 k-point 13 :  -0.3636 0.0909 0.0000  plane waves:    1224
 k-point 14 :  -0.2727 0.0909-0.0000  plane waves:    1222
 k-point 15 :  -0.1818 0.0909 0.0000  plane waves:    1218
 k-point 16 :  -0.0909 0.0909 0.0000  plane waves:    1223
 k-point 17 :   0.1818 0.1818-0.0000  plane waves:    1227
 k-point 18 :   0.2727 0.1818 0.0000  plane waves:    1220
 k-point 19 :   0.3636 0.1818-0.0000  plane waves:    1226
 k-point 20 :   0.4545 0.1818 0.0000  plane waves:    1210
 k-point 21 :  -0.4545 0.1818-0.0000  plane waves:    1219
 k-point 22 :  -0.3636 0.1818 0.0000  plane waves:    1226
 k-point 23 :  -0.2727 0.1818-0.0000  plane waves:    1229
 k-point 24 :  -0.1818 0.1818 0.0000  plane waves:    1222
 k-point 25 :   0.2727 0.2727 0.0000  plane waves:    1223
 k-point 26 :   0.3636 0.2727 0.0000  plane waves:    1223
 k-point 27 :   0.4545 0.2727-0.0000  plane waves:    1224
 k-point 28 :  -0.4545 0.2727 0.0000  plane waves:    1225
 k-point 29 :  -0.3636 0.2727 0.0000  plane waves:    1226
 k-point 30 :  -0.2727 0.2727 0.0000  plane waves:    1220
 k-point 31 :   0.3636 0.3636-0.0000  plane waves:    1231
 k-point 32 :   0.4545 0.3636-0.0000  plane waves:    1232
 k-point 33 :  -0.4545 0.3636-0.0000  plane waves:    1226
 k-point 34 :  -0.3636 0.3636 0.0000  plane waves:    1226
 k-point 35 :   0.4545 0.4545 0.0000  plane waves:    1239
 k-point 36 :  -0.4545 0.4545 0.0000  plane waves:    1236
 k-point 37 :   0.0000 0.0000 0.1429  plane waves:    1227
 k-point 38 :   0.0909-0.0000 0.1429  plane waves:    1228
 k-point 39 :   0.1818-0.0000 0.1429  plane waves:    1222
 k-point 40 :   0.2727-0.0000 0.1429  plane waves:    1221
 k-point 41 :   0.3636-0.0000 0.1429  plane waves:    1225
 k-point 42 :   0.4545 0.0000 0.1429  plane waves:    1227
 k-point 43 :  -0.4545 0.0000 0.1429  plane waves:    1230
 k-point 44 :  -0.3636 0.0000 0.1429  plane waves:    1227
 k-point 45 :  -0.2727 0.0000 0.1429  plane waves:    1221
 k-point 46 :  -0.1818 0.0000 0.1429  plane waves:    1215
 k-point 47 :  -0.0909 0.0000 0.1429  plane waves:    1213
 k-point 48 :   0.0909 0.0909 0.1429  plane waves:    1223
 k-point 49 :   0.1818 0.0909 0.1429  plane waves:    1217
 k-point 50 :   0.2727 0.0909 0.1429  plane waves:    1221
 k-point 51 :   0.3636 0.0909 0.1429  plane waves:    1226
 k-point 52 :   0.4545 0.0909 0.1429  plane waves:    1222
 k-point 53 :  -0.4545 0.0909 0.1429  plane waves:    1223
 k-point 54 :  -0.3636 0.0909 0.1429  plane waves:    1229
 k-point 55 :  -0.2727 0.0909 0.1429  plane waves:    1224
 k-point 56 :  -0.1818 0.0909 0.1429  plane waves:    1215
 k-point 57 :  -0.0909 0.0909 0.1429  plane waves:    1216
 k-point 58 :   0.1818 0.1818 0.1429  plane waves:    1216
 k-point 59 :   0.2727 0.1818 0.1429  plane waves:    1216
 k-point 60 :   0.3636 0.1818 0.1429  plane waves:    1221
 k-point 61 :   0.4545 0.1818 0.1429  plane waves:    1224
 k-point 62 :  -0.4545 0.1818 0.1429  plane waves:    1226
 k-point 63 :  -0.3636 0.1818 0.1429  plane waves:    1229
 k-point 64 :  -0.2727 0.1818 0.1429  plane waves:    1226
 k-point 65 :  -0.1818 0.1818 0.1429  plane waves:    1227
 k-point 66 :  -0.0909 0.1818 0.1429  plane waves:    1222
 k-point 67 :   0.2727 0.2727 0.1429  plane waves:    1220
 k-point 68 :   0.3636 0.2727 0.1429  plane waves:    1223
 k-point 69 :   0.4545 0.2727 0.1429  plane waves:    1222
 k-point 70 :  -0.4545 0.2727 0.1429  plane waves:    1220
 k-point 71 :  -0.3636 0.2727 0.1429  plane waves:    1225
 k-point 72 :  -0.2727 0.2727 0.1429  plane waves:    1226
 k-point 73 :  -0.1818 0.2727 0.1429  plane waves:    1226
 k-point 74 :  -0.0909 0.2727 0.1429  plane waves:    1224
 k-point 75 :   0.3636 0.3636 0.1429  plane waves:    1218
 k-point 76 :   0.4545 0.3636 0.1429  plane waves:    1221
 k-point 77 :  -0.4545 0.3636 0.1429  plane waves:    1228
 k-point 78 :  -0.3636 0.3636 0.1429  plane waves:    1225
 k-point 79 :  -0.2727 0.3636 0.1429  plane waves:    1225
 k-point 80 :  -0.1818 0.3636 0.1429  plane waves:    1223
 k-point 81 :  -0.0909 0.3636 0.1429  plane waves:    1226
 k-point 82 :   0.4545 0.4545 0.1429  plane waves:    1226
 k-point 83 :  -0.4545 0.4545 0.1429  plane waves:    1227
 k-point 84 :  -0.3636 0.4545 0.1429  plane waves:    1232
 k-point 85 :  -0.2727 0.4545 0.1429  plane waves:    1229
 k-point 86 :  -0.1818 0.4545 0.1429  plane waves:    1222
 k-point 87 :  -0.0909 0.4545 0.1429  plane waves:    1228
 k-point 88 :  -0.4545-0.4545 0.1429  plane waves:    1221
 k-point 89 :  -0.3636-0.4545 0.1429  plane waves:    1232
 k-point 90 :  -0.2727-0.4545 0.1429  plane waves:    1228
 k-point 91 :  -0.1818-0.4545 0.1429  plane waves:    1214
 k-point 92 :  -0.0909-0.4545 0.1429  plane waves:    1224
 k-point 93 :  -0.3636-0.3636 0.1429  plane waves:    1226
 k-point 94 :  -0.2727-0.3636 0.1429  plane waves:    1230
 k-point 95 :  -0.1818-0.3636 0.1429  plane waves:    1222
 k-point 96 :  -0.0909-0.3636 0.1429  plane waves:    1224
 k-point 97 :  -0.2727-0.2727 0.1429  plane waves:    1223
 k-point 98 :  -0.1818-0.2727 0.1429  plane waves:    1225
 k-point 99 :  -0.0909-0.2727 0.1429  plane waves:    1223
 k-point ** :  -0.1818-0.1818 0.1429  plane waves:    1225
 k-point ** :  -0.0909-0.1818 0.1429  plane waves:    1219
 k-point ** :  -0.0909-0.0909 0.1429  plane waves:    1219
 k-point ** :   0.0000 0.0000 0.2857  plane waves:    1218
 k-point ** :   0.0909-0.0000 0.2857  plane waves:    1214
 k-point ** :   0.1818-0.0000 0.2857  plane waves:    1218
 k-point ** :   0.2727-0.0000 0.2857  plane waves:    1221
 k-point ** :   0.3636-0.0000 0.2857  plane waves:    1216
 k-point ** :   0.4545 0.0000 0.2857  plane waves:    1217
 k-point ** :  -0.4545 0.0000 0.2857  plane waves:    1223
 k-point ** :  -0.3636 0.0000 0.2857  plane waves:    1220
 k-point ** :  -0.2727 0.0000 0.2857  plane waves:    1219
 k-point ** :  -0.1818 0.0000 0.2857  plane waves:    1208
 k-point ** :  -0.0909 0.0000 0.2857  plane waves:    1221
 k-point ** :   0.0909 0.0909 0.2857  plane waves:    1222
 k-point ** :   0.1818 0.0909 0.2857  plane waves:    1216
 k-point ** :   0.2727 0.0909 0.2857  plane waves:    1221
 k-point ** :   0.3636 0.0909 0.2857  plane waves:    1222
 k-point ** :   0.4545 0.0909 0.2857  plane waves:    1219
 k-point ** :  -0.4545 0.0909 0.2857  plane waves:    1220
 k-point ** :  -0.3636 0.0909 0.2857  plane waves:    1217
 k-point ** :  -0.2727 0.0909 0.2857  plane waves:    1223
 k-point ** :  -0.1818 0.0909 0.2857  plane waves:    1219
 k-point ** :  -0.0909 0.0909 0.2857  plane waves:    1212
 k-point ** :   0.1818 0.1818 0.2857  plane waves:    1223
 k-point ** :   0.2727 0.1818 0.2857  plane waves:    1219
 k-point ** :   0.3636 0.1818 0.2857  plane waves:    1224
 k-point ** :   0.4545 0.1818 0.2857  plane waves:    1223
 k-point ** :  -0.4545 0.1818 0.2857  plane waves:    1218
 k-point ** :  -0.3636 0.1818 0.2857  plane waves:    1228
 k-point ** :  -0.2727 0.1818 0.2857  plane waves:    1231
 k-point ** :  -0.1818 0.1818 0.2857  plane waves:    1222
 k-point ** :  -0.0909 0.1818 0.2857  plane waves:    1216
 k-point ** :   0.2727 0.2727 0.2857  plane waves:    1218
 k-point ** :   0.3636 0.2727 0.2857  plane waves:    1222
 k-point ** :   0.4545 0.2727 0.2857  plane waves:    1224
 k-point ** :  -0.4545 0.2727 0.2857  plane waves:    1226
 k-point ** :  -0.3636 0.2727 0.2857  plane waves:    1231
 k-point ** :  -0.2727 0.2727 0.2857  plane waves:    1227
 k-point ** :  -0.1818 0.2727 0.2857  plane waves:    1220
 k-point ** :  -0.0909 0.2727 0.2857  plane waves:    1220
 k-point ** :   0.3636 0.3636 0.2857  plane waves:    1223
 k-point ** :   0.4545 0.3636 0.2857  plane waves:    1229
 k-point ** :  -0.4545 0.3636 0.2857  plane waves:    1222
 k-point ** :  -0.3636 0.3636 0.2857  plane waves:    1225
 k-point ** :  -0.2727 0.3636 0.2857  plane waves:    1227
 k-point ** :  -0.1818 0.3636 0.2857  plane waves:    1223
 k-point ** :  -0.0909 0.3636 0.2857  plane waves:    1220
 k-point ** :   0.4545 0.4545 0.2857  plane waves:    1225
 k-point ** :  -0.4545 0.4545 0.2857  plane waves:    1230
 k-point ** :  -0.3636 0.4545 0.2857  plane waves:    1229
 k-point ** :  -0.2727 0.4545 0.2857  plane waves:    1225
 k-point ** :  -0.1818 0.4545 0.2857  plane waves:    1229
 k-point ** :  -0.0909 0.4545 0.2857  plane waves:    1223
 k-point ** :  -0.4545-0.4545 0.2857  plane waves:    1225
 k-point ** :  -0.3636-0.4545 0.2857  plane waves:    1231
 k-point ** :  -0.2727-0.4545 0.2857  plane waves:    1231
 k-point ** :  -0.1818-0.4545 0.2857  plane waves:    1219
 k-point ** :  -0.0909-0.4545 0.2857  plane waves:    1224
 k-point ** :  -0.3636-0.3636 0.2857  plane waves:    1230
 k-point ** :  -0.2727-0.3636 0.2857  plane waves:    1220
 k-point ** :  -0.1818-0.3636 0.2857  plane waves:    1217
 k-point ** :  -0.0909-0.3636 0.2857  plane waves:    1218
 k-point ** :  -0.2727-0.2727 0.2857  plane waves:    1219
 k-point ** :  -0.1818-0.2727 0.2857  plane waves:    1219
 k-point ** :  -0.0909-0.2727 0.2857  plane waves:    1220
 k-point ** :  -0.1818-0.1818 0.2857  plane waves:    1226
 k-point ** :  -0.0909-0.1818 0.2857  plane waves:    1223
 k-point ** :  -0.0909-0.0909 0.2857  plane waves:    1226
 k-point ** :   0.0000 0.0000 0.4286  plane waves:    1219
 k-point ** :   0.0909-0.0000 0.4286  plane waves:    1222
 k-point ** :   0.1818-0.0000 0.4286  plane waves:    1215
 k-point ** :   0.2727-0.0000 0.4286  plane waves:    1220
 k-point ** :   0.3636-0.0000 0.4286  plane waves:    1218
 k-point ** :   0.4545 0.0000 0.4286  plane waves:    1219
 k-point ** :  -0.4545 0.0000 0.4286  plane waves:    1219
 k-point ** :  -0.3636 0.0000 0.4286  plane waves:    1222
 k-point ** :  -0.2727 0.0000 0.4286  plane waves:    1216
 k-point ** :  -0.1818 0.0000 0.4286  plane waves:    1214
 k-point ** :  -0.0909 0.0000 0.4286  plane waves:    1221
 k-point ** :   0.0909 0.0909 0.4286  plane waves:    1223
 k-point ** :   0.1818 0.0909 0.4286  plane waves:    1219
 k-point ** :   0.2727 0.0909 0.4286  plane waves:    1216
 k-point ** :   0.3636 0.0909 0.4286  plane waves:    1217
 k-point ** :   0.4545 0.0909 0.4286  plane waves:    1216
 k-point ** :  -0.4545 0.0909 0.4286  plane waves:    1218
 k-point ** :  -0.3636 0.0909 0.4286  plane waves:    1222
 k-point ** :  -0.2727 0.0909 0.4286  plane waves:    1226
 k-point ** :  -0.1818 0.0909 0.4286  plane waves:    1211
 k-point ** :  -0.0909 0.0909 0.4286  plane waves:    1216
 k-point ** :   0.1818 0.1818 0.4286  plane waves:    1219
 k-point ** :   0.2727 0.1818 0.4286  plane waves:    1219
 k-point ** :   0.3636 0.1818 0.4286  plane waves:    1224
 k-point ** :   0.4545 0.1818 0.4286  plane waves:    1227
 k-point ** :  -0.4545 0.1818 0.4286  plane waves:    1227
 k-point ** :  -0.3636 0.1818 0.4286  plane waves:    1223
 k-point ** :  -0.2727 0.1818 0.4286  plane waves:    1224
 k-point ** :  -0.1818 0.1818 0.4286  plane waves:    1221
 k-point ** :  -0.0909 0.1818 0.4286  plane waves:    1222
 k-point ** :   0.2727 0.2727 0.4286  plane waves:    1218
 k-point ** :   0.3636 0.2727 0.4286  plane waves:    1226
 k-point ** :   0.4545 0.2727 0.4286  plane waves:    1230
 k-point ** :  -0.4545 0.2727 0.4286  plane waves:    1235
 k-point ** :  -0.3636 0.2727 0.4286  plane waves:    1227
 k-point ** :  -0.2727 0.2727 0.4286  plane waves:    1226
 k-point ** :  -0.1818 0.2727 0.4286  plane waves:    1222
 k-point ** :  -0.0909 0.2727 0.4286  plane waves:    1216
 k-point ** :   0.3636 0.3636 0.4286  plane waves:    1231
 k-point ** :   0.4545 0.3636 0.4286  plane waves:    1232
 k-point ** :  -0.4545 0.3636 0.4286  plane waves:    1235
 k-point ** :  -0.3636 0.3636 0.4286  plane waves:    1231
 k-point ** :  -0.2727 0.3636 0.4286  plane waves:    1231
 k-point ** :  -0.1818 0.3636 0.4286  plane waves:    1225
 k-point ** :  -0.0909 0.3636 0.4286  plane waves:    1212
 k-point ** :   0.4545 0.4545 0.4286  plane waves:    1232
 k-point ** :  -0.4545 0.4545 0.4286  plane waves:    1234
 k-point ** :  -0.3636 0.4545 0.4286  plane waves:    1232
 k-point ** :  -0.2727 0.4545 0.4286  plane waves:    1230
 k-point ** :  -0.1818 0.4545 0.4286  plane waves:    1228
 k-point ** :  -0.0909 0.4545 0.4286  plane waves:    1222
 k-point ** :  -0.4545-0.4545 0.4286  plane waves:    1231
 k-point ** :  -0.3636-0.4545 0.4286  plane waves:    1235
[...]
      4      -6.4774      1.00000
      5      -5.7368      1.00000
      6      -5.4142      1.00000
      7      -4.3317      1.00000
      8      -0.6777      1.00000
      9       0.3093      1.00000
     10       4.8690      0.00000
     11       5.4370      0.00000
     12      10.5617      0.00000
     13      11.0597      0.00000
     14      11.6886      0.00000
     15      12.3591      0.00000
     16      14.0305      0.00000

 k-point   219 :      -0.0909    0.4545    0.4286
  band No.  band energies     occupation 
      1     -43.2959      1.00000
      2     -21.5298      1.00000
      3     -17.3015      1.00000
      4      -6.5894      1.00000
      5      -5.5378      1.00000
      6      -5.3074      1.00000
      7      -4.4698      1.00000
      8      -0.8016      1.00000
      9       0.5493      1.00000
     10       4.8260      0.00000
     11       5.4895      0.00000
     12      10.0451      0.00000
     13      11.3242      0.00000
     14      11.7931      0.00000
     15      12.0642      0.00000
     16      14.1425      0.00000

 k-point   220 :      -0.4545   -0.4545    0.4286
  band No.  band energies     occupation 
      1     -43.2956      1.00000
      2     -21.5245      1.00000
      3     -17.2856      1.00000
      4      -6.5877      1.00000
      5      -5.9736      1.00000
      6      -5.4806      1.00000
      7      -3.7384      1.00000
      8      -0.5513      1.00000
      9       0.1417      1.00000
     10       4.5849      0.00000
     11       6.5596      0.00000
     12       8.5641      0.00000
     13      10.9413      0.00000
     14      12.6087      0.00000
     15      13.1837      0.00000
     16      13.9272      0.00000

 k-point   221 :      -0.3636   -0.4545    0.4286
  band No.  band energies     occupation 
      1     -43.2959      1.00000
      2     -21.5330      1.00000
      3     -17.2967      1.00000
      4      -6.4937      1.00000
      5      -5.8836      1.00000
      6      -5.5251      1.00000
      7      -3.9065      1.00000
      8      -0.4179      1.00000
      9       0.1357      1.00000
     10       4.6570      0.00000
     11       6.3433      0.00000
     12       8.8456      0.00000
     13      10.9354      0.00000
     14      12.4542      0.00000
     15      13.3411      0.00000
     16      13.6276      0.00000

 k-point   222 :      -0.2727   -0.4545    0.4286
  band No.  band energies     occupation 
      1     -43.2961      1.00000
      2     -21.5405      1.00000
      3     -17.3070      1.00000
      4      -6.3801      1.00000
      5      -5.7459      1.00000
      6      -5.5909      1.00000
      7      -4.1329      1.00000
      8      -0.3330      1.00000
      9       0.1531      1.00000
     10       4.7848      0.00000
     11       5.9800      0.00000
     12       9.4020      0.00000
     13      10.9946      0.00000
     14      12.0107      0.00000
     15      13.0380      0.00000
     16      13.8259      0.00000

 k-point   223 :      -0.1818   -0.4545    0.4286
  band No.  band energies     occupation 
      1     -43.2963      1.00000
      2     -21.5445      1.00000
      3     -17.3135      1.00000
      4      -6.3914      1.00000
      5      -5.6325      1.00000
      6      -5.4736      1.00000
      7      -4.3735      1.00000
      8      -0.4622      1.00000
      9       0.3541      1.00000
     10       4.8863      0.00000
     11       5.6842      0.00000
     12       9.8393      0.00000
     13      11.0142      0.00000
     14      11.7229      0.00000
     15      12.6158      0.00000
     16      14.0917      0.00000

 k-point   224 :      -0.0909   -0.4545    0.4286
  band No.  band energies     occupation 
      1     -43.2963      1.00000
      2     -21.5437      1.00000
      3     -17.3139      1.00000
      4      -6.5103      1.00000
      5      -5.5035      1.00000
      6      -5.2976      1.00000
      7      -4.5601      1.00000
      8      -0.6385      1.00000
      9       0.5530      1.00000
     10       4.8507      0.00000
     11       5.6007      0.00000
     12       9.7590      0.00000
     13      11.2958      0.00000
     14      11.7487      0.00000
     15      12.2153      0.00000
     16      14.1799      0.00000

 k-point   225 :      -0.3636   -0.3636    0.4286
  band No.  band energies     occupation 
      1     -43.2965      1.00000
      2     -21.5565      1.00000
      3     -17.3176      1.00000
      4      -6.4136      1.00000
      5      -5.8228      1.00000
      6      -5.4439      1.00000
      7      -4.0644      1.00000
      8      -0.2836      1.00000
      9       0.2920      1.00000
     10       4.7378      0.00000
     11       6.4255      0.00000
     12       8.5673      0.00000
     13      10.7914      0.00000
     14      12.4790      0.00000
     15      13.3727      0.00000
     16      13.7305      0.00000

 k-point   226 :      -0.2727   -0.3636    0.4286
  band No.  band energies     occupation 
      1     -43.2971      1.00000
      2     -21.5766      1.00000
      3     -17.3361      1.00000
      4      -6.2831      1.00000
      5      -5.6918      1.00000
      6      -5.4593      1.00000
      7      -4.2766      1.00000
      8      -0.1245      1.00000
      9       0.3540      1.00000
     10       4.8863      0.00000
     11       6.2363      0.00000
     12       8.6397      0.00000
     13      10.8243      0.00000
     14      12.3101      0.00000
     15      13.0797      0.00000
     16      13.9883      0.00000

 k-point   227 :      -0.1818   -0.3636    0.4286
  band No.  band energies     occupation 
      1     -43.2974      1.00000
      2     -21.5869      1.00000
      3     -17.3463      1.00000
      4      -6.2139      1.00000
      5      -5.4996      1.00000
      6      -5.4872      1.00000
      7      -4.5049      1.00000
      8      -0.1227      1.00000
      9       0.4600      1.00000
     10       5.0298      0.00000
     11       5.9505      0.00000
     12       8.8410      0.00000
     13      11.0057      0.00000
     14      12.0375      0.00000
     15      12.7500      0.00000
     16      14.1739      0.00000

 k-point   228 :      -0.0909   -0.3636    0.4286
  band No.  band energies     occupation 
      1     -43.2973      1.00000
      2     -21.5842      1.00000
      3     -17.3453      1.00000
      4      -6.2839      1.00000
      5      -5.4466      1.00000
      6      -5.2907      1.00000
      7      -4.7091      1.00000
      8      -0.2761      1.00000
      9       0.5975      1.00000
     10       5.0312      0.00000
     11       5.7804      0.00000
     12       8.9872      0.00000
     13      11.2941      0.00000
     14      11.8814      0.00000
     15      12.4347      0.00000
     16      14.2361      0.00000

 k-point   229 :      -0.2727   -0.2727    0.4286
  band No.  band energies     occupation 
      1     -43.2980      1.00000
      2     -21.6116      1.00000
      3     -17.3642      1.00000
      4      -6.1309      1.00000
      5      -5.6002      1.00000
      6      -5.3732      1.00000
      7      -4.4755      1.00000
      8       0.0886      1.00000
      9       0.5087      1.00000
     10       5.0671      0.00000
     11       6.3030      0.00000
     12       8.1295      0.00000
     13      10.8587      0.00000
     14      12.4900      0.00000
     15      12.8243      0.00000
     16      14.5028      0.00000

 k-point   230 :      -0.1818   -0.2727    0.4286
  band No.  band energies     occupation 
      1     -43.2986      1.00000
      2     -21.6342      1.00000
      3     -17.3824      1.00000
      4      -5.9984      1.00000
      5      -5.4541      1.00000
      6      -5.3565      1.00000
      7      -4.6895      1.00000
      8       0.2131      1.00000
      9       0.6004      1.00000
     10       5.2605      0.00000
     11       6.1620      0.00000
     12       7.9496      0.00000
     13      11.0401      0.00000
     14      12.4019      0.00000
     15      12.6340      0.00000
     16      14.3275      0.00000

 k-point   231 :      -0.0909   -0.2727    0.4286
  band No.  band energies     occupation 
      1     -43.2987      1.00000
      2     -21.6378      1.00000
      3     -17.3852      1.00000
      4      -5.9742      1.00000
      5      -5.4022      1.00000
      6      -5.2362      1.00000
      7      -4.8851      1.00000
      8       0.1600      1.00000
      9       0.6738      1.00000
     10       5.3301      0.00000
     11       5.9882      0.00000
     12       8.0200      0.00000
     13      11.2808      0.00000
     14      12.2199      0.00000
     15      12.4871      0.00000
     16      14.3272      0.00000

 k-point   232 :      -0.1818   -0.1818    0.4286
  band No.  band energies     occupation 
      1     -43.2996      1.00000
      2     -21.6714      1.00000
      3     -17.4102      1.00000
      4      -5.8151      1.00000
      5      -5.3269      1.00000
      6      -5.2894      1.00000
      7      -4.8872      1.00000
      8       0.4403      1.00000
      9       0.7262      1.00000
     10       5.5087      0.00000
     11       6.2343      0.00000
     12       7.3761      0.00000
     13      11.0810      0.00000
     14      12.2884      0.00000
     15      12.9043      0.00000
     16      14.1120      0.00000

 k-point   233 :      -0.0909   -0.1818    0.4286
  band No.  band energies     occupation 
      1     -43.3001      1.00000
      2     -21.6872      1.00000
      3     -17.4212      1.00000
      4      -5.6988      1.00000
      5      -5.3354      1.00000
      6      -5.1641      1.00000
      7      -5.0429      1.00000
      8       0.5182      1.00000
      9       0.7744      1.00000
     10       5.6654      0.00000
     11       6.1630      0.00000
     12       7.1959      0.00000
     13      11.1338      0.00000
     14      12.2169      0.00000
     15      12.9755      0.00000
     16      14.0718      0.00000

 k-point   234 :      -0.0909   -0.0909    0.4286
  band No.  band energies     occupation 
      1     -43.3009      1.00000
      2     -21.7174      1.00000
      3     -17.4420      1.00000
      4      -5.5801      1.00000
      5      -5.2429      1.00000
      6      -5.2197      1.00000
      7      -5.0213      1.00000
      8       0.6852      1.00000
      9       0.8702      1.00000
     10       5.9379      0.00000
     11       6.2403      0.00000
     12       6.7002      0.00000
     13      10.9547      0.00000
     14      12.1885      0.00000
     15      13.6230      0.00000
     16      13.7111      0.00000


--------------------------------------------------------------------------------------------------------


 soft charge-density along one line, spin component           1
         0         1         2         3         4         5         6         7         8         9
 total charge-density along one line
 
 soft charge-density along one line, spin component           2
         0         1         2         3         4         5         6         7         8         9
 total charge-density along one line
 
 pseudopotential strength for first ion, spin component:           1
-39.353   3.228  -0.000  -0.000  -0.000
  3.228  -9.608  -0.000  -0.000  -0.000
 -0.000  -0.000   0.189   0.000   0.000
 -0.000  -0.000   0.000   0.189   0.000
 -0.000  -0.000   0.000   0.000   0.189
 pseudopotential strength for first ion, spin component:           2
-39.353   3.228  -0.000  -0.000  -0.000
  3.228  -9.608  -0.000  -0.000  -0.000
 -0.000  -0.000   0.188   0.000   0.000
 -0.000  -0.000   0.000   0.188  -0.000
 -0.000  -0.000   0.000  -0.000   0.188
 total augmentation occupancy for first ion, spin component:           1
  2.000  -0.010   0.000   0.000   0.000
 -0.010   0.467   0.000   0.000   0.000
  0.000   0.000   0.017  -0.001   0.000
  0.000   0.000  -0.001   0.017   0.000
  0.000   0.000   0.000   0.000   0.017
 total augmentation occupancy for first ion, spin component:           2
 -0.000  -0.000   0.000   0.000   0.000
 -0.000  -0.000   0.000   0.000   0.000
  0.000   0.000   0.000  -0.000   0.000
  0.000   0.000  -0.000   0.000   0.000
  0.000   0.000   0.000   0.000   0.000


------------------------ aborting loop because EDIFF is reached ----------------------------------------


 


 total charge     
 
# of ion       s       p       d       tot
------------------------------------------
    1        2.007   0.035   0.000   2.042
    2        1.286   2.567   0.000   3.853
    3        1.286   2.567   0.000   3.853
    4        1.283   2.734   0.000   4.018
--------------------------------------------------
tot          5.862   7.903   0.000  13.765
 


 magnetization (x)
 
# of ion       s       p       d       tot
------------------------------------------
    1        0.000  -0.000   0.000  -0.000
    2       -0.000  -0.000   0.000  -0.000
    3       -0.000  -0.000   0.000  -0.000
    4        0.000  -0.000   0.000  -0.000
--------------------------------------------------
tot          0.000  -0.000   0.000  -0.000
 
    CHARGE:  cpu time    0.1027: real time    0.1028
    FORLOC:  cpu time    0.0006: real time    0.0006
    FORNL :  cpu time    0.6825: real time    0.6829
    STRESS:  cpu time    2.0532: real time    2.0549
    FORCOR:  cpu time    0.0146: real time    0.0146
    FORHAR:  cpu time    0.0017: real time    0.0017
    MIXING:  cpu time    0.0004: real time    0.0004
    OFIELD:  cpu time    0.0000: real time    0.0000

  FORCE on cell =-STRESS in cart. coord.  units (eV):
  Direction    XX          YY          ZZ          XY          YZ          ZX
  --------------------------------------------------------------------------------------
  Alpha Z    28.67889    28.67889    28.67889
  Ewald    -381.65461  -349.78726   139.88583     0.00000  -110.50134     0.00000
  Hartree    44.50998    58.03358   203.89693     0.00000   -34.28004     0.00000
  E(xc)     -78.67649   -78.55872   -76.61073     0.00000    -0.43664     0.00000
  Local      61.66532    19.18549  -548.69794     0.00000   130.21997    -0.00000
  n-local   -48.95953   -49.19630   -52.47787     0.30405     0.84499     0.29179
  augment    21.84651    21.79993    20.56117     0.00000     0.24842    -0.00000
  Kinetic   352.57525   349.79302   284.60912    -1.48544    13.95681    -0.43776
  Fock        0.00000     0.00000     0.00000     0.00000     0.00000     0.00000
  -------------------------------------------------------------------------------------
  Total      -0.01467    -0.05136    -0.15459     0.00000     0.05217     0.00000
  in kB      -0.51772    -1.81271    -5.45648     0.00000     1.84148     0.00000
  external pressure =       -2.60 kB  Pullay stress =        0.00 kB


 VOLUME and BASIS-vectors are now :
 -----------------------------------------------------------------------------
  energy-cutoff  :      520.00
  volume of cell :       45.39
      direct lattice vectors                 reciprocal lattice vectors
     1.676792009  2.841551931  0.000374732     0.298188444  0.175967398 -0.054708005
    -1.676792009  2.841551931  0.000374732    -0.298188444  0.175967398 -0.054708005
     0.000000000  1.480967380  4.763507194     0.000000000 -0.000027686  0.209937964

  length of vectors
     3.299401303  3.299401303  4.988413092     0.350533649  0.350533649  0.209937966


 FORCES acting on ions
    electron-ion (+dipol)            ewald-force                    non-local-force                 convergence-correction
 -----------------------------------------------------------------------------------------------
   -.233E-14 0.251E-14 -.849E-14   0.547E-15 -.176E-15 -.920E-14   0.000E+00 0.124E-23 0.000E+00   0.396E-14 -.189E-13 0.361E-14
   0.793E-12 -.364E+02 0.180E+03   0.596E-15 0.450E+02 -.221E+03   0.000E+00 -.867E+01 0.408E+02   -.103E-12 0.853E-03 -.110E-02
   -.101E-11 0.364E+02 -.180E+03   -.478E-14 -.450E+02 0.221E+03   0.000E+00 0.867E+01 -.408E+02   0.644E-13 -.853E-03 0.110E-02
   -.838E-13 0.154E-11 0.849E-12   -.163E-15 0.812E-14 0.568E-13   0.000E+00 0.000E+00 0.000E+00   -.108E-13 0.100E-12 -.324E-14
 -----------------------------------------------------------------------------------------------
   -.303E-12 -.787E-12 -.124E-11   -.380E-14 0.101E-14 0.178E-17   0.000E+00 -.178E-14 0.000E+00   -.457E-13 0.232E-12 0.838E-13
 
 
 POSITION                                       TOTAL-FORCE (eV/Angst)
 -----------------------------------------------------------------------------------
      0.00000     -0.00000     -0.00000         0.000000     -0.000000      0.000000
      0.00000      3.82318      1.22245         0.000000     -0.009003      0.029038
      0.00000      3.34089      3.54180         0.000000      0.009003     -0.029038
      0.00000      3.58204      2.38213         0.000000     -0.000000      0.000000
 -----------------------------------------------------------------------------------
    total drift:                               -0.000000     -0.000000     -0.000000


--------------------------------------------------------------------------------------------------------



  FREE ENERGIE OF THE ION-ELECTRON SYSTEM (eV)
  ---------------------------------------------------
  free  energy   TOTEN  =       -27.45936105 eV

  energy  without entropy=      -27.45936105  energy(sigma->0) =      -27.45936105
 
 d Force = 0.1247252E-03[ 0.560E-04, 0.193E-03]  d Energy = 0.6197574E-04 0.627E-04
 d Force =-0.4183727E+00[-0.419E+00,-0.418E+00]  d Ewald  =-0.5666942E+00 0.148E+00


--------------------------------------------------------------------------------------------------------


    POTLOK:  cpu time    0.2677: real time    0.2679


--------------------------------------------------------------------------------------------------------




--------------------------------------------------------------------------------------------------------


  
 reached required accuracy - stopping structural energy minimisation
     LOOP+:  cpu time   12.8419: real time   12.8534
    4ORBIT:  cpu time    0.0000: real time    0.0000
 


 total charge     
 
# of ion       s       p       d       tot
------------------------------------------
    1        2.007   0.035   0.000   2.042
    2        1.286   2.567   0.000   3.853
    3        1.286   2.567   0.000   3.853
    4        1.283   2.734   0.000   4.018
--------------------------------------------------
tot          5.862   7.903   0.000  13.765
 


 magnetization (x)
 
# of ion       s       p       d       tot
------------------------------------------
    1        0.000  -0.000   0.000  -0.000
    2       -0.000  -0.000   0.000  -0.000
    3       -0.000  -0.000   0.000  -0.000
    4        0.000  -0.000   0.000  -0.000
--------------------------------------------------
tot          0.000  -0.000   0.000  -0.000
 
 BZINTS: Fermi energy:  0.904140; 18.000000 electrons
         Band energy:-207.648772;  BLOECHL correction:  0.000000

 total amount of memory used by VASP MPI-rank0    39634. kBytes
=======================================================================

   base      :      30000. kBytes
   nonlr-proj:        886. kBytes
   fftplans  :        604. kBytes
   grid      :       1549. kBytes
   one-center:          6. kBytes
   wavefun   :       6589. kBytes
 
  
  
 General timing and accounting informations for this job:
 ========================================================
  
                  Total CPU time used (sec):       69.461
                            User time (sec):       67.440
                          System time (sec):        2.021
                         Elapsed time (sec):       70.433
  
                   Maximum memory used (kb):       76168.
                   Average memory used (kb):           0.
  
                          Minor page faults:        25120
                          Major page faults:            0
                 Voluntary context switches:        56322
