PROCAR lm decomposed
# of k-points:  234         # of bands:   16         # of ions:    4

 k-point     1 :    0.00000000 0.00000000 0.00000000     weight = 0.00118064

band     1 # energy  -43.30139770 # occ.  1.00000000
 
ion      s     py     pz     px    dxy    dyz    dz2    dxz  x2-y2    tot
    1  0.989  0.000  0.000  0.000  0.000  0.000  0.000  0.000  0.000  0.989
    2  0.000  0.000  0.000  0.000  0.000  0.000  0.000  0.000  0.000  0.000
    3  0.000  0.000  0.000  0.000  0.000  0.000  0.000  0.000  0.000  0.000
    4  0.000  0.000  0.000  0.000  0.000  0.000  0.000  0.000  0.000  0.000
tot    0.989  0.000  0.000  0.000  0.000  0.000  0.000  0.000  0.000  0.989
 
band     2 # energy  -21.75181838 # occ.  1.00000000
 
ion      s     py     pz     px    dxy    dyz    dz2    dxz  x2-y2    tot
    1  0.000  0.000  0.000  0.000  0.000  0.000  0.000  0.000  0.000  0.000
    2  0.147  0.003  0.059  0.000  0.000  0.000  0.000  0.000  0.000  0.209
    3  0.147  0.003  0.059  0.000  0.000  0.000  0.000  0.000  0.000  0.209
    4  0.527  0.000  0.000  0.000  0.000  0.000  0.000  0.000  0.000  0.527
tot    0.821  0.005  0.118  0.000  0.000  0.000  0.000  0.000  0.000  0.945
 
band     3 # energy  -17.38730226 # occ.  1.00000000
 
ion      s     py     pz     px    dxy    dyz    dz2    dxz  x2-y2    tot
    1  0.000  0.000  0.000  0.000  0.000  0.000  0.000  0.000  0.000  0.000
    2  0.243  0.003  0.066  0.000  0.000  0.000  0.000  0.000  0.000  0.311
    3  0.243  0.003  0.066  0.000  0.000  0.000  0.000  0.000  0.000  0.311
    4  0.000  0.016  0.394  0.000  0.000  0.000  0.000  0.000  0.000  0.410
tot    0.486  0.022  0.526  0.000  0.000  0.000  0.000  0.000  0.000  1.033
 
band     4 # energy   -6.75139137 # occ.  1.00000000
 
ion      s     py     pz     px    dxy    dyz    dz2    dxz  x2-y2    tot
    1  0.017  0.000  0.000  0.000  0.000  0.000  0.000  0.000  0.000  0.017
    2  0.132  0.003  0.105  0.000  0.000  0.000  0.000  0.000  0.000  0.240
    3  0.132  0.003  0.105  0.000  0.000  0.000  0.000  0.000  0.000  0.240
    4  0.102  0.000  0.000  0.000  0.000  0.000  0.000  0.000  0.000  0.102
tot    0.384  0.005  0.209  0.000  0.000  0.000  0.000  0.000  0.000  0.598
 
band     5 # energy   -5.16225713 # occ.  1.00000000
 
ion      s     py     pz     px    dxy    dyz    dz2    dxz  x2-y2    tot
    1  0.000  0.000  0.000  0.000  0.000  0.000  0.000  0.000  0.000  0.000
    2  0.000  0.000  0.000  0.133  0.000  0.000  0.000  0.000  0.000  0.133
    3  0.000  0.000  0.000  0.133  0.000  0.000  0.000  0.000  0.000  0.133
    4  0.000  0.000  0.000  0.452  0.000  0.000  0.000  0.000  0.000  0.452
tot    0.000  0.000  0.000  0.718  0.000  0.000  0.000  0.000  0.000  0.718
 
band     6 # energy   -5.09873374 # occ.  1.00000000
 
ion      s     py     pz     px    dxy    dyz    dz2    dxz  x2-y2    tot
    1  0.000  0.000  0.000  0.000  0.000  0.000  0.000  0.000  0.000  0.000
    2  0.000  0.122  0.011  0.000  0.000  0.000  0.000  0.000  0.000  0.133
    3  0.000  0.122  0.011  0.000  0.000  0.000  0.000  0.000  0.000  0.133
    4  0.000  0.443  0.011  0.000  0.000  0.000  0.000  0.000  0.000  0.454
tot    0.000  0.687  0.033  0.000  0.000  0.000  0.000  0.000  0.000  0.720
 
band     7 # energy   -3.66319828 # occ.  1.00000000
 
ion      s     py     pz     px    dxy    dyz    dz2    dxz  x2-y2    tot
    1  0.000  0.000  0.005  0.000  0.000  0.000  0.000  0.000  0.000  0.005
    2  0.086  0.016  0.194  0.000  0.000  0.000  0.000  0.000  0.000  0.296
    3  0.086  0.016  0.194  0.000  0.000  0.000  0.000  0.000  0.000  0.296
    4  0.000  0.001  0.146  0.000  0.000  0.000  0.000  0.000  0.000  0.147
tot    0.173  0.033  0.540  0.000  0.000  0.000  0.000  0.000  0.000  0.745
 
band     8 # energy    0.62985613 # occ.  1.00000000
 
ion      s     py     pz     px    dxy    dyz    dz2    dxz  x2-y2    tot
    1  0.000  0.000  0.000  0.000  0.000  0.000  0.000  0.000  0.000  0.000
    2  0.000  0.316  0.007  0.000  0.000  0.000  0.000  0.000  0.000  0.323
    3  0.000  0.316  0.007  0.000  0.000  0.000  0.000  0.000  0.000  0.323
    4  0.001  0.000  0.000  0.000  0.000  0.000  0.000  0.000  0.000  0.001
tot    0.001  0.632  0.015  0.000  0.000  0.000  0.000  0.000  0.000  0.648
 
band     9 # energy    0.70007301 # occ.  1.00000000
 
ion      s     py     pz     px    dxy    dyz    dz2    dxz  x2-y2    tot
    1  0.000  0.000  0.000  0.000  0.000  0.000  0.000  0.000  0.000  0.000
    2  0.000  0.000  0.000  0.328  0.000  0.000  0.000  0.000  0.000  0.328
    3  0.000  0.000  0.000  0.328  0.000  0.000  0.000  0.000  0.000  0.328
    4  0.000  0.000  0.000  0.000  0.000  0.000  0.000  0.000  0.000  0.000
tot    0.000  0.000  0.000  0.657  0.000  0.000  0.000  0.000  0.000  0.657
 
band    10 # energy    6.30357788 # occ.  0.00000000
 
ion      s     py     pz     px    dxy    dyz    dz2    dxz  x2-y2    tot
    1  0.000  0.016  0.002  0.000  0.000  0.000  0.000  0.000  0.000  0.018
    2  0.002  0.186  0.014  0.000  0.000  0.000  0.000  0.000  0.000  0.202
    3  0.002  0.186  0.014  0.000  0.000  0.000  0.000  0.000  0.000  0.202
    4  0.000  0.236  0.009  0.000  0.000  0.000  0.000  0.000  0.000  0.245
tot    0.004  0.624  0.039  0.000  0.000  0.000  0.000  0.000  0.000  0.667
 
band    11 # energy    6.34455190 # occ.  0.00000000
 
ion      s     py     pz     px    dxy    dyz    dz2    dxz  x2-y2    tot
    1  0.021  0.000  0.000  0.000  0.000  0.000  0.000  0.000  0.000  0.021
    2  0.098  0.001  0.010  0.000  0.000  0.000  0.000  0.000  0.000  0.109
    3  0.098  0.001  0.010  0.000  0.000  0.000  0.000  0.000  0.000  0.109
    4  0.000  0.000  0.000  0.000  0.000  0.000  0.000  0.000  0.000  0.000
tot    0.217  0.002  0.020  0.000  0.000  0.000  0.000  0.000  0.000  0.239
 
band    12 # energy    6.66859173 # occ.  0.00000000
 
ion      s     py     pz     px    dxy    dyz    dz2    dxz  x2-y2    tot
    1  0.000  0.000  0.000  0.012  0.000  0.000  0.000  0.000  0.000  0.012
    2  0.000  0.000  0.000  0.211  0.000  0.000  0.000  0.000  0.000  0.211
    3  0.000  0.000  0.000  0.211  0.000  0.000  0.000  0.000  0.000  0.211
    4  0.000  0.000  0.000  0.281  0.000  0.000  0.000  0.000  0.000  0.281
tot    0.000  0.000  0.000  0.714  0.000  0.000  0.000  0.000  0.000  0.714
 
band    13 # energy   10.11973090 # occ.  0.00000000
 
ion      s     py     pz     px    dxy    dyz    dz2    dxz  x2-y2    tot
    1  0.000  0.011  0.111  0.000  0.000  0.000  0.000  0.000  0.000  0.122
    2  0.034  0.007  0.012  0.000  0.000  0.000  0.000  0.000  0.000  0.053
    3  0.034  0.007  0.012  0.000  0.000  0.000  0.000  0.000  0.000  0.053
    4  0.000  0.017  0.018  0.000  0.000  0.000  0.000  0.000  0.000  0.034
tot    0.068  0.042  0.153  0.000  0.000  0.000  0.000  0.000  0.000  0.263
 
band    14 # energy   11.53156484 # occ.  0.00000000
 
ion      s     py     pz     px    dxy    dyz    dz2    dxz  x2-y2    tot
    1  0.033  0.000  0.000  0.000  0.000  0.000  0.000  0.000  0.000  0.033
    2  0.044  0.008  0.008  0.000  0.000  0.000  0.000  0.000  0.000  0.061
    3  0.044  0.008  0.008  0.000  0.000  0.000  0.000  0.000  0.000  0.061
    4  0.168  0.000  0.000  0.000  0.000  0.000  0.000  0.000  0.000  0.168
tot    0.291  0.016  0.016  0.000  0.000  0.000  0.000  0.000  0.000  0.323
 
band    15 # energy   14.25208142 # occ.  0.00000000
 
ion      s     py     pz     px    dxy    dyz    dz2    dxz  x2-y2    tot
    1  0.075  0.000  0.000  0.000  0.000  0.000  0.000  0.000  0.000  0.075
    2  0.002  0.001  0.220  0.000  0.000  0.000  0.000  0.000  0.000  0.223
    3  0.002  0.001  0.220  0.000  0.000  0.000  0.000  0.000  0.000  0.223
    4  0.035  0.000  0.000  0.000  0.000  0.000  0.000  0.000  0.000  0.035
tot    0.114  0.001  0.439  0.000  0.000  0.000  0.000  0.000  0.000  0.555
 
band    16 # energy   14.54605764 # occ.  0.00000000
 
ion      s     py     pz     px    dxy    dyz    dz2    dxz  x2-y2    tot
    1  0.000  0.000  0.000  0.405  0.000  0.000  0.000  0.000  0.000  0.405
    2  0.000  0.000  0.000  0.015  0.000  0.000  0.000  0.000  0.000  0.015
    3  0.000  0.000  0.000  0.015  0.000  0.000  0.000  0.000  0.000  0.015
    4  0.000  0.000  0.000  0.002  0.000  0.000  0.000  0.000  0.000  0.002
tot    0.000  0.000  0.000  0.437  0.000  0.000  0.000  0.000  0.000  0.437
 

 k-point     2 :    0.09090909-0.00000000-0.00000000     weight = 0.00472255

band     1 # energy  -43.30095212 # occ.  1.00000000
 
ion      s     py     pz     px    dxy    dyz    dz2    dxz  x2-y2    tot
    1  0.989  0.000  0.000  0.000  0.000  0.000  0.000  0.000  0.000  0.989
    2  0.000  0.000  0.000  0.000  0.000  0.000  0.000  0.000  0.000  0.000
    3  0.000  0.000  0.000  0.000  0.000  0.000  0.000  0.000  0.000  0.000
    4  0.000  0.000  0.000  0.000  0.000  0.000  0.000  0.000  0.000  0.000
tot    0.989  0.000  0.000  0.000  0.000  0.000  0.000  0.000  0.000  0.989
 
band     2 # energy  -21.73587435 # occ.  1.00000000
 
ion      s     py     pz     px    dxy    dyz    dz2    dxz  x2-y2    tot
    1  0.000  0.000  0.000  0.000  0.000  0.000  0.000  0.000  0.000  0.000
    2  0.147  0.003  0.059  0.000  0.000  0.000  0.000  0.000  0.000  0.209
    3  0.147  0.003  0.059  0.000  0.000  0.000  0.000  0.000  0.000  0.209
    4  0.527  0.000  0.000  0.000  0.000  0.000  0.000  0.000  0.000  0.527
tot    0.822  0.005  0.119  0.000  0.000  0.000  0.000  0.000  0.000  0.946
 
band     3 # energy  -17.37832485 # occ.  1.00000000
 
ion      s     py     pz     px    dxy    dyz    dz2    dxz  x2-y2    tot
    1  0.000  0.000  0.000  0.000  0.000  0.000  0.000  0.000  0.000  0.000
    2  0.243  0.003  0.066  0.000  0.000  0.000  0.000  0.000  0.000  0.312
    3  0.243  0.003  0.066  0.000  0.000  0.000  0.000  0.000  0.000  0.312
    4  0.000  0.016  0.395  0.000  0.000  0.000  0.000  0.000  0.000  0.411
tot    0.486  0.022  0.526  0.000  0.000  0.000  0.000  0.000  0.000  1.034
 
band     4 # energy   -6.71321411 # occ.  1.00000000
 
ion      s     py     pz     px    dxy    dyz    dz2    dxz  x2-y2    tot
    1  0.016  0.000  0.000  0.000  0.000  0.000  0.000  0.000  0.000  0.016
    2  0.131  0.003  0.104  0.002  0.000  0.000  0.000  0.000  0.000  0.239
    3  0.131  0.003  0.104  0.002  0.000  0.000  0.000  0.000  0.000  0.239
    4  0.101  0.001  0.001  0.003  0.000  0.000  0.000  0.000  0.000  0.106
tot    0.378  0.007  0.208  0.007  0.000  0.000  0.000  0.000  0.000  0.600
 
band     5 # energy   -5.25786114 # occ.  1.00000000
 
ion      s     py     pz     px    dxy    dyz    dz2    dxz  x2-y2    tot
    1  0.000  0.000  0.000  0.000  0.000  0.000  0.000  0.000  0.000  0.000
    2  0.003  0.013  0.002  0.115  0.000  0.000  0.000  0.000  0.000  0.134
    3  0.003  0.013  0.002  0.115  0.000  0.000  0.000  0.000  0.000  0.134
    4  0.001  0.047  0.001  0.391  0.000  0.000  0.000  0.000  0.000  0.440
tot    0.008  0.073  0.006  0.621  0.000  0.000  0.000  0.000  0.000  0.708
 
band     6 # energy   -5.13091402 # occ.  1.00000000
 
ion      s     py     pz     px    dxy    dyz    dz2    dxz  x2-y2    tot
    1  0.000  0.000  0.000  0.000  0.000  0.000  0.000  0.000  0.000  0.000
    2  0.000  0.108  0.009  0.015  0.000  0.000  0.000  0.000  0.000  0.132
    3  0.000  0.108  0.009  0.015  0.000  0.000  0.000  0.000  0.000  0.132
    4  0.000  0.392  0.010  0.051  0.000  0.000  0.000  0.000  0.000  0.452
tot    0.000  0.608  0.029  0.080  0.000  0.000  0.000  0.000  0.000  0.718
 
band     7 # energy   -3.66779391 # occ.  1.00000000
 
ion      s     py     pz     px    dxy    dyz    dz2    dxz  x2-y2    tot
    1  0.000  0.000  0.005  0.000  0.000  0.000  0.000  0.000  0.000  0.005
    2  0.087  0.015  0.194  0.000  0.000  0.000  0.000  0.000  0.000  0.297
    3  0.087  0.015  0.194  0.000  0.000  0.000  0.000  0.000  0.000  0.297
    4  0.000  0.002  0.144  0.000  0.000  0.000  0.000  0.000  0.000  0.146
tot    0.175  0.032  0.537  0.000  0.000  0.000  0.000  0.000  0.000  0.745
 
band     8 # energy    0.51817412 # occ.  1.00000000
 
ion      s     py     pz     px    dxy    dyz    dz2    dxz  x2-y2    tot
    1  0.000  0.000  0.001  0.000  0.000  0.000  0.000  0.000  0.000  0.001
    2  0.001  0.184  0.005  0.129  0.000  0.000  0.000  0.000  0.000  0.318
    3  0.001  0.184  0.005  0.129  0.000  0.000  0.000  0.000  0.000  0.318
    4  0.001  0.000  0.000  0.000  0.000  0.000  0.000  0.000  0.000  0.001
tot    0.002  0.367  0.011  0.259  0.000  0.000  0.000  0.000  0.000  0.639
 
band     9 # energy    0.61513173 # occ.  1.00000000
 
ion      s     py     pz     px    dxy    dyz    dz2    dxz  x2-y2    tot
    1  0.000  0.001  0.000  0.000  0.000  0.000  0.000  0.000  0.000  0.001
    2  0.000  0.128  0.003  0.192  0.000  0.000  0.000  0.000  0.000  0.323
    3  0.000  0.128  0.003  0.192  0.000  0.000  0.000  0.000  0.000  0.323
    4  0.000  0.000  0.000  0.000  0.000  0.000  0.000  0.000  0.000  0.000
tot    0.001  0.257  0.006  0.384  0.000  0.000  0.000  0.000  0.000  0.648
 
band    10 # energy    6.19149733 # occ.  0.00000000
 
ion      s     py     pz     px    dxy    dyz    dz2    dxz  x2-y2    tot
    1  0.013  0.007  0.000  0.001  0.000  0.000  0.000  0.000  0.000  0.021
    2  0.033  0.091  0.010  0.025  0.000  0.000  0.000  0.000  0.000  0.158
    3  0.033  0.091  0.010  0.025  0.000  0.000  0.000  0.000  0.000  0.158
    4  0.000  0.143  0.007  0.063  0.000  0.000  0.000  0.000  0.000  0.213
tot    0.080  0.331  0.026  0.114  0.000  0.000  0.000  0.000  0.000  0.551
 
band    11 # energy    6.44019207 # occ.  0.00000000
 
ion      s     py     pz     px    dxy    dyz    dz2    dxz  x2-y2    tot
    1  0.005  0.007  0.001  0.003  0.000  0.000  0.000  0.000  0.000  0.016
    2  0.020  0.088  0.007  0.072  0.000  0.000  0.000  0.000  0.000  0.187
    3  0.020  0.088  0.007  0.072  0.000  0.000  0.000  0.000  0.000  0.187
    4  0.000  0.094  0.003  0.129  0.000  0.000  0.000  0.000  0.000  0.227
tot    0.046  0.278  0.017  0.276  0.000  0.000  0.000  0.000  0.000  0.617
 
band    12 # energy    6.80585746 # occ.  0.00000000
 
ion      s     py     pz     px    dxy    dyz    dz2    dxz  x2-y2    tot
    1  0.006  0.001  0.000  0.008  0.000  0.000  0.000  0.000  0.000  0.015
    2  0.045  0.009  0.009  0.110  0.000  0.000  0.000  0.000  0.000  0.173
    3  0.045  0.009  0.009  0.110  0.000  0.000  0.000  0.000  0.000  0.173
    4  0.000  0.003  0.000  0.089  0.000  0.000  0.000  0.000  0.000  0.092
tot    0.096  0.023  0.018  0.318  0.000  0.000  0.000  0.000  0.000  0.454
 
band    13 # energy   10.32499846 # occ.  0.00000000
 
ion      s     py     pz     px    dxy    dyz    dz2    dxz  x2-y2    tot
    1  0.000  0.010  0.113  0.000  0.000  0.000  0.000  0.000  0.000  0.123
    2  0.031  0.008  0.012  0.009  0.000  0.000  0.000  0.000  0.000  0.059
    3  0.031  0.008  0.012  0.009  0.000  0.000  0.000  0.000  0.000  0.059
    4  0.000  0.014  0.017  0.000  0.000  0.000  0.000  0.000  0.000  0.031
tot    0.062  0.040  0.154  0.017  0.000  0.000  0.000  0.000  0.000  0.274
 
band    14 # energy   11.57187961 # occ.  0.00000000
 
ion      s     py     pz     px    dxy    dyz    dz2    dxz  x2-y2    tot
    1  0.026  0.005  0.001  0.007  0.000  0.000  0.000  0.000  0.000  0.039
    2  0.042  0.008  0.008  0.000  0.000  0.000  0.000  0.000  0.000  0.058
    3  0.042  0.008  0.008  0.000  0.000  0.000  0.000  0.000  0.000  0.058
    4  0.162  0.000  0.001  0.005  0.000  0.000  0.000  0.000  0.000  0.167
tot    0.271  0.021  0.018  0.012  0.000  0.000  0.000  0.000  0.000  0.323
 
band    15 # energy   14.22178469 # occ.  0.00000000
 
ion      s     py     pz     px    dxy    dyz    dz2    dxz  x2-y2    tot
    1  0.018  0.001  0.000  0.150  0.000  0.000  0.000  0.000  0.000  0.170
    2  0.001  0.000  0.149  0.003  0.000  0.000  0.000  0.000  0.000  0.152
    3  0.001  0.000  0.149  0.003  0.000  0.000  0.000  0.000  0.000  0.152
    4  0.033  0.000  0.000  0.000  0.000  0.000  0.000  0.000  0.000  0.033
tot    0.052  0.001  0.297  0.155  0.000  0.000  0.000  0.000  0.000  0.506
 
band    16 # energy   14.40570254 # occ.  0.00000000
 
ion      s     py     pz     px    dxy    dyz    dz2    dxz  x2-y2    tot
    1  0.072  0.002  0.003  0.149  0.000  0.000  0.000  0.000  0.000  0.226
    2  0.003  0.004  0.068  0.019  0.000  0.000  0.000  0.000  0.000  0.094
    3  0.003  0.004  0.068  0.019  0.000  0.000  0.000  0.000  0.000  0.094
    4  0.005  0.001  0.000  0.003  0.000  0.000  0.000  0.000  0.000  0.009
tot    0.082  0.011  0.141  0.189  0.000  0.000  0.000  0.000  0.000  0.423
 

 k-point     3 :    0.18181818-0.00000000-0.00000000     weight = 0.00472255

band     1 # energy  -43.29980185 # occ.  1.00000000
 
ion      s     py     pz     px    dxy    dyz    dz2    dxz  x2-y2    tot
    1  0.989  0.000  0.000  0.000  0.000  0.000  0.000  0.000  0.000  0.989
    2  0.000  0.000  0.000  0.000  0.000  0.000  0.000  0.000  0.000  0.000
    3  0.000  0.000  0.000  0.000  0.000  0.000  0.000  0.000  0.000  0.000
    4  0.000  0.000  0.000  0.000  0.000  0.000  0.000  0.000  0.000  0.000
tot    0.989  0.000  0.000  0.000  0.000  0.000  0.000  0.000  0.000  0.989
 
band     2 # energy  -21.69259049 # occ.  1.00000000
 
ion      s     py     pz     px    dxy    dyz    dz2    dxz  x2-y2    tot
    1  0.000  0.000  0.000  0.000  0.000  0.000  0.000  0.000  0.000  0.000
    2  0.148  0.003  0.060  0.000  0.000  0.000  0.000  0.000  0.000  0.210
    3  0.148  0.003  0.060  0.000  0.000  0.000  0.000  0.000  0.000  0.210
    4  0.530  0.000  0.000  0.000  0.000  0.000  0.000  0.000  0.000  0.530
tot    0.826  0.005  0.119  0.000  0.000  0.000  0.000  0.000  0.000  0.950
 
band     3 # energy  -17.35429133 # occ.  1.00000000
 
ion      s     py     pz     px    dxy    dyz    dz2    dxz  x2-y2    tot
    1  0.000  0.000  0.000  0.000  0.000  0.000  0.000  0.000  0.000  0.000
    2  0.243  0.003  0.066  0.000  0.000  0.000  0.000  0.000  0.000  0.312
    3  0.243  0.003  0.066  0.000  0.000  0.000  0.000  0.000  0.000  0.312
    4  0.000  0.016  0.396  0.000  0.000  0.000  0.000  0.000  0.000  0.412
tot    0.487  0.022  0.528  0.000  0.000  0.000  0.000  0.000  0.000  1.037
 
band     4 # energy   -6.61255843 # occ.  1.00000000
 
ion      s     py     pz     px    dxy    dyz    dz2    dxz  x2-y2    tot
    1  0.014  0.000  0.000  0.001  0.000  0.000  0.000  0.000  0.000  0.015
    2  0.122  0.005  0.098  0.008  0.000  0.000  0.000  0.000  0.000  0.234
    3  0.122  0.005  0.098  0.008  0.000  0.000  0.000  0.000  0.000  0.234
    4  0.096  0.004  0.002  0.020  0.000  0.000  0.000  0.000  0.000  0.122
tot    0.355  0.015  0.199  0.036  0.000  0.000  0.000  0.000  0.000  0.604
 
band     5 # energy   -5.52080264 # occ.  1.00000000
 
ion      s     py     pz     px    dxy    dyz    dz2    dxz  x2-y2    tot
    1  0.000  0.000  0.000  0.001  0.000  0.000  0.000  0.000  0.000  0.001
    2  0.017  0.024  0.009  0.090  0.000  0.000  0.000  0.000  0.000  0.140
    3  0.017  0.024  0.009  0.090  0.000  0.000  0.000  0.000  0.000  0.140
    4  0.004  0.086  0.003  0.309  0.000  0.000  0.000  0.000  0.000  0.402
tot    0.037  0.135  0.020  0.490  0.000  0.000  0.000  0.000  0.000  0.683
 
band     6 # energy   -5.18935504 # occ.  1.00000000
 
ion      s     py     pz     px    dxy    dyz    dz2    dxz  x2-y2    tot
    1  0.000  0.000  0.000  0.000  0.000  0.000  0.000  0.000  0.000  0.000
    2  0.000  0.095  0.007  0.029  0.000  0.000  0.000  0.000  0.000  0.132
    3  0.000  0.095  0.007  0.029  0.000  0.000  0.000  0.000  0.000  0.132
    4  0.000  0.341  0.009  0.099  0.000  0.000  0.000  0.000  0.000  0.450
tot    0.000  0.531  0.024  0.158  0.000  0.000  0.000  0.000  0.000  0.713
 
band     7 # energy   -3.68253537 # occ.  1.00000000
 
ion      s     py     pz     px    dxy    dyz    dz2    dxz  x2-y2    tot
    1  0.000  0.000  0.004  0.000  0.000  0.000  0.000  0.000  0.000  0.005
    2  0.090  0.013  0.195  0.000  0.000  0.000  0.000  0.000  0.000  0.298
    3  0.090  0.013  0.195  0.000  0.000  0.000  0.000  0.000  0.000  0.298
    4  0.001  0.003  0.137  0.001  0.000  0.000  0.000  0.000  0.000  0.142
tot    0.181  0.030  0.531  0.002  0.000  0.000  0.000  0.000  0.000  0.744
 
band     8 # energy    0.13770965 # occ.  1.00000000
 
ion      s     py     pz     px    dxy    dyz    dz2    dxz  x2-y2    tot
    1  0.000  0.000  0.003  0.001  0.000  0.000  0.000  0.000  0.000  0.004
    2  0.003  0.103  0.004  0.191  0.000  0.000  0.000  0.000  0.000  0.301
    3  0.003  0.103  0.004  0.191  0.000  0.000  0.000  0.000  0.000  0.301
    4  0.000  0.000  0.000  0.001  0.000  0.000  0.000  0.000  0.000  0.002
tot    0.006  0.207  0.011  0.385  0.000  0.000  0.000  0.000  0.000  0.608
 
band     9 # energy    0.49071532 # occ.  1.00000000
 
ion      s     py     pz     px    dxy    dyz    dz2    dxz  x2-y2    tot
    1  0.000  0.002  0.000  0.001  0.000  0.000  0.000  0.000  0.000  0.003
    2  0.000  0.199  0.005  0.113  0.000  0.000  0.000  0.000  0.000  0.317
    3  0.000  0.199  0.005  0.113  0.000  0.000  0.000  0.000  0.000  0.317
    4  0.000  0.000  0.000  0.000  0.000  0.000  0.000  0.000  0.000  0.001
tot    0.001  0.401  0.011  0.227  0.000  0.000  0.000  0.000  0.000  0.639
 
band    10 # energy    5.94709973 # occ.  0.00000000
 
ion      s     py     pz     px    dxy    dyz    dz2    dxz  x2-y2    tot
    1  0.019  0.002  0.000  0.003  0.000  0.000  0.000  0.000  0.000  0.024
    2  0.022  0.038  0.005  0.088  0.000  0.000  0.000  0.000  0.000  0.153
    3  0.022  0.038  0.005  0.088  0.000  0.000  0.000  0.000  0.000  0.153
    4  0.001  0.075  0.006  0.195  0.000  0.000  0.000  0.000  0.000  0.278
tot    0.064  0.153  0.016  0.374  0.000  0.000  0.000  0.000  0.000  0.608
 
band    11 # energy    6.42904204 # occ.  0.00000000
 
ion      s     py     pz     px    dxy    dyz    dz2    dxz  x2-y2    tot
    1  0.000  0.009  0.001  0.002  0.000  0.000  0.000  0.000  0.000  0.011
    2  0.001  0.138  0.008  0.059  0.000  0.000  0.000  0.000  0.000  0.206
    3  0.001  0.138  0.008  0.059  0.000  0.000  0.000  0.000  0.000  0.206
    4  0.000  0.174  0.006  0.080  0.000  0.000  0.000  0.000  0.000  0.261
tot    0.003  0.459  0.023  0.199  0.000  0.000  0.000  0.000  0.000  0.684
 
band    12 # energy    7.36979273 # occ.  0.00000000
 
ion      s     py     pz     px    dxy    dyz    dz2    dxz  x2-y2    tot
    1  0.009  0.002  0.001  0.009  0.000  0.000  0.000  0.000  0.000  0.020
    2  0.072  0.015  0.014  0.052  0.000  0.000  0.000  0.000  0.000  0.152
    3  0.072  0.015  0.014  0.052  0.000  0.000  0.000  0.000  0.000  0.152
    4  0.001  0.001  0.000  0.005  0.000  0.000  0.000  0.000  0.000  0.007
tot    0.154  0.032  0.028  0.118  0.000  0.000  0.000  0.000  0.000  0.332
 
band    13 # energy   10.85642045 # occ.  0.00000000
 
ion      s     py     pz     px    dxy    dyz    dz2    dxz  x2-y2    tot
    1  0.001  0.012  0.115  0.000  0.000  0.000  0.000  0.000  0.000  0.128
    2  0.024  0.012  0.011  0.028  0.000  0.000  0.000  0.000  0.000  0.075
    3  0.024  0.012  0.011  0.028  0.000  0.000  0.000  0.000  0.000  0.075
    4  0.006  0.008  0.015  0.000  0.000  0.000  0.000  0.000  0.000  0.029
tot    0.054  0.045  0.151  0.057  0.000  0.000  0.000  0.000  0.000  0.307
 
band    14 # energy   11.68111710 # occ.  0.00000000
 
ion      s     py     pz     px    dxy    dyz    dz2    dxz  x2-y2    tot
    1  0.009  0.015  0.010  0.025  0.000  0.000  0.000  0.000  0.000  0.059
    2  0.033  0.009  0.007  0.000  0.000  0.000  0.000  0.000  0.000  0.049
    3  0.033  0.009  0.007  0.000  0.000  0.000  0.000  0.000  0.000  0.049
    4  0.135  0.000  0.003  0.015  0.000  0.000  0.000  0.000  0.000  0.153
tot    0.210  0.032  0.026  0.041  0.000  0.000  0.000  0.000  0.000  0.309
 
band    15 # energy   13.46073156 # occ.  0.00000000
 
ion      s     py     pz     px    dxy    dyz    dz2    dxz  x2-y2    tot
    1  0.014  0.002  0.016  0.050  0.000  0.000  0.000  0.000  0.000  0.081
    2  0.002  0.003  0.009  0.022  0.000  0.000  0.000  0.000  0.000  0.036
    3  0.002  0.003  0.009  0.022  0.000  0.000  0.000  0.000  0.000  0.036
    4  0.014  0.000  0.004  0.000  0.000  0.000  0.000  0.000  0.000  0.018
tot    0.031  0.008  0.037  0.095  0.000  0.000  0.000  0.000  0.000  0.171
 
band    16 # energy   14.25388456 # occ.  0.00000000
 
ion      s     py     pz     px    dxy    dyz    dz2    dxz  x2-y2    tot
    1  0.017  0.004  0.008  0.117  0.000  0.000  0.000  0.000  0.000  0.146
    2  0.001  0.006  0.152  0.001  0.000  0.000  0.000  0.000  0.000  0.160
    3  0.001  0.006  0.152  0.001  0.000  0.000  0.000  0.000  0.000  0.160
    4  0.032  0.001  0.001  0.000  0.000  0.000  0.000  0.000  0.000  0.034
tot    0.051  0.016  0.314  0.120  0.000  0.000  0.000  0.000  0.000  0.501
 

 k-point     4 :    0.27272727-0.00000000 0.00000000     weight = 0.00472255

band     1 # energy  -43.29831624 # occ.  1.00000000
 
ion      s     py     pz     px    dxy    dyz    dz2    dxz  x2-y2    tot
    1  0.989  0.000  0.000  0.000  0.000  0.000  0.000  0.000  0.000  0.989
    2  0.000  0.000  0.000  0.000  0.000  0.000  0.000  0.000  0.000  0.000
    3  0.000  0.000  0.000  0.000  0.000  0.000  0.000  0.000  0.000  0.000
    4  0.000  0.000  0.000  0.000  0.000  0.000  0.000  0.000  0.000  0.000
tot    0.989  0.000  0.000  0.000  0.000  0.000  0.000  0.000  0.000  0.989
 
band     2 # energy  -21.63510466 # occ.  1.00000000
 
ion      s     py     pz     px    dxy    dyz    dz2    dxz  x2-y2    tot
    1  0.000  0.000  0.000  0.000  0.000  0.000  0.000  0.000  0.000  0.000
    2  0.148  0.003  0.060  0.000  0.000  0.000  0.000  0.000  0.000  0.211
    3  0.148  0.003  0.060  0.000  0.000  0.000  0.000  0.000  0.000  0.211
    4  0.534  0.000  0.000  0.000  0.000  0.000  0.000  0.000  0.000  0.534
tot    0.830  0.005  0.121  0.000  0.000  0.000  0.000  0.000  0.000  0.956
 
band     3 # energy  -17.32269210 # occ.  1.00000000
 
ion      s     py     pz     px    dxy    dyz    dz2    dxz  x2-y2    tot
    1  0.000  0.000  0.000  0.000  0.000  0.000  0.000  0.000  0.000  0.000
    2  0.244  0.003  0.066  0.000  0.000  0.000  0.000  0.000  0.000  0.313
    3  0.244  0.003  0.066  0.000  0.000  0.000  0.000  0.000  0.000  0.313
    4  0.000  0.017  0.398  0.000  0.000  0.000  0.000  0.000  0.000  0.414
tot    0.488  0.023  0.530  0.000  0.000  0.000  0.000  0.000  0.000  1.041
 
band     4 # energy   -6.50565914 # occ.  1.00000000
 
ion      s     py     pz     px    dxy    dyz    dz2    dxz  x2-y2    tot
    1  0.010  0.001  0.000  0.001  0.000  0.000  0.000  0.000  0.000  0.012
    2  0.092  0.012  0.076  0.029  0.000  0.000  0.000  0.000  0.000  0.209
    3  0.092  0.012  0.076  0.029  0.000  0.000  0.000  0.000  0.000  0.209
    4  0.076  0.020  0.005  0.080  0.000  0.000  0.000  0.000  0.000  0.181
tot    0.269  0.044  0.158  0.138  0.000  0.000  0.000  0.000  0.000  0.609
 
band     5 # energy   -5.80427749 # occ.  1.00000000
 
ion      s     py     pz     px    dxy    dyz    dz2    dxz  x2-y2    tot
    1  0.000  0.001  0.000  0.001  0.000  0.000  0.000  0.000  0.000  0.002
    2  0.054  0.021  0.032  0.063  0.000  0.000  0.000  0.000  0.000  0.169
    3  0.054  0.021  0.032  0.063  0.000  0.000  0.000  0.000  0.000  0.169
    4  0.023  0.075  0.002  0.217  0.000  0.000  0.000  0.000  0.000  0.317
tot    0.131  0.118  0.065  0.343  0.000  0.000  0.000  0.000  0.000  0.657
 
band     6 # energy   -5.25987400 # occ.  1.00000000
 
ion      s     py     pz     px    dxy    dyz    dz2    dxz  x2-y2    tot
    1  0.000  0.000  0.000  0.000  0.000  0.000  0.000  0.000  0.000  0.000
    2  0.000  0.092  0.007  0.033  0.000  0.000  0.000  0.000  0.000  0.131
    3  0.000  0.092  0.007  0.033  0.000  0.000  0.000  0.000  0.000  0.131
    4  0.000  0.325  0.010  0.111  0.000  0.000  0.000  0.000  0.000  0.446
tot    0.000  0.508  0.023  0.177  0.000  0.000  0.000  0.000  0.000  0.708
 
band     7 # energy   -3.71135379 # occ.  1.00000000
 
ion      s     py     pz     px    dxy    dyz    dz2    dxz  x2-y2    tot
    1  0.001  0.000  0.003  0.000  0.000  0.000  0.000  0.000  0.000  0.004
    2  0.092  0.011  0.195  0.001  0.000  0.000  0.000  0.000  0.000  0.299
    3  0.092  0.011  0.195  0.001  0.000  0.000  0.000  0.000  0.000  0.299
    4  0.002  0.006  0.129  0.003  0.000  0.000  0.000  0.000  0.000  0.139
tot    0.187  0.028  0.523  0.004  0.000  0.000  0.000  0.000  0.000  0.742
 
band     8 # energy   -0.33039529 # occ.  1.00000000
 
ion      s     py     pz     px    dxy    dyz    dz2    dxz  x2-y2    tot
    1  0.000  0.000  0.005  0.002  0.000  0.000  0.000  0.000  0.000  0.008
    2  0.004  0.090  0.004  0.184  0.000  0.000  0.000  0.000  0.000  0.281
    3  0.004  0.090  0.004  0.184  0.000  0.000  0.000  0.000  0.000  0.281
    4  0.001  0.001  0.000  0.001  0.000  0.000  0.000  0.000  0.000  0.002
tot    0.008  0.181  0.013  0.370  0.000  0.000  0.000  0.000  0.000  0.573
 
band     9 # energy    0.34161936 # occ.  1.00000000
 
ion      s     py     pz     px    dxy    dyz    dz2    dxz  x2-y2    tot
    1  0.000  0.004  0.000  0.002  0.000  0.000  0.000  0.000  0.000  0.006
    2  0.000  0.201  0.006  0.103  0.000  0.000  0.000  0.000  0.000  0.311
    3  0.000  0.201  0.006  0.103  0.000  0.000  0.000  0.000  0.000  0.311
    4  0.000  0.000  0.000  0.000  0.000  0.000  0.000  0.000  0.000  0.000
tot    0.000  0.406  0.012  0.208  0.000  0.000  0.000  0.000  0.000  0.628
 
band    10 # energy    5.55295264 # occ.  0.00000000
 
ion      s     py     pz     px    dxy    dyz    dz2    dxz  x2-y2    tot
    1  0.024  0.001  0.000  0.002  0.000  0.000  0.000  0.000  0.000  0.027
    2  0.013  0.020  0.005  0.106  0.000  0.000  0.000  0.000  0.000  0.144
    3  0.013  0.020  0.005  0.106  0.000  0.000  0.000  0.000  0.000  0.144
    4  0.001  0.048  0.007  0.233  0.000  0.000  0.000  0.000  0.000  0.290