<?xml version="1.0" encoding="ISO-8859-1"?>
<modeling>
 <generator>
  <i name="program" type="string">vasp </i>
  <i name="version" type="string">5.4.4.18Apr17-6-g9f103f2a35  </i>
  <i name="subversion" type="string">(build Aug 12 2020 11:57:02) complex            parallel </i>
  <i name="platform" type="string">LinuxIFC </i>
  <i name="date" type="string">2021 02 02 </i>
  <i name="time" type="string">18:38:59 </i>
 </generator>
 <incar>
  <i type="string" name="PREC">accurate</i>
  <i type="string" name="ALGO"> Fast</i>
  <i type="int" name="NSIM">     4</i>
  <i type="int" name="ISPIN">     2</i>
  <i type="int" name="NELM">   100</i>
  <i type="int" name="IBRION">     2</i>
  <i name="EDIFF">      0.00001000</i>
  <i type="int" name="NSW">    99</i>
  <i type="int" name="ISIF">     3</i>
  <i name="ENCUT">    520.00000000</i>
  <v name="MAGMOM">      0.00000000      0.00000000      0.00000000      0.00000000</v>
  <i type="string" name="LREAL"> Auto</i>
  <i type="logical" name="LPLANE"> T  </i>
  <i type="int" name="ISMEAR">    -5</i>
  <i name="SIGMA">      0.05000000</i>
  <i type="logical" name="LWAVE"> F  </i>
  <i type="logical" name="LCHARG"> F  </i>
  <i type="int" name="LORBIT">    11</i>
  <i type="logical" name="LASPH"> T  </i>
  <v type="int" name="KPOINT_BSE">    -1     0     0     0</v>
  <i type="int" name="NELM">   100</i>
  <i type="logical" name="LASPH"> T  </i>
 </incar>
 <structure name="primitive_cell" >
  <crystal>
   <varray name="basis" >
    <v>       1.67702500       2.84253400       0.00000000 </v>
    <v>      -1.67702500       2.84253400       0.00000000 </v>
    <v>       0.00000000       1.48085100       4.76372100 </v>
   </varray>
   <i name="volume">     45.41732155 </i>
   <varray name="rec_basis" >
    <v>       0.29814702       0.17589939      -0.05468011 </v>
    <v>      -0.29814702       0.17589939      -0.05468011 </v>
    <v>       0.00000000       0.00000000       0.20991993 </v>
   </varray>
  </crystal>
  <varray name="positions" >
   <v>       0.00000000       0.00000000       0.00000000 </v>
   <v>      -0.39418900      -0.39418900       0.25670700 </v>
   <v>       0.39418900       0.39418900      -0.25670700 </v>
   <v>      -0.50000000      -0.50000000      -0.50000000 </v>
  </varray>
 </structure>
 <varray name="primitive_index" >
  <v type="int" >        1 </v>
  <v type="int" >        2 </v>
  <v type="int" >        3 </v>
  <v type="int" >        4 </v>
 </varray>
 <kpoints>
  <generation param="Auto">
   <i name="subdivisionlength">     32.00000000 </i>
   <v type="int" name="divisions">      11       11        7 </v>
   <v name="usershift">      0.00000000       0.00000000       0.00000000 </v>
   <v name="genvec1">      0.09090909      -0.00000000       0.00000000 </v>
   <v name="genvec2">     -0.00000000       0.09090909       0.00000000 </v>
   <v name="genvec3">      0.00000000       0.00000000       0.14285714 </v>
   <v name="shift">      0.00000000       0.00000000       0.00000000 </v>
  </generation>
  <varray name="kpointlist" >
   <v>       0.00000000       0.00000000       0.00000000 </v>
   <v>       0.09090909      -0.00000000      -0.00000000 </v>
   <v>       0.18181818      -0.00000000      -0.00000000 </v>
   <v>       0.27272727      -0.00000000       0.00000000 </v>
   <v>       0.36363636      -0.00000000      -0.00000000 </v>
   <v>       0.45454545       0.00000000       0.00000000 </v>
   <v>       0.09090909       0.09090909      -0.00000000 </v>
   <v>       0.18181818       0.09090909      -0.00000000 </v>
   <v>       0.27272727       0.09090909      -0.00000000 </v>
   <v>       0.36363636       0.09090909       0.00000000 </v>
   <v>       0.45454545       0.09090909       0.00000000 </v>
   <v>      -0.45454545       0.09090909      -0.00000000 </v>
   <v>      -0.36363636       0.09090909       0.00000000 </v>
   <v>      -0.27272727       0.09090909      -0.00000000 </v>
   <v>      -0.18181818       0.09090909       0.00000000 </v>
   <v>      -0.09090909       0.09090909       0.00000000 </v>
   <v>       0.18181818       0.18181818      -0.00000000 </v>
   <v>       0.27272727       0.18181818       0.00000000 </v>
   <v>       0.36363636       0.18181818      -0.00000000 </v>
   <v>       0.45454545       0.18181818       0.00000000 </v>
   <v>      -0.45454545       0.18181818      -0.00000000 </v>
   <v>      -0.36363636       0.18181818       0.00000000 </v>
   <v>      -0.27272727       0.18181818      -0.00000000 </v>
   <v>      -0.18181818       0.18181818       0.00000000 </v>
   <v>       0.27272727       0.27272727       0.00000000 </v>
   <v>       0.36363636       0.27272727       0.00000000 </v>
   <v>       0.45454545       0.27272727      -0.00000000 </v>
   <v>      -0.45454545       0.27272727       0.00000000 </v>
   <v>      -0.36363636       0.27272727       0.00000000 </v>
   <v>      -0.27272727       0.27272727       0.00000000 </v>
   <v>       0.36363636       0.36363636      -0.00000000 </v>
   <v>       0.45454545       0.36363636      -0.00000000 </v>
   <v>      -0.45454545       0.36363636      -0.00000000 </v>
   <v>      -0.36363636       0.36363636       0.00000000 </v>
   <v>       0.45454545       0.45454545       0.00000000 </v>
   <v>      -0.45454545       0.45454545       0.00000000 </v>
   <v>       0.00000000       0.00000000       0.14285714 </v>
   <v>       0.09090909      -0.00000000       0.14285714 </v>
   <v>       0.18181818      -0.00000000       0.14285714 </v>
   <v>       0.27272727      -0.00000000       0.14285714 </v>
   <v>       0.36363636      -0.00000000       0.14285714 </v>
   <v>       0.45454545       0.00000000       0.14285714 </v>
   <v>      -0.45454545       0.00000000       0.14285714 </v>
   <v>      -0.36363636       0.00000000       0.14285714 </v>
   <v>      -0.27272727       0.00000000       0.14285714 </v>
   <v>      -0.18181818       0.00000000       0.14285714 </v>
   <v>      -0.09090909       0.00000000       0.14285714 </v>
   <v>       0.09090909       0.09090909       0.14285714 </v>
   <v>       0.18181818       0.09090909       0.14285714 </v>
   <v>       0.27272727       0.09090909       0.14285714 </v>
   <v>       0.36363636       0.09090909       0.14285714 </v>
   <v>       0.45454545       0.09090909       0.14285714 </v>
   <v>      -0.45454545       0.09090909       0.14285714 </v>
   <v>      -0.36363636       0.09090909       0.14285714 </v>
   <v>      -0.27272727       0.09090909       0.14285714 </v>
   <v>      -0.18181818       0.09090909       0.14285714 </v>
   <v>      -0.09090909       0.09090909       0.14285714 </v>
   <v>       0.18181818       0.18181818       0.14285714 </v>
   <v>       0.27272727       0.18181818       0.14285714 </v>
   <v>       0.36363636       0.18181818       0.14285714 </v>
   <v>       0.45454545       0.18181818       0.14285714 </v>
   <v>      -0.45454545       0.18181818       0.14285714 </v>
   <v>      -0.36363636       0.18181818       0.14285714 </v>
   <v>      -0.27272727       0.18181818       0.14285714 </v>
   <v>      -0.18181818       0.18181818       0.14285714 </v>
   <v>      -0.09090909       0.18181818       0.14285714 </v>
   <v>       0.27272727       0.27272727       0.14285714 </v>
   <v>       0.36363636       0.27272727       0.14285714 </v>
   <v>       0.45454545       0.27272727       0.14285714 </v>
   <v>      -0.45454545       0.27272727       0.14285714 </v>
   <v>      -0.36363636       0.27272727       0.14285714 </v>
   <v>      -0.27272727       0.27272727       0.14285714 </v>
   <v>      -0.18181818       0.27272727       0.14285714 </v>
   <v>      -0.09090909       0.27272727       0.14285714 </v>
   <v>       0.36363636       0.36363636       0.14285714 </v>
   <v>       0.45454545       0.36363636       0.14285714 </v>
   <v>      -0.45454545       0.36363636       0.14285714 </v>
   <v>      -0.36363636       0.36363636       0.14285714 </v>
   <v>      -0.27272727       0.36363636       0.14285714 </v>
   <v>      -0.18181818       0.36363636       0.14285714 </v>
   <v>      -0.09090909       0.36363636       0.14285714 </v>
   <v>       0.45454545       0.45454545       0.14285714 </v>
   <v>      -0.45454545       0.45454545       0.14285714 </v>
   <v>      -0.36363636       0.45454545       0.14285714 </v>
   <v>      -0.27272727       0.45454545       0.14285714 </v>
   <v>      -0.18181818       0.45454545       0.14285714 </v>
   <v>      -0.09090909       0.45454545       0.14285714 </v>
   <v>      -0.45454545      -0.45454545       0.14285714 </v>
   <v>      -0.36363636      -0.45454545       0.14285714 </v>
   <v>      -0.27272727      -0.45454545       0.14285714 </v>
   <v>      -0.18181818      -0.45454545       0.14285714 </v>
   <v>      -0.09090909      -0.45454545       0.14285714 </v>
   <v>      -0.36363636      -0.36363636       0.14285714 </v>
   <v>      -0.27272727      -0.36363636       0.14285714 </v>
   <v>      -0.18181818      -0.36363636       0.14285714 </v>
   <v>      -0.09090909      -0.36363636       0.14285714 </v>
   <v>      -0.27272727      -0.27272727       0.14285714 </v>
   <v>      -0.18181818      -0.27272727       0.14285714 </v>
   <v>      -0.09090909      -0.27272727       0.14285714 </v>
   <v>      -0.18181818      -0.18181818       0.14285714 </v>
   <v>      -0.09090909      -0.18181818       0.14285714 </v>
   <v>      -0.09090909      -0.09090909       0.14285714 </v>
   <v>       0.00000000       0.00000000       0.28571429 </v>
   <v>       0.09090909      -0.00000000       0.28571429 </v>
   <v>       0.18181818      -0.00000000       0.28571429 </v>
   <v>       0.27272727      -0.00000000       0.28571429 </v>
   <v>       0.36363636      -0.00000000       0.28571429 </v>
   <v>       0.45454545       0.00000000       0.28571429 </v>
   <v>      -0.45454545       0.00000000       0.28571429 </v>
   <v>      -0.36363636       0.00000000       0.28571429 </v>
   <v>      -0.27272727       0.00000000       0.28571429 </v>
   <v>      -0.18181818       0.00000000       0.28571429 </v>
   <v>      -0.09090909       0.00000000       0.28571429 </v>
   <v>       0.09090909       0.09090909       0.28571429 </v>
   <v>       0.18181818       0.09090909       0.28571429 </v>
   <v>       0.27272727       0.09090909       0.28571429 </v>
   <v>       0.36363636       0.09090909       0.28571429 </v>
   <v>       0.45454545       0.09090909       0.28571429 </v>
   <v>      -0.45454545       0.09090909       0.28571429 </v>
   <v>      -0.36363636       0.09090909       0.28571429 </v>
   <v>      -0.27272727       0.09090909       0.28571429 </v>
   <v>      -0.18181818       0.09090909       0.28571429 </v>
   <v>      -0.09090909       0.09090909       0.28571429 </v>
   <v>       0.18181818       0.18181818       0.28571429 </v>
   <v>       0.27272727       0.18181818       0.28571429 </v>
   <v>       0.36363636       0.18181818       0.28571429 </v>
   <v>       0.45454545       0.18181818       0.28571429 </v>
   <v>      -0.45454545       0.18181818       0.28571429 </v>
   <v>      -0.36363636       0.18181818       0.28571429 </v>
   <v>      -0.27272727       0.18181818       0.28571429 </v>
   <v>      -0.18181818       0.18181818       0.28571429 </v>
   <v>      -0.09090909       0.18181818       0.28571429 </v>
   <v>       0.27272727       0.27272727       0.28571429 </v>
   <v>       0.36363636       0.27272727       0.28571429 </v>
   <v>       0.45454545       0.27272727       0.28571429 </v>
   <v>      -0.45454545       0.27272727       0.28571429 </v>
   <v>      -0.36363636       0.27272727       0.28571429 </v>
   <v>      -0.27272727       0.27272727       0.28571429 </v>
   <v>      -0.18181818       0.27272727       0.28571429 </v>
   <v>      -0.09090909       0.27272727       0.28571429 </v>
   <v>       0.36363636       0.36363636       0.28571429 </v>
   <v>       0.45454545       0.36363636       0.28571429 </v>
   <v>      -0.45454545       0.36363636       0.28571429 </v>
   <v>      -0.36363636       0.36363636       0.28571429 </v>
   <v>      -0.27272727       0.36363636       0.28571429 </v>
   <v>      -0.18181818       0.36363636       0.28571429 </v>
   <v>      -0.09090909       0.36363636       0.28571429 </v>
   <v>       0.45454545       0.45454545       0.28571429 </v>
   <v>      -0.45454545       0.45454545       0.28571429 </v>
   <v>      -0.36363636       0.45454545       0.28571429 </v>
   <v>      -0.27272727       0.45454545       0.28571429 </v>
   <v>      -0.18181818       0.45454545       0.28571429 </v>
   <v>      -0.09090909       0.45454545       0.28571429 </v>
   <v>      -0.45454545      -0.45454545       0.28571429 </v>
   <v>      -0.36363636      -0.45454545       0.28571429 </v>
   <v>      -0.27272727      -0.45454545       0.28571429 </v>
   <v>      -0.18181818      -0.45454545       0.28571429 </v>
   <v>      -0.09090909      -0.45454545       0.28571429 </v>
   <v>      -0.36363636      -0.36363636       0.28571429 </v>
   <v>      -0.27272727      -0.36363636       0.28571429 </v>
   <v>      -0.18181818      -0.36363636       0.28571429 </v>
   <v>      -0.09090909      -0.36363636       0.28571429 </v>
   <v>      -0.27272727      -0.27272727       0.28571429 </v>
   <v>      -0.18181818      -0.27272727       0.28571429 </v>
   <v>      -0.09090909      -0.27272727       0.28571429 </v>
   <v>      -0.18181818      -0.18181818       0.28571429 </v>
   <v>      -0.09090909      -0.18181818       0.28571429 </v>
   <v>      -0.09090909      -0.09090909       0.28571429 </v>
   <v>       0.00000000       0.00000000       0.42857143 </v>
   <v>       0.09090909      -0.00000000       0.42857143 </v>
   <v>       0.18181818      -0.00000000       0.42857143 </v>
   <v>       0.27272727      -0.00000000       0.42857143 </v>
   <v>       0.36363636      -0.00000000       0.42857143 </v>
   <v>       0.45454545       0.00000000       0.42857143 </v>
   <v>      -0.45454545       0.00000000       0.42857143 </v>
   <v>      -0.36363636       0.00000000       0.42857143 </v>
   <v>      -0.27272727       0.00000000       0.42857143 </v>
   <v>      -0.18181818       0.00000000       0.42857143 </v>
   <v>      -0.09090909       0.00000000       0.42857143 </v>
   <v>       0.09090909       0.09090909       0.42857143 </v>
   <v>       0.18181818       0.09090909       0.42857143 </v>
   <v>       0.27272727       0.09090909       0.42857143 </v>
   <v>       0.36363636       0.09090909       0.42857143 </v>
   <v>       0.45454545       0.09090909       0.42857143 </v>
   <v>      -0.45454545       0.09090909       0.42857143 </v>
   <v>      -0.36363636       0.09090909       0.42857143 </v>
   <v>      -0.27272727       0.09090909       0.42857143 </v>
   <v>      -0.18181818       0.09090909       0.42857143 </v>
   <v>      -0.09090909       0.09090909       0.42857143 </v>
   <v>       0.18181818       0.18181818       0.42857143 </v>
   <v>       0.27272727       0.18181818       0.42857143 </v>
   <v>       0.36363636       0.18181818       0.42857143 </v>
   <v>       0.45454545       0.18181818       0.42857143 </v>
   <v>      -0.45454545       0.18181818       0.42857143 </v>
   <v>      -0.36363636       0.18181818       0.42857143 </v>
   <v>      -0.27272727       0.18181818       0.42857143 </v>
   <v>      -0.18181818       0.18181818       0.42857143 </v>
   <v>      -0.09090909       0.18181818       0.42857143 </v>
   <v>       0.27272727       0.27272727       0.42857143 </v>
   <v>       0.36363636       0.27272727       0.42857143 </v>
   <v>       0.45454545       0.27272727       0.42857143 </v>
   <v>      -0.45454545       0.27272727       0.42857143 </v>
   <v>      -0.36363636       0.27272727       0.42857143 </v>
   <v>      -0.27272727       0.27272727       0.42857143 </v>
   <v>      -0.18181818       0.27272727       0.42857143 </v>
   <v>      -0.09090909       0.27272727       0.42857143 </v>
   <v>       0.36363636       0.36363636       0.42857143 </v>
   <v>       0.45454545       0.36363636       0.42857143 </v>
   <v>      -0.45454545       0.36363636       0.42857143 </v>
   <v>      -0.36363636       0.36363636       0.42857143 </v>
   <v>      -0.27272727       0.36363636       0.42857143 </v>
   <v>      -0.18181818       0.36363636       0.42857143 </v>
   <v>      -0.09090909       0.36363636       0.42857143 </v>
   <v>       0.45454545       0.45454545       0.42857143 </v>
   <v>      -0.45454545       0.45454545       0.42857143 </v>
   <v>      -0.36363636       0.45454545       0.42857143 </v>
   <v>      -0.27272727       0.45454545       0.42857143 </v>
   <v>      -0.18181818       0.45454545       0.42857143 </v>
   <v>      -0.09090909       0.45454545       0.42857143 </v>
   <v>      -0.45454545      -0.45454545       0.42857143 </v>
   <v>      -0.36363636      -0.45454545       0.42857143 </v>
   <v>      -0.27272727      -0.45454545       0.42857143 </v>
   <v>      -0.18181818      -0.45454545       0.42857143 </v>
   <v>      -0.09090909      -0.45454545       0.42857143 </v>
   <v>      -0.36363636      -0.36363636       0.42857143 </v>
   <v>      -0.27272727      -0.36363636       0.42857143 </v>
   <v>      -0.18181818      -0.36363636       0.42857143 </v>
   <v>      -0.09090909      -0.36363636       0.42857143 </v>
   <v>      -0.27272727      -0.27272727       0.42857143 </v>
   <v>      -0.18181818      -0.27272727       0.42857143 </v>
   <v>      -0.09090909      -0.27272727       0.42857143 </v>
   <v>      -0.18181818      -0.18181818       0.42857143 </v>
   <v>      -0.09090909      -0.18181818       0.42857143 </v>
   <v>      -0.09090909      -0.09090909       0.42857143 </v>
  </varray>
  <varray name="weights" >
   <v>       0.00118064 </v>
   <v>       0.00472255 </v>
   <v>       0.00472255 </v>
   <v>       0.00472255 </v>
   <v>       0.00472255 </v>
   <v>       0.00472255 </v>
   <v>       0.00236128 </v>
   <v>       0.00472255 </v>
   <v>       0.00472255 </v>
   <v>       0.00472255 </v>
   <v>       0.00472255 </v>
   <v>       0.00472255 </v>
   <v>       0.00472255 </v>
   <v>       0.00472255 </v>
   <v>       0.00472255 </v>
   <v>       0.00236128 </v>
   <v>       0.00236128 </v>
   <v>       0.00472255 </v>
   <v>       0.00472255 </v>
   <v>       0.00472255 </v>
   <v>       0.00472255 </v>
   <v>       0.00472255 </v>
   <v>       0.00472255 </v>
   <v>       0.00236128 </v>
   <v>       0.00236128 </v>
   <v>       0.00472255 </v>
   <v>       0.00472255 </v>
   <v>       0.00472255 </v>
   <v>       0.00472255 </v>
   <v>       0.00236128 </v>
   <v>       0.00236128 </v>
   <v>       0.00472255 </v>
   <v>       0.00472255 </v>
   <v>       0.00236128 </v>
   <v>       0.00236128 </v>
   <v>       0.00236128 </v>
   <v>       0.00236128 </v>
   <v>       0.00472255 </v>
   <v>       0.00472255 </v>
   <v>       0.00472255 </v>
   <v>       0.00472255 </v>
   <v>       0.00472255 </v>
   <v>       0.00472255 </v>
   <v>       0.00472255 </v>
   <v>       0.00472255 </v>
   <v>       0.00472255 </v>
   <v>       0.00472255 </v>
   <v>       0.00236128 </v>
   <v>       0.00472255 </v>
   <v>       0.00472255 </v>
   <v>       0.00472255 </v>
   <v>       0.00472255 </v>
   <v>       0.00472255 </v>
   <v>       0.00472255 </v>
   <v>       0.00472255 </v>
   <v>       0.00472255 </v>
   <v>       0.00472255 </v>
   <v>       0.00236128 </v>
   <v>       0.00472255 </v>
   <v>       0.00472255 </v>
   <v>       0.00472255 </v>
   <v>       0.00472255 </v>
   <v>       0.00472255 </v>
   <v>       0.00472255 </v>
   <v>       0.00472255 </v>
   <v>       0.00472255 </v>
   <v>       0.00236128 </v>
   <v>       0.00472255 </v>
   <v>       0.00472255 </v>
   <v>       0.00472255 </v>
   <v>       0.00472255 </v>
   <v>       0.00472255 </v>
   <v>       0.00472255 </v>
   <v>       0.00472255 </v>
   <v>       0.00236128 </v>
   <v>       0.00472255 </v>
   <v>       0.00472255 </v>
   <v>       0.00472255 </v>
   <v>       0.00472255 </v>
   <v>       0.00472255 </v>
   <v>       0.00472255 </v>
   <v>       0.00236128 </v>
   <v>       0.00472255 </v>
   <v>       0.00472255 </v>
   <v>       0.00472255 </v>
   <v>       0.00472255 </v>
   <v>       0.00472255 </v>
   <v>       0.00236128 </v>
   <v>       0.00472255 </v>
   <v>       0.00472255 </v>
   <v>       0.00472255 </v>
   <v>       0.00472255 </v>
   <v>       0.00236128 </v>
   <v>       0.00472255 </v>
   <v>       0.00472255 </v>
   <v>       0.00472255 </v>
   <v>       0.00236128 </v>
   <v>       0.00472255 </v>
   <v>       0.00472255 </v>
   <v>       0.00236128 </v>
   <v>       0.00472255 </v>
   <v>       0.00236128 </v>
   <v>       0.00236128 </v>
   <v>       0.00472255 </v>
   <v>       0.00472255 </v>
   <v>       0.00472255 </v>
   <v>       0.00472255 </v>
   <v>       0.00472255 </v>
   <v>       0.00472255 </v>
   <v>       0.00472255 </v>
   <v>       0.00472255 </v>
   <v>       0.00472255 </v>
   <v>       0.00472255 </v>
   <v>       0.00236128 </v>
   <v>       0.00472255 </v>
   <v>       0.00472255 </v>
   <v>       0.00472255 </v>
   <v>       0.00472255 </v>
   <v>       0.00472255 </v>
   <v>       0.00472255 </v>
   <v>       0.00472255 </v>
   <v>       0.00472255 </v>
   <v>       0.00472255 </v>
   <v>       0.00236128 </v>
   <v>       0.00472255 </v>
   <v>       0.00472255 </v>
   <v>       0.00472255 </v>
   <v>       0.00472255 </v>
   <v>       0.00472255 </v>
   <v>       0.00472255 </v>
   <v>       0.00472255 </v>
   <v>       0.00472255 </v>
   <v>       0.00236128 </v>
   <v>       0.00472255 </v>
   <v>       0.00472255 </v>
   <v>       0.00472255 </v>
   <v>       0.00472255 </v>
   <v>       0.00472255 </v>
   <v>       0.00472255 </v>
   <v>       0.00472255 </v>
   <v>       0.00236128 </v>
   <v>       0.00472255 </v>
   <v>       0.00472255 </v>
   <v>       0.00472255 </v>
   <v>       0.00472255 </v>
   <v>       0.00472255 </v>
   <v>       0.00472255 </v>
   <v>       0.00236128 </v>
   <v>       0.00472255 </v>
   <v>       0.00472255 </v>
   <v>       0.00472255 </v>
   <v>       0.00472255 </v>
   <v>       0.00472255 </v>
   <v>       0.00236128 </v>
   <v>       0.00472255 </v>
   <v>       0.00472255 </v>
   <v>       0.00472255 </v>
   <v>       0.00472255 </v>
   <v>       0.00236128 </v>
   <v>       0.00472255 </v>
   <v>       0.00472255 </v>
   <v>       0.00472255 </v>
   <v>       0.00236128 </v>
   <v>       0.00472255 </v>
   <v>       0.00472255 </v>
   <v>       0.00236128 </v>
   <v>       0.00472255 </v>
   <v>       0.00236128 </v>
   <v>       0.00236128 </v>
   <v>       0.00472255 </v>
   <v>       0.00472255 </v>
   <v>       0.00472255 </v>
   <v>       0.00472255 </v>
   <v>       0.00472255 </v>
   <v>       0.00472255 </v>
   <v>       0.00472255 </v>
   <v>       0.00472255 </v>
   <v>       0.00472255 </v>
   <v>       0.00472255 </v>
   <v>       0.00236128 </v>
   <v>       0.00472255 </v>
   <v>       0.00472255 </v>
   <v>       0.00472255 </v>
   <v>       0.00472255 </v>
   <v>       0.00472255 </v>
   <v>       0.00472255 </v>
   <v>       0.00472255 </v>
   <v>       0.00472255 </v>
   <v>       0.00472255 </v>
   <v>       0.00236128 </v>
   <v>       0.00472255 </v>
   <v>       0.00472255 </v>
   <v>       0.00472255 </v>
   <v>       0.00472255 </v>
   <v>       0.00472255 </v>
   <v>       0.00472255 </v>
   <v>       0.00472255 </v>
   <v>       0.00472255 </v>
   <v>       0.00236128 </v>
   <v>       0.00472255 </v>
   <v>       0.00472255 </v>
   <v>       0.00472255 </v>
   <v>       0.00472255 </v>
   <v>       0.00472255 </v>
   <v>       0.00472255 </v>
   <v>       0.00472255 </v>
   <v>       0.00236128 </v>
   <v>       0.00472255 </v>
   <v>       0.00472255 </v>
   <v>       0.00472255 </v>
   <v>       0.00472255 </v>
   <v>       0.00472255 </v>
   <v>       0.00472255 </v>
   <v>       0.00236128 </v>
   <v>       0.00472255 </v>
   <v>       0.00472255 </v>
   <v>       0.00472255 </v>
   <v>       0.00472255 </v>
   <v>       0.00472255 </v>
   <v>       0.00236128 </v>
   <v>       0.00472255 </v>
   <v>       0.00472255 </v>
   <v>       0.00472255 </v>
   <v>       0.00472255 </v>
   <v>       0.00236128 </v>
   <v>       0.00472255 </v>
   <v>       0.00472255 </v>
   <v>       0.00472255 </v>
   <v>       0.00236128 </v>
   <v>       0.00472255 </v>
   <v>       0.00472255 </v>
   <v>       0.00236128 </v>
   <v>       0.00472255 </v>
   <v>       0.00236128 </v>
  </varray>
  <varray name="tetrahedronlist"  type="int" >
   <v type="int" >        4        1        2        7       48 </v>
   <v type="int" >        4        1        2       38       48 </v>
   <v type="int" >        4        1       37       38       48 </v>
   <v type="int" >        4        2        7        8       49 </v>
   <v type="int" >        4        2        3        8       49 </v>
   <v type="int" >        4        2        3       39       49 </v>
   <v type="int" >        4        2        7       48       49 </v>
   <v type="int" >        4        2       38       48       49 </v>
   <v type="int" >        4        2       38       39       49 </v>
   <v type="int" >        4        3        8        9       50 </v>
   <v type="int" >        4        3        4        9       50 </v>
   <v type="int" >        4        3        4       40       50 </v>
   <v type="int" >        4        3        8       49       50 </v>
   <v type="int" >        4        3       39       49       50 </v>
   <v type="int" >        4        3       39       40       50 </v>
   <v type="int" >        4        4        9       10       51 </v>
   <v type="int" >        4        4        5       10       51 </v>
   <v type="int" >        4        4        5       41       51 </v>
   <v type="int" >        4        4        9       50       51 </v>
   <v type="int" >        4        4       40       50       51 </v>
   <v type="int" >        4        4       40       41       51 </v>
   <v type="int" >        4        5       10       11       52 </v>
   <v type="int" >        4        5        6       11       52 </v>
   <v type="int" >        4        5        6       42       52 </v>
   <v type="int" >        4        5       10       51       52 </v>
   <v type="int" >        4        5       41       51       52 </v>
   <v type="int" >        4        5       41       42       52 </v>
   <v type="int" >        4        6       11       12       53 </v>
   <v type="int" >        4        6        6       12       53 </v>
   <v type="int" >        4        6        6       43       53 </v>
   <v type="int" >        4        6       11       52       53 </v>
   <v type="int" >        4        6       42       52       53 </v>
   <v type="int" >        4        6       42       43       53 </v>
   <v type="int" >        4        6       12       13       54 </v>
   <v type="int" >        4        5        6       13       54 </v>
   <v type="int" >        4        5        6       44       54 </v>
   <v type="int" >        4        6       12       53       54 </v>
   <v type="int" >        4        6       43       53       54 </v>
   <v type="int" >        4        6       43       44       54 </v>
   <v type="int" >        4        5       13       14       55 </v>
   <v type="int" >        4        4        5       14       55 </v>
   <v type="int" >        4        4        5       45       55 </v>
   <v type="int" >        4        5       13       54       55 </v>
   <v type="int" >        4        5       44       54       55 </v>
   <v type="int" >        4        5       44       45       55 </v>
   <v type="int" >        4        4       14       15       56 </v>
   <v type="int" >        4        3        4       15       56 </v>
   <v type="int" >        4        3        4       46       56 </v>
   <v type="int" >        4        4       14       55       56 </v>
   <v type="int" >        4        4       45       55       56 </v>
   <v type="int" >        4        4       45       46       56 </v>
   <v type="int" >        4        3       15       16       57 </v>
   <v type="int" >        4        2        3       16       57 </v>
   <v type="int" >        4        2        3       47       57 </v>
   <v type="int" >        4        3       15       56       57 </v>
   <v type="int" >        4        3       46       56       57 </v>
   <v type="int" >        4        3       46       47       57 </v>
   <v type="int" >        4        2        2       16       38 </v>
   <v type="int" >        4        1        2        2       38 </v>
   <v type="int" >        4        1        2       37       38 </v>
   <v type="int" >        4        2       16       38       57 </v>
   <v type="int" >        4        2       38       47       57 </v>
   <v type="int" >        4        2       37       38       47 </v>
   <v type="int" >        4        7        8       17       58 </v>
   <v type="int" >        4        7        8       49       58 </v>
   <v type="int" >        4        7       48       49       58 </v>
   <v type="int" >        4        8       17       18       59 </v>
   <v type="int" >        4        8        9       18       59 </v>
   <v type="int" >        4        8        9       50       59 </v>
   <v type="int" >        4        8       17       58       59 </v>
   <v type="int" >        4        8       49       58       59 </v>
   <v type="int" >        4        8       49       50       59 </v>
   <v type="int" >        4        9       18       19       60 </v>
   <v type="int" >        4        9       10       19       60 </v>
   <v type="int" >        4        9       10       51       60 </v>
   <v type="int" >        4        9       18       59       60 </v>
   <v type="int" >        4        9       50       59       60 </v>
   <v type="int" >        4        9       50       51       60 </v>
   <v type="int" >        4       10       19       20       61 </v>
   <v type="int" >        4       10       11       20       61 </v>
   <v type="int" >        4       10       11       52       61 </v>
   <v type="int" >        4       10       19       60       61 </v>
   <v type="int" >        4       10       51       60       61 </v>
   <v type="int" >        4       10       51       52       61 </v>
   <v type="int" >        4       11       20       21       62 </v>
   <v type="int" >        4       11       12       21       62 </v>
   <v type="int" >        4       11       12       53       62 </v>
   <v type="int" >        4       11       20       61       62 </v>
   <v type="int" >        4       11       52       61       62 </v>
   <v type="int" >        4       11       52       53       62 </v>
   <v type="int" >        4       12       21       22       63 </v>
   <v type="int" >        4       12       13       22       63 </v>
   <v type="int" >        4       12       13       54       63 </v>
   <v type="int" >        4       12       21       62       63 </v>
   <v type="int" >        4       12       53       62       63 </v>
   <v type="int" >        4       12       53       54       63 </v>
   <v type="int" >        4       13       22       23       64 </v>
   <v type="int" >        4       13       14       23       64 </v>
   <v type="int" >        4       13       14       55       64 </v>
   <v type="int" >        4       13       22       63       64 </v>
   <v type="int" >        4       13       54       63       64 </v>
   <v type="int" >        4       13       54       55       64 </v>
   <v type="int" >        4       14       23       24       65 </v>
   <v type="int" >        4       14       15       24       65 </v>
   <v type="int" >        4       14       15       56       65 </v>
   <v type="int" >        4       14       23       64       65 </v>
   <v type="int" >        4       14       55       64       65 </v>
   <v type="int" >        4       14       55       56       65 </v>
   <v type="int" >        4       15       15       24       66 </v>
   <v type="int" >        4       15       15       16       66 </v>
   <v type="int" >        4       15       16       57       66 </v>
   <v type="int" >        4       15       24       65       66 </v>
   <v type="int" >        4       15       56       65       66 </v>
   <v type="int" >        4       15       56       57       66 </v>
   <v type="int" >        4        3       15       16       39 </v>
   <v type="int" >        4        2        3       16       39 </v>
   <v type="int" >        4        2       16       38       39 </v>
   <v type="int" >        4       15       16       39       66 </v>
   <v type="int" >        4       16       39       57       66 </v>
   <v type="int" >        4       16       38       39       57 </v>
   <v type="int" >        4       17       18       25       67 </v>
   <v type="int" >        4       17       18       59       67 </v>
   <v type="int" >        4       17       58       59       67 </v>
   <v type="int" >        4       18       25       26       68 </v>
   <v type="int" >        4       18       19       26       68 </v>
   <v type="int" >        4       18       19       60       68 </v>
   <v type="int" >        4       18       25       67       68 </v>
   <v type="int" >        4       18       59       67       68 </v>
   <v type="int" >        4       18       59       60       68 </v>
   <v type="int" >        4       19       26       27       69 </v>
   <v type="int" >        4       19       20       27       69 </v>
   <v type="int" >        4       19       20       61       69 </v>
   <v type="int" >        4       19       26       68       69 </v>
   <v type="int" >        4       19       60       68       69 </v>
   <v type="int" >        4       19       60       61       69 </v>
   <v type="int" >        4       20       27       28       70 </v>
   <v type="int" >        4       20       21       28       70 </v>
   <v type="int" >        4       20       21       62       70 </v>
   <v type="int" >        4       20       27       69       70 </v>
   <v type="int" >        4       20       61       69       70 </v>
   <v type="int" >        4       20       61       62       70 </v>
   <v type="int" >        4       21       28       29       71 </v>
   <v type="int" >        4       21       22       29       71 </v>
   <v type="int" >        4       21       22       63       71 </v>
   <v type="int" >        4       21       28       70       71 </v>
   <v type="int" >        4       21       62       70       71 </v>
   <v type="int" >        4       21       62       63       71 </v>
   <v type="int" >        4       22       29       30       72 </v>
   <v type="int" >        4       22       23       30       72 </v>
   <v type="int" >        4       22       23       64       72 </v>
   <v type="int" >        4       22       29       71       72 </v>
   <v type="int" >        4       22       63       71       72 </v>
   <v type="int" >        4       22       63       64       72 </v>
   <v type="int" >        4       23       23       30       73 </v>
   <v type="int" >        4       23       23       24       73 </v>
   <v type="int" >        4       23       24       65       73 </v>
   <v type="int" >        4       23       30       72       73 </v>
   <v type="int" >        4       23       64       72       73 </v>
   <v type="int" >        4       23       64       65       73 </v>
   <v type="int" >        4       14       23       24       74 </v>
   <v type="int" >        4       14       15       24       74 </v>
   <v type="int" >        4       15       24       66       74 </v>
   <v type="int" >        4       23       24       73       74 </v>
   <v type="int" >        4       24       65       73       74 </v>
   <v type="int" >        4       24       65       66       74 </v>
   <v type="int" >        4        4       14       15       40 </v>
   <v type="int" >        4        3        4       15       40 </v>
   <v type="int" >        4        3       15       39       40 </v>
   <v type="int" >        4       14       15       40       74 </v>
   <v type="int" >        4       15       40       66       74 </v>
   <v type="int" >        4       15       39       40       66 </v>
   <v type="int" >        4       25       26       31       75 </v>
   <v type="int" >        4       25       26       68       75 </v>
   <v type="int" >        4       25       67       68       75 </v>
   <v type="int" >        4       26       31       32       76 </v>
   <v type="int" >        4       26       27       32       76 </v>
   <v type="int" >        4       26       27       69       76 </v>
   <v type="int" >        4       26       31       75       76 </v>
   <v type="int" >        4       26       68       75       76 </v>
   <v type="int" >        4       26       68       69       76 </v>
   <v type="int" >        4       27       32       33       77 </v>
   <v type="int" >        4       27       28       33       77 </v>
   <v type="int" >        4       27       28       70       77 </v>
   <v type="int" >        4       27       32       76       77 </v>
   <v type="int" >        4       27       69       76       77 </v>
   <v type="int" >        4       27       69       70       77 </v>
   <v type="int" >        4       28       33       34       78 </v>
   <v type="int" >        4       28       29       34       78 </v>
   <v type="int" >        4       28       29       71       78 </v>
   <v type="int" >        4       28       33       77       78 </v>
   <v type="int" >        4       28       70       77       78 </v>
   <v type="int" >        4       28       70       71       78 </v>
   <v type="int" >        4       29       29       34       79 </v>
   <v type="int" >        4       29       29       30       79 </v>
   <v type="int" >        4       29       30       72       79 </v>
   <v type="int" >        4       29       34       78       79 </v>
   <v type="int" >        4       29       71       78       79 </v>
   <v type="int" >        4       29       71       72       79 </v>
   <v type="int" >        4       22       29       30       80 </v>
   <v type="int" >        4       22       23       30       80 </v>
   <v type="int" >        4       23       30       73       80 </v>
   <v type="int" >        4       29       30       79       80 </v>
   <v type="int" >        4       30       72       79       80 </v>
   <v type="int" >        4       30       72       73       80 </v>
   <v type="int" >        4       13       22       23       81 </v>
   <v type="int" >        4       13       14       23       81 </v>
   <v type="int" >        4       14       23       74       81 </v>
   <v type="int" >        4       22       23       80       81 </v>
   <v type="int" >        4       23       73       80       81 </v>
   <v type="int" >        4       23       73       74       81 </v>
   <v type="int" >        4        5       13       14       41 </v>
   <v type="int" >        4        4        5       14       41 </v>
   <v type="int" >        4        4       14       40       41 </v>
   <v type="int" >        4       13       14       41       81 </v>
   <v type="int" >        4       14       41       74       81 </v>
   <v type="int" >        4       14       40       41       74 </v>
   <v type="int" >        4       31       32       35       82 </v>
   <v type="int" >        4       31       32       76       82 </v>
   <v type="int" >        4       31       75       76       82 </v>
   <v type="int" >        4       32       35       36       83 </v>
   <v type="int" >        4       32       33       36       83 </v>
   <v type="int" >        4       32       33       77       83 </v>
   <v type="int" >        4       32       35       82       83 </v>
   <v type="int" >        4       32       76       82       83 </v>
   <v type="int" >        4       32       76       77       83 </v>
   <v type="int" >        4       33       33       36       84 </v>
   <v type="int" >        4       33       33       34       84 </v>
   <v type="int" >        4       33       34       78       84 </v>
   <v type="int" >        4       33       36       83       84 </v>
   <v type="int" >        4       33       77       83       84 </v>
   <v type="int" >        4       33       77       78       84 </v>
   <v type="int" >        4       28       33       34       85 </v>
   <v type="int" >        4       28       29       34       85 </v>
   <v type="int" >        4       29       34       79       85 </v>
   <v type="int" >        4       33       34       84       85 </v>
   <v type="int" >        4       34       78       84       85 </v>
   <v type="int" >        4       34       78       79       85 </v>
   <v type="int" >        4       21       28       29       86 </v>
   <v type="int" >        4       21       22       29       86 </v>
   <v type="int" >        4       22       29       80       86 </v>
   <v type="int" >        4       28       29       85       86 </v>
   <v type="int" >        4       29       79       85       86 </v>
   <v type="int" >        4       29       79       80       86 </v>
   <v type="int" >        4       12       21       22       87 </v>
   <v type="int" >        4       12       13       22       87 </v>
   <v type="int" >        4       13       22       81       87 </v>
   <v type="int" >        4       21       22       86       87 </v>
   <v type="int" >        4       22       80       86       87 </v>
   <v type="int" >        4       22       80       81       87 </v>
   <v type="int" >        4        6       12       13       42 </v>
   <v type="int" >        4        5        6       13       42 </v>
   <v type="int" >        4        5       13       41       42 </v>
   <v type="int" >        4       12       13       42       87 </v>
   <v type="int" >        4       13       42       81       87 </v>
   <v type="int" >        4       13       41       42       81 </v>
   <v type="int" >        4       35       35       36       88 </v>
   <v type="int" >        4       35       36       83       88 </v>
   <v type="int" >        4       35       82       83       88 </v>
   <v type="int" >        4       32       35       36       89 </v>
   <v type="int" >        4       32       33       36       89 </v>
   <v type="int" >        4       33       36       84       89 </v>
   <v type="int" >        4       35       36       88       89 </v>
   <v type="int" >        4       36       83       88       89 </v>
   <v type="int" >        4       36       83       84       89 </v>
   <v type="int" >        4       27       32       33       90 </v>
   <v type="int" >        4       27       28       33       90 </v>
   <v type="int" >        4       28       33       85       90 </v>
   <v type="int" >        4       32       33       89       90 </v>
   <v type="int" >        4       33       84       89       90 </v>
   <v type="int" >        4       33       84       85       90 </v>
   <v type="int" >        4       20       27       28       91 </v>
   <v type="int" >        4       20       21       28       91 </v>
   <v type="int" >        4       21       28       86       91 </v>
   <v type="int" >        4       27       28       90       91 </v>
   <v type="int" >        4       28       85       90       91 </v>
   <v type="int" >        4       28       85       86       91 </v>
   <v type="int" >        4       11       20       21       92 </v>
   <v type="int" >        4       11       12       21       92 </v>
   <v type="int" >        4       12       21       87       92 </v>
   <v type="int" >        4       20       21       91       92 </v>
   <v type="int" >        4       21       86       91       92 </v>
   <v type="int" >        4       21       86       87       92 </v>
   <v type="int" >        4        6       11       12       43 </v>
   <v type="int" >        4        6        6       12       43 </v>
   <v type="int" >        4        6       12       42       43 </v>
   <v type="int" >        4       11       12       43       92 </v>
   <v type="int" >        4       12       43       87       92 </v>
   <v type="int" >        4       12       42       43       87 </v>
   <v type="int" >        4       31       32       35       93 </v>
   <v type="int" >        4       32       35       89       93 </v>
   <v type="int" >        4       35       88       89       93 </v>
   <v type="int" >        4       26       31       32       94 </v>
   <v type="int" >        4       26       27       32       94 </v>
   <v type="int" >        4       27       32       90       94 </v>
   <v type="int" >        4       31       32       93       94 </v>
   <v type="int" >        4       32       89       93       94 </v>
   <v type="int" >        4       32       89       90       94 </v>
   <v type="int" >        4       19       26       27       95 </v>
   <v type="int" >        4       19       20       27       95 </v>
   <v type="int" >        4       20       27       91       95 </v>
   <v type="int" >        4       26       27       94       95 </v>
   <v type="int" >        4       27       90       94       95 </v>
   <v type="int" >        4       27       90       91       95 </v>
   <v type="int" >        4       10       19       20       96 </v>
   <v type="int" >        4       10       11       20       96 </v>
   <v type="int" >        4       11       20       92       96 </v>
   <v type="int" >        4       19       20       95       96 </v>
   <v type="int" >        4       20       91       95       96 </v>
   <v type="int" >        4       20       91       92       96 </v>
   <v type="int" >        4        5       10       11       44 </v>
   <v type="int" >        4        5        6       11       44 </v>
   <v type="int" >        4        6       11       43       44 </v>
   <v type="int" >        4       10       11       44       96 </v>
   <v type="int" >        4       11       44       92       96 </v>
   <v type="int" >        4       11       43       44       92 </v>
   <v type="int" >        4       25       26       31       97 </v>
   <v type="int" >        4       26       31       94       97 </v>
   <v type="int" >        4       31       93       94       97 </v>
   <v type="int" >        4       18       25       26       98 </v>
   <v type="int" >        4       18       19       26       98 </v>
   <v type="int" >        4       19       26       95       98 </v>
   <v type="int" >        4       25       26       97       98 </v>
   <v type="int" >        4       26       94       97       98 </v>
   <v type="int" >        4       26       94       95       98 </v>
   <v type="int" >        4        9       18       19       99 </v>
   <v type="int" >        4        9       10       19       99 </v>
   <v type="int" >        4       10       19       96       99 </v>
   <v type="int" >        4       18       19       98       99 </v>
   <v type="int" >        4       19       95       98       99 </v>
   <v type="int" >        4       19       95       96       99 </v>
   <v type="int" >        4        4        9       10       45 </v>
   <v type="int" >        4        4        5       10       45 </v>
   <v type="int" >        4        5       10       44       45 </v>
   <v type="int" >        4        9       10       45       99 </v>
   <v type="int" >        4       10       45       96       99 </v>
   <v type="int" >        4       10       44       45       96 </v>
   <v type="int" >        4       17       18       25      100 </v>
   <v type="int" >        4       18       25       98      100 </v>
   <v type="int" >        4       25       97       98      100 </v>
   <v type="int" >        4        8       17       18      101 </v>
   <v type="int" >        4        8        9       18      101 </v>
   <v type="int" >        4        9       18       99      101 </v>
   <v type="int" >        4       17       18      100      101 </v>
   <v type="int" >        4       18       98      100      101 </v>
   <v type="int" >        4       18       98       99      101 </v>
   <v type="int" >        4        3        8        9       46 </v>
   <v type="int" >        4        3        4        9       46 </v>
   <v type="int" >        4        4        9       45       46 </v>
   <v type="int" >        4        8        9       46      101 </v>
   <v type="int" >        4        9       46       99      101 </v>
   <v type="int" >        4        9       45       46       99 </v>
   <v type="int" >        4        7        8       17      102 </v>
   <v type="int" >        4        8       17      101      102 </v>
   <v type="int" >        4       17      100      101      102 </v>
   <v type="int" >        4        2        7        8       47 </v>
   <v type="int" >        4        2        3        8       47 </v>
   <v type="int" >        4        3        8       46       47 </v>
   <v type="int" >        4        7        8       47      102 </v>
   <v type="int" >        4        8       47      101      102 </v>
   <v type="int" >        4        8       46       47      101 </v>
   <v type="int" >        4        1        2        7       37 </v>
   <v type="int" >        4        2        7       37       47 </v>
   <v type="int" >        4        7       37       47      102 </v>
   <v type="int" >        4       37       38       48      114 </v>
   <v type="int" >        4       37       38      104      114 </v>
   <v type="int" >        4       37      103      104      114 </v>
   <v type="int" >        4       38       48       49      115 </v>
   <v type="int" >        4       38       39       49      115 </v>
   <v type="int" >        4       38       39      105      115 </v>
   <v type="int" >        4       38       48      114      115 </v>
   <v type="int" >        4       38      104      114      115 </v>
   <v type="int" >        4       38      104      105      115 </v>
   <v type="int" >        4       39       49       50      116 </v>
   <v type="int" >        4       39       40       50      116 </v>
   <v type="int" >        4       39       40      106      116 </v>
   <v type="int" >        4       39       49      115      116 </v>
   <v type="int" >        4       39      105      115      116 </v>
   <v type="int" >        4       39      105      106      116 </v>
   <v type="int" >        4       40       50       51      117 </v>
   <v type="int" >        4       40       41       51      117 </v>
   <v type="int" >        4       40       41      107      117 </v>
   <v type="int" >        4       40       50      116      117 </v>
   <v type="int" >        4       40      106      116      117 </v>
   <v type="int" >        4       40      106      107      117 </v>
   <v type="int" >        4       41       51       52      118 </v>
   <v type="int" >        4       41       42       52      118 </v>
   <v type="int" >        4       41       42      108      118 </v>
   <v type="int" >        4       41       51      117      118 </v>
   <v type="int" >        4       41      107      117      118 </v>
   <v type="int" >        4       41      107      108      118 </v>
   <v type="int" >        4       42       52       53      119 </v>
   <v type="int" >        4       42       43       53      119 </v>
   <v type="int" >        4       42       43      109      119 </v>
   <v type="int" >        4       42       52      118      119 </v>
   <v type="int" >        4       42      108      118      119 </v>
   <v type="int" >        4       42      108      109      119 </v>
   <v type="int" >        4       43       53       54      120 </v>
   <v type="int" >        4       43       44       54      120 </v>
   <v type="int" >        4       43       44      110      120 </v>
   <v type="int" >        4       43       53      119      120 </v>
   <v type="int" >        4       43      109      119      120 </v>
   <v type="int" >        4       43      109      110      120 </v>
   <v type="int" >        4       44       54       55      121 </v>
   <v type="int" >        4       44       45       55      121 </v>
   <v type="int" >        4       44       45      111      121 </v>
   <v type="int" >        4       44       54      120      121 </v>
   <v type="int" >        4       44      110      120      121 </v>
   <v type="int" >        4       44      110      111      121 </v>
   <v type="int" >        4       45       55       56      122 </v>
   <v type="int" >        4       45       46       56      122 </v>
   <v type="int" >        4       45       46      112      122 </v>
   <v type="int" >        4       45       55      121      122 </v>
   <v type="int" >        4       45      111      121      122 </v>
   <v type="int" >        4       45      111      112      122 </v>
   <v type="int" >        4       46       56       57      123 </v>
   <v type="int" >        4       46       47       57      123 </v>
   <v type="int" >        4       46       47      113      123 </v>
   <v type="int" >        4       46       56      122      123 </v>
   <v type="int" >        4       46      112      122      123 </v>
   <v type="int" >        4       46      112      113      123 </v>
   <v type="int" >        4       38       47       57      104 </v>
   <v type="int" >        4       37       38       47      104 </v>
   <v type="int" >        4       37       47      103      104 </v>
   <v type="int" >        4       47       57      104      123 </v>
   <v type="int" >        4       47      104      113      123 </v>
   <v type="int" >        4       47      103      104      113 </v>
   <v type="int" >        4       48       49       58      124 </v>
   <v type="int" >        4       48       49      115      124 </v>
   <v type="int" >        4       48      114      115      124 </v>
   <v type="int" >        4       49       58       59      125 </v>
   <v type="int" >        4       49       50       59      125 </v>
   <v type="int" >        4       49       50      116      125 </v>
   <v type="int" >        4       49       58      124      125 </v>
   <v type="int" >        4       49      115      124      125 </v>
   <v type="int" >        4       49      115      116      125 </v>
   <v type="int" >        4       50       59       60      126 </v>
   <v type="int" >        4       50       51       60      126 </v>
   <v type="int" >        4       50       51      117      126 </v>
   <v type="int" >        4       50       59      125      126 </v>
   <v type="int" >        4       50      116      125      126 </v>
   <v type="int" >        4       50      116      117      126 </v>
   <v type="int" >        4       51       60       61      127 </v>
   <v type="int" >        4       51       52       61      127 </v>
   <v type="int" >        4       51       52      118      127 </v>
   <v type="int" >        4       51       60      126      127 </v>
   <v type="int" >        4       51      117      126      127 </v>
   <v type="int" >        4       51      117      118      127 </v>
   <v type="int" >        4       52       61       62      128 </v>
   <v type="int" >        4       52       53       62      128 </v>
   <v type="int" >        4       52       53      119      128 </v>
   <v type="int" >        4       52       61      127      128 </v>
   <v type="int" >        4       52      118      127      128 </v>
   <v type="int" >        4       52      118      119      128 </v>
   <v type="int" >        4       53       62       63      129 </v>
   <v type="int" >        4       53       54       63      129 </v>
   <v type="int" >        4       53       54      120      129 </v>
   <v type="int" >        4       53       62      128      129 </v>
   <v type="int" >        4       53      119      128      129 </v>
   <v type="int" >        4       53      119      120      129 </v>
   <v type="int" >        4       54       63       64      130 </v>
   <v type="int" >        4       54       55       64      130 </v>
   <v type="int" >        4       54       55      121      130 </v>
   <v type="int" >        4       54       63      129      130 </v>
   <v type="int" >        4       54      120      129      130 </v>
   <v type="int" >        4       54      120      121      130 </v>
   <v type="int" >        4       55       64       65      131 </v>
   <v type="int" >        4       55       56       65      131 </v>
   <v type="int" >        4       55       56      122      131 </v>
   <v type="int" >        4       55       64      130      131 </v>
   <v type="int" >        4       55      121      130      131 </v>
   <v type="int" >        4       55      121      122      131 </v>
   <v type="int" >        4       56       65       66      132 </v>
   <v type="int" >        4       56       57       66      132 </v>
   <v type="int" >        4       56       57      123      132 </v>
   <v type="int" >        4       56       65      131      132 </v>
   <v type="int" >        4       56      122      131      132 </v>
   <v type="int" >        4       56      122      123      132 </v>
   <v type="int" >        4       39       57       66      105 </v>
   <v type="int" >        4       38       39       57      105 </v>
   <v type="int" >        4       38       57      104      105 </v>
   <v type="int" >        4       57       66      105      132 </v>
   <v type="int" >        4       57      105      123      132 </v>
   <v type="int" >        4       57      104      105      123 </v>
   <v type="int" >        4       58       59       67      133 </v>
   <v type="int" >        4       58       59      125      133 </v>
   <v type="int" >        4       58      124      125      133 </v>
   <v type="int" >        4       59       67       68      134 </v>
   <v type="int" >        4       59       60       68      134 </v>
   <v type="int" >        4       59       60      126      134 </v>
   <v type="int" >        4       59       67      133      134 </v>
   <v type="int" >        4       59      125      133      134 </v>
   <v type="int" >        4       59      125      126      134 </v>
   <v type="int" >        4       60       68       69      135 </v>
   <v type="int" >        4       60       61       69      135 </v>
   <v type="int" >        4       60       61      127      135 </v>
   <v type="int" >        4       60       68      134      135 </v>
   <v type="int" >        4       60      126      134      135 </v>
   <v type="int" >        4       60      126      127      135 </v>
   <v type="int" >        4       61       69       70      136 </v>
   <v type="int" >        4       61       62       70      136 </v>
   <v type="int" >        4       61       62      128      136 </v>
   <v type="int" >        4       61       69      135      136 </v>
   <v type="int" >        4       61      127      135      136 </v>
   <v type="int" >        4       61      127      128      136 </v>
   <v type="int" >        4       62       70       71      137 </v>
   <v type="int" >        4       62       63       71      137 </v>
   <v type="int" >        4       62       63      129      137 </v>
   <v type="int" >        4       62       70      136      137 </v>
   <v type="int" >        4       62      128      136      137 </v>
   <v type="int" >        4       62      128      129      137 </v>
   <v type="int" >        4       63       71       72      138 </v>
   <v type="int" >        4       63       64       72      138 </v>
   <v type="int" >        4       63       64      130      138 </v>
   <v type="int" >        4       63       71      137      138 </v>
   <v type="int" >        4       63      129      137      138 </v>
   <v type="int" >        4       63      129      130      138 </v>
   <v type="int" >        4       64       72       73      139 </v>
   <v type="int" >        4       64       65       73      139 </v>
   <v type="int" >        4       64       65      131      139 </v>
   <v type="int" >        4       64       72      138      139 </v>
   <v type="int" >        4       64      130      138      139 </v>
   <v type="int" >        4       64      130      131      139 </v>
   <v type="int" >        4       65       73       74      140 </v>
   <v type="int" >        4       65       66       74      140 </v>
   <v type="int" >        4       65       66      132      140 </v>
   <v type="int" >        4       65       73      139      140 </v>
   <v type="int" >        4       65      131      139      140 </v>
   <v type="int" >        4       65      131      132      140 </v>
   <v type="int" >        4       40       66       74      106 </v>
   <v type="int" >        4       39       40       66      106 </v>
   <v type="int" >        4       39       66      105      106 </v>
   <v type="int" >        4       66       74      106      140 </v>
   <v type="int" >        4       66      106      132      140 </v>
   <v type="int" >        4       66      105      106      132 </v>
   <v type="int" >        4       67       68       75      141 </v>
   <v type="int" >        4       67       68      134      141 </v>
   <v type="int" >        4       67      133      134      141 </v>
   <v type="int" >        4       68       75       76      142 </v>
   <v type="int" >        4       68       69       76      142 </v>
   <v type="int" >        4       68       69      135      142 </v>
   <v type="int" >        4       68       75      141      142 </v>
   <v type="int" >        4       68      134      141      142 </v>
   <v type="int" >        4       68      134      135      142 </v>
   <v type="int" >        4       69       76       77      143 </v>
   <v type="int" >        4       69       70       77      143 </v>
   <v type="int" >        4       69       70      136      143 </v>
   <v type="int" >        4       69       76      142      143 </v>
   <v type="int" >        4       69      135      142      143 </v>
   <v type="int" >        4       69      135      136      143 </v>
   <v type="int" >        4       70       77       78      144 </v>
   <v type="int" >        4       70       71       78      144 </v>
   <v type="int" >        4       70       71      137      144 </v>
   <v type="int" >        4       70       77      143      144 </v>
   <v type="int" >        4       70      136      143      144 </v>
   <v type="int" >        4       70      136      137      144 </v>
   <v type="int" >        4       71       78       79      145 </v>
   <v type="int" >        4       71       72       79      145 </v>
   <v type="int" >        4       71       72      138      145 </v>
   <v type="int" >        4       71       78      144      145 </v>
   <v type="int" >        4       71      137      144      145 </v>
   <v type="int" >        4       71      137      138      145 </v>
   <v type="int" >        4       72       79       80      146 </v>
   <v type="int" >        4       72       73       80      146 </v>
   <v type="int" >        4       72       73      139      146 </v>
   <v type="int" >        4       72       79      145      146 </v>
   <v type="int" >        4       72      138      145      146 </v>
   <v type="int" >        4       72      138      139      146 </v>
   <v type="int" >        4       73       80       81      147 </v>
   <v type="int" >        4       73       74       81      147 </v>
   <v type="int" >        4       73       74      140      147 </v>
   <v type="int" >        4       73       80      146      147 </v>
   <v type="int" >        4       73      139      146      147 </v>
   <v type="int" >        4       73      139      140      147 </v>
   <v type="int" >        4       41       74       81      107 </v>
   <v type="int" >        4       40       41       74      107 </v>
   <v type="int" >        4       40       74      106      107 </v>
   <v type="int" >        4       74       81      107      147 </v>
   <v type="int" >        4       74      107      140      147 </v>
   <v type="int" >        4       74      106      107      140 </v>
   <v type="int" >        4       75       76       82      148 </v>
   <v type="int" >        4       75       76      142      148 </v>
   <v type="int" >        4       75      141      142      148 </v>
   <v type="int" >        4       76       82       83      149 </v>
   <v type="int" >        4       76       77       83      149 </v>
   <v type="int" >        4       76       77      143      149 </v>
   <v type="int" >        4       76       82      148      149 </v>
   <v type="int" >        4       76      142      148      149 </v>
   <v type="int" >        4       76      142      143      149 </v>
   <v type="int" >        4       77       83       84      150 </v>
   <v type="int" >        4       77       78       84      150 </v>
   <v type="int" >        4       77       78      144      150 </v>
   <v type="int" >        4       77       83      149      150 </v>
   <v type="int" >        4       77      143      149      150 </v>
   <v type="int" >        4       77      143      144      150 </v>
   <v type="int" >        4       78       84       85      151 </v>
   <v type="int" >        4       78       79       85      151 </v>
   <v type="int" >        4       78       79      145      151 </v>
   <v type="int" >        4       78       84      150      151 </v>
   <v type="int" >        4       78      144      150      151 </v>
   <v type="int" >        4       78      144      145      151 </v>
   <v type="int" >        4       79       85       86      152 </v>
   <v type="int" >        4       79       80       86      152 </v>
   <v type="int" >        4       79       80      146      152 </v>
   <v type="int" >        4       79       85      151      152 </v>
   <v type="int" >        4       79      145      151      152 </v>
   <v type="int" >        4       79      145      146      152 </v>
   <v type="int" >        4       80       86       87      153 </v>
   <v type="int" >        4       80       81       87      153 </v>
   <v type="int" >        4       80       81      147      153 </v>
   <v type="int" >        4       80       86      152      153 </v>
   <v type="int" >        4       80      146      152      153 </v>
   <v type="int" >        4       80      146      147      153 </v>
   <v type="int" >        4       42       81       87      108 </v>
   <v type="int" >        4       41       42       81      108 </v>
   <v type="int" >        4       41       81      107      108 </v>
   <v type="int" >        4       81       87      108      153 </v>
   <v type="int" >        4       81      108      147      153 </v>
   <v type="int" >        4       81      107      108      147 </v>
   <v type="int" >        4       82       83       88      154 </v>
   <v type="int" >        4       82       83      149      154 </v>
   <v type="int" >        4       82      148      149      154 </v>
   <v type="int" >        4       83       88       89      155 </v>
   <v type="int" >        4       83       84       89      155 </v>
   <v type="int" >        4       83       84      150      155 </v>
   <v type="int" >        4       83       88      154      155 </v>
   <v type="int" >        4       83      149      154      155 </v>
   <v type="int" >        4       83      149      150      155 </v>
   <v type="int" >        4       84       89       90      156 </v>
   <v type="int" >        4       84       85       90      156 </v>
   <v type="int" >        4       84       85      151      156 </v>
   <v type="int" >        4       84       89      155      156 </v>
   <v type="int" >        4       84      150      155      156 </v>
   <v type="int" >        4       84      150      151      156 </v>
   <v type="int" >        4       85       90       91      157 </v>
   <v type="int" >        4       85       86       91      157 </v>
   <v type="int" >        4       85       86      152      157 </v>
   <v type="int" >        4       85       90      156      157 </v>
   <v type="int" >        4       85      151      156      157 </v>
   <v type="int" >        4       85      151      152      157 </v>
   <v type="int" >        4       86       91       92      158 </v>
   <v type="int" >        4       86       87       92      158 </v>
   <v type="int" >        4       86       87      153      158 </v>
   <v type="int" >        4       86       91      157      158 </v>
   <v type="int" >        4       86      152      157      158 </v>
   <v type="int" >        4       86      152      153      158 </v>
   <v type="int" >        4       43       87       92      109 </v>
   <v type="int" >        4       42       43       87      109 </v>
   <v type="int" >        4       42       87      108      109 </v>
   <v type="int" >        4       87       92      109      158 </v>
   <v type="int" >        4       87      109      153      158 </v>
   <v type="int" >        4       87      108      109      153 </v>
   <v type="int" >        4       88       89       93      159 </v>
   <v type="int" >        4       88       89      155      159 </v>
   <v type="int" >        4       88      154      155      159 </v>
   <v type="int" >        4       89       93       94      160 </v>
   <v type="int" >        4       89       90       94      160 </v>
   <v type="int" >        4       89       90      156      160 </v>
   <v type="int" >        4       89       93      159      160 </v>
   <v type="int" >        4       89      155      159      160 </v>
   <v type="int" >        4       89      155      156      160 </v>
   <v type="int" >        4       90       94       95      161 </v>
   <v type="int" >        4       90       91       95      161 </v>
   <v type="int" >        4       90       91      157      161 </v>
   <v type="int" >        4       90       94      160      161 </v>
   <v type="int" >        4       90      156      160      161 </v>
   <v type="int" >        4       90      156      157      161 </v>
   <v type="int" >        4       91       95       96      162 </v>
   <v type="int" >        4       91       92       96      162 </v>
   <v type="int" >        4       91       92      158      162 </v>
   <v type="int" >        4       91       95      161      162 </v>
   <v type="int" >        4       91      157      161      162 </v>
   <v type="int" >        4       91      157      158      162 </v>
   <v type="int" >        4       44       92       96      110 </v>
   <v type="int" >        4       43       44       92      110 </v>
   <v type="int" >        4       43       92      109      110 </v>
   <v type="int" >        4       92       96      110      162 </v>
   <v type="int" >        4       92      110      158      162 </v>
   <v type="int" >        4       92      109      110      158 </v>
   <v type="int" >        4       93       94       97      163 </v>
   <v type="int" >        4       93       94      160      163 </v>
   <v type="int" >        4       93      159      160      163 </v>
   <v type="int" >        4       94       97       98      164 </v>
   <v type="int" >        4       94       95       98      164 </v>
   <v type="int" >        4       94       95      161      164 </v>
   <v type="int" >        4       94       97      163      164 </v>
   <v type="int" >        4       94      160      163      164 </v>
   <v type="int" >        4       94      160      161      164 </v>
   <v type="int" >        4       95       98       99      165 </v>
   <v type="int" >        4       95       96       99      165 </v>
   <v type="int" >        4       95       96      162      165 </v>
   <v type="int" >        4       95       98      164      165 </v>
   <v type="int" >        4       95      161      164      165 </v>
   <v type="int" >        4       95      161      162      165 </v>
   <v type="int" >        4       45       96       99      111 </v>
   <v type="int" >        4       44       45       96      111 </v>
   <v type="int" >        4       44       96      110      111 </v>
   <v type="int" >        4       96       99      111      165 </v>
   <v type="int" >        4       96      111      162      165 </v>
   <v type="int" >        4       96      110      111      162 </v>
   <v type="int" >        4       97       98      100      166 </v>
   <v type="int" >        4       97       98      164      166 </v>
   <v type="int" >        4       97      163      164      166 </v>
   <v type="int" >        4       98      100      101      167 </v>
   <v type="int" >        4       98       99      101      167 </v>
   <v type="int" >        4       98       99      165      167 </v>
   <v type="int" >        4       98      100      166      167 </v>
   <v type="int" >        4       98      164      166      167 </v>
   <v type="int" >        4       98      164      165      167 </v>
   <v type="int" >        4       46       99      101      112 </v>
   <v type="int" >        4       45       46       99      112 </v>
   <v type="int" >        4       45       99      111      112 </v>
   <v type="int" >        4       99      101      112      167 </v>
   <v type="int" >        4       99      112      165      167 </v>
   <v type="int" >        4       99      111      112      165 </v>
   <v type="int" >        4      100      101      102      168 </v>
   <v type="int" >        4      100      101      167      168 </v>
   <v type="int" >        4      100      166      167      168 </v>
   <v type="int" >        4       47      101      102      113 </v>
   <v type="int" >        4       46       47      101      113 </v>
   <v type="int" >        4       46      101      112      113 </v>
   <v type="int" >        4      101      102      113      168 </v>
   <v type="int" >        4      101      113      167      168 </v>
   <v type="int" >        4      101      112      113      167 </v>
   <v type="int" >        4       37       47      102      103 </v>
   <v type="int" >        4       47      102      103      113 </v>
   <v type="int" >        4      102      103      113      168 </v>
   <v type="int" >        4      103      104      114      180 </v>
   <v type="int" >        4      103      104      170      180 </v>
   <v type="int" >        4      103      169      170      180 </v>
   <v type="int" >        4      104      114      115      181 </v>
   <v type="int" >        4      104      105      115      181 </v>
   <v type="int" >        4      104      105      171      181 </v>
   <v type="int" >        4      104      114      180      181 </v>
   <v type="int" >        4      104      170      180      181 </v>
   <v type="int" >        4      104      170      171      181 </v>
   <v type="int" >        4      105      115      116      182 </v>
   <v type="int" >        4      105      106      116      182 </v>
   <v type="int" >        4      105      106      172      182 </v>
   <v type="int" >        4      105      115      181      182 </v>
   <v type="int" >        4      105      171      181      182 </v>
   <v type="int" >        4      105      171      172      182 </v>
   <v type="int" >        4      106      116      117      183 </v>
   <v type="int" >        4      106      107      117      183 </v>
   <v type="int" >        4      106      107      173      183 </v>
   <v type="int" >        4      106      116      182      183 </v>
   <v type="int" >        4      106      172      182      183 </v>
   <v type="int" >        4      106      172      173      183 </v>
   <v type="int" >        4      107      117      118      184 </v>
   <v type="int" >        4      107      108      118      184 </v>
   <v type="int" >        4      107      108      174      184 </v>
   <v type="int" >        4      107      117      183      184 </v>
   <v type="int" >        4      107      173      183      184 </v>
   <v type="int" >        4      107      173      174      184 </v>
   <v type="int" >        4      108      118      119      185 </v>
   <v type="int" >        4      108      109      119      185 </v>
   <v type="int" >        4      108      109      175      185 </v>
   <v type="int" >        4      108      118      184      185 </v>
   <v type="int" >        4      108      174      184      185 </v>
   <v type="int" >        4      108      174      175      185 </v>
   <v type="int" >        4      109      119      120      186 </v>
   <v type="int" >        4      109      110      120      186 </v>
   <v type="int" >        4      109      110      176      186 </v>
   <v type="int" >        4      109      119      185      186 </v>
   <v type="int" >        4      109      175      185      186 </v>
   <v type="int" >        4      109      175      176      186 </v>
   <v type="int" >        4      110      120      121      187 </v>
   <v type="int" >        4      110      111      121      187 </v>
   <v type="int" >        4      110      111      177      187 </v>
   <v type="int" >        4      110      120      186      187 </v>
   <v type="int" >        4      110      176      186      187 </v>
   <v type="int" >        4      110      176      177      187 </v>
   <v type="int" >        4      111      121      122      188 </v>
   <v type="int" >        4      111      112      122      188 </v>
   <v type="int" >        4      111      112      178      188 </v>
   <v type="int" >        4      111      121      187      188 </v>
   <v type="int" >        4      111      177      187      188 </v>
   <v type="int" >        4      111      177      178      188 </v>
   <v type="int" >        4      112      122      123      189 </v>
   <v type="int" >        4      112      113      123      189 </v>
   <v type="int" >        4      112      113      179      189 </v>
   <v type="int" >        4      112      122      188      189 </v>
   <v type="int" >        4      112      178      188      189 </v>
   <v type="int" >        4      112      178      179      189 </v>
   <v type="int" >        4      104      113      123      170 </v>
   <v type="int" >        4      103      104      113      170 </v>
   <v type="int" >        4      103      113      169      170 </v>
   <v type="int" >        4      113      123      170      189 </v>
   <v type="int" >        4      113      170      179      189 </v>
   <v type="int" >        4      113      169      170      179 </v>
   <v type="int" >        4      114      115      124      190 </v>
   <v type="int" >        4      114      115      181      190 </v>
   <v type="int" >        4      114      180      181      190 </v>
   <v type="int" >        4      115      124      125      191 </v>
   <v type="int" >        4      115      116      125      191 </v>
   <v type="int" >        4      115      116      182      191 </v>
   <v type="int" >        4      115      124      190      191 </v>
   <v type="int" >        4      115      181      190      191 </v>
   <v type="int" >        4      115      181      182      191 </v>
   <v type="int" >        4      116      125      126      192 </v>
   <v type="int" >        4      116      117      126      192 </v>
   <v type="int" >        4      116      117      183      192 </v>
[...]
        <r>  0.0000  0.0000  0.0000  0.0000  0.0000  0.0000  0.0000  0.0000  0.0000 </r>
       </set>
       <set comment="band 2">
        <r>  0.0000  0.0000  0.0000  0.0000  0.0000  0.0000  0.0000  0.0000  0.0000 </r>
        <r>  0.1467  0.0026  0.0609  0.0000  0.0000  0.0000  0.0000  0.0000  0.0000 </r>
        <r>  0.1467  0.0026  0.0609  0.0000  0.0000  0.0000  0.0000  0.0000  0.0000 </r>
        <r>  0.5328  0.0000  0.0000  0.0000  0.0000  0.0000  0.0000  0.0000  0.0000 </r>
       </set>
       <set comment="band 3">
        <r>  0.0008  0.0000  0.0000  0.0000  0.0000  0.0000  0.0000  0.0000  0.0000 </r>
        <r>  0.2451  0.0029  0.0626  0.0000  0.0000  0.0000  0.0000  0.0000  0.0000 </r>
        <r>  0.2451  0.0029  0.0626  0.0000  0.0000  0.0000  0.0000  0.0000  0.0000 </r>
        <r>  0.0000  0.0162  0.3893  0.0000  0.0000  0.0000  0.0000  0.0000  0.0000 </r>
       </set>
       <set comment="band 4">
        <r>  0.0062  0.0002  0.0009  0.0000  0.0000  0.0000  0.0000  0.0000  0.0000 </r>
        <r>  0.0361  0.0573  0.0797  0.0000  0.0000  0.0000  0.0000  0.0000  0.0000 </r>
        <r>  0.0361  0.0573  0.0797  0.0000  0.0000  0.0000  0.0000  0.0000  0.0000 </r>
        <r>  0.0266  0.2646  0.0041  0.0000  0.0000  0.0000  0.0000  0.0000  0.0000 </r>
       </set>
       <set comment="band 5">
        <r>  0.0055  0.0016  0.0000  0.0000  0.0000  0.0000  0.0000  0.0000  0.0000 </r>
        <r>  0.0639  0.0782  0.0692  0.0000  0.0000  0.0000  0.0000  0.0000  0.0000 </r>
        <r>  0.0639  0.0782  0.0692  0.0000  0.0000  0.0000  0.0000  0.0000  0.0000 </r>
        <r>  0.0158  0.1286  0.0971  0.0000  0.0000  0.0000  0.0000  0.0000  0.0000 </r>
       </set>
       <set comment="band 6">
        <r>  0.0000  0.0000  0.0000  0.0001  0.0000  0.0000  0.0000  0.0000  0.0000 </r>
        <r>  0.0000  0.0000  0.0000  0.1328  0.0000  0.0000  0.0000  0.0000  0.0000 </r>
        <r>  0.0000  0.0000  0.0000  0.1328  0.0000  0.0000  0.0000  0.0000  0.0000 </r>
        <r>  0.0000  0.0000  0.0000  0.4422  0.0000  0.0000  0.0000  0.0000  0.0000 </r>
       </set>
       <set comment="band 7">
        <r>  0.0032  0.0004  0.0025  0.0000  0.0000  0.0000  0.0000  0.0000  0.0000 </r>
        <r>  0.1380  0.0015  0.1436  0.0000  0.0000  0.0000  0.0000  0.0000  0.0000 </r>
        <r>  0.1380  0.0015  0.1436  0.0000  0.0000  0.0000  0.0000  0.0000  0.0000 </r>
        <r>  0.0724  0.0104  0.0432  0.0000  0.0000  0.0000  0.0000  0.0000  0.0000 </r>
       </set>
       <set comment="band 8">
        <r>  0.0030  0.0025  0.0004  0.0000  0.0000  0.0000  0.0000  0.0000  0.0000 </r>
        <r>  0.0034  0.2961  0.0156  0.0000  0.0000  0.0000  0.0000  0.0000  0.0000 </r>
        <r>  0.0034  0.2961  0.0156  0.0000  0.0000  0.0000  0.0000  0.0000  0.0000 </r>
        <r>  0.0000  0.0028  0.0002  0.0000  0.0000  0.0000  0.0000  0.0000  0.0000 </r>
       </set>
       <set comment="band 9">
        <r>  0.0000  0.0000  0.0000  0.0047  0.0000  0.0000  0.0000  0.0000  0.0000 </r>
        <r>  0.0000  0.0000  0.0000  0.3260  0.0000  0.0000  0.0000  0.0000  0.0000 </r>
        <r>  0.0000  0.0000  0.0000  0.3260  0.0000  0.0000  0.0000  0.0000  0.0000 </r>
        <r>  0.0000  0.0000  0.0000  0.0004  0.0000  0.0000  0.0000  0.0000  0.0000 </r>
       </set>
       <set comment="band 10">
        <r>  0.0024  0.0037  0.0164  0.0000  0.0000  0.0000  0.0000  0.0000  0.0000 </r>
        <r>  0.0059  0.1183  0.0045  0.0000  0.0000  0.0000  0.0000  0.0000  0.0000 </r>
        <r>  0.0059  0.1183  0.0045  0.0000  0.0000  0.0000  0.0000  0.0000  0.0000 </r>
        <r>  0.0008  0.2717  0.0095  0.0000  0.0000  0.0000  0.0000  0.0000  0.0000 </r>
       </set>
       <set comment="band 11">
        <r>  0.0000  0.0000  0.0000  0.0052  0.0000  0.0000  0.0000  0.0000  0.0000 </r>
        <r>  0.0000  0.0000  0.0000  0.1925  0.0000  0.0000  0.0000  0.0000  0.0000 </r>
        <r>  0.0000  0.0000  0.0000  0.1925  0.0000  0.0000  0.0000  0.0000  0.0000 </r>
        <r>  0.0000  0.0000  0.0000  0.2767  0.0000  0.0000  0.0000  0.0000  0.0000 </r>
       </set>
       <set comment="band 12">
        <r>  0.0008  0.0049  0.0185  0.0000  0.0000  0.0000  0.0000  0.0000  0.0000 </r>
        <r>  0.0439  0.0569  0.0129  0.0000  0.0000  0.0000  0.0000  0.0000  0.0000 </r>
        <r>  0.0439  0.0569  0.0129  0.0000  0.0000  0.0000  0.0000  0.0000  0.0000 </r>
        <r>  0.0032  0.0024  0.0004  0.0000  0.0000  0.0000  0.0000  0.0000  0.0000 </r>
       </set>
       <set comment="band 13">
        <r>  0.0786  0.0218  0.0005  0.0000  0.0000  0.0000  0.0000  0.0000  0.0000 </r>
        <r>  0.0846  0.0108  0.0482  0.0000  0.0000  0.0000  0.0000  0.0000  0.0000 </r>
        <r>  0.0846  0.0108  0.0482  0.0000  0.0000  0.0000  0.0000  0.0000  0.0000 </r>
        <r>  0.0165  0.0019  0.0086  0.0000  0.0000  0.0000  0.0000  0.0000  0.0000 </r>
       </set>
       <set comment="band 14">
        <r>  0.0010  0.0095  0.0224  0.0000  0.0000  0.0000  0.0000  0.0000  0.0000 </r>
        <r>  0.0139  0.0170  0.1590  0.0000  0.0000  0.0000  0.0000  0.0000  0.0000 </r>
        <r>  0.0139  0.0170  0.1590  0.0000  0.0000  0.0000  0.0000  0.0000  0.0000 </r>
        <r>  0.0916  0.0020  0.0002  0.0000  0.0000  0.0000  0.0000  0.0000  0.0000 </r>
       </set>
       <set comment="band 15">
        <r>  0.0372  0.1057  0.0000  0.0000  0.0000  0.0000  0.0000  0.0000  0.0000 </r>
        <r>  0.0003  0.0352  0.0025  0.0000  0.0000  0.0000  0.0000  0.0000  0.0000 </r>
        <r>  0.0003  0.0352  0.0025  0.0000  0.0000  0.0000  0.0000  0.0000  0.0000 </r>
        <r>  0.0000  0.0000  0.0123  0.0000  0.0000  0.0000  0.0000  0.0000  0.0000 </r>
       </set>
       <set comment="band 16">
        <r>  0.0000  0.0000  0.0000  0.3148  0.0000  0.0000  0.0000  0.0000  0.0000 </r>
        <r>  0.0000  0.0000  0.0000  0.0306  0.0000  0.0000  0.0000  0.0000  0.0000 </r>
        <r>  0.0000  0.0000  0.0000  0.0306  0.0000  0.0000  0.0000  0.0000  0.0000 </r>
        <r>  0.0000  0.0000  0.0000  0.0016  0.0000  0.0000  0.0000  0.0000  0.0000 </r>
       </set>
      </set>
      <set comment="kpoint 233">
       <set comment="band 1">
        <r>  0.9891  0.0000  0.0000  0.0000  0.0000  0.0000  0.0000  0.0000  0.0000 </r>
        <r>  0.0000  0.0000  0.0000  0.0000  0.0000  0.0000  0.0000  0.0000  0.0000 </r>
        <r>  0.0000  0.0000  0.0000  0.0000  0.0000  0.0000  0.0000  0.0000  0.0000 </r>
        <r>  0.0000  0.0000  0.0000  0.0000  0.0000  0.0000  0.0000  0.0000  0.0000 </r>
       </set>
       <set comment="band 2">
        <r>  0.0000  0.0000  0.0000  0.0000  0.0000  0.0000  0.0000  0.0000  0.0000 </r>
        <r>  0.1465  0.0026  0.0608  0.0000  0.0000  0.0000  0.0000  0.0000  0.0000 </r>
        <r>  0.1465  0.0026  0.0608  0.0000  0.0000  0.0000  0.0000  0.0000  0.0000 </r>
        <r>  0.5319  0.0000  0.0000  0.0000  0.0000  0.0000  0.0000  0.0000  0.0000 </r>
       </set>
       <set comment="band 3">
        <r>  0.0009  0.0000  0.0000  0.0000  0.0000  0.0000  0.0000  0.0000  0.0000 </r>
        <r>  0.2451  0.0029  0.0623  0.0000  0.0000  0.0000  0.0000  0.0000  0.0000 </r>
        <r>  0.2451  0.0029  0.0623  0.0000  0.0000  0.0000  0.0000  0.0000  0.0000 </r>
        <r>  0.0000  0.0160  0.3885  0.0000  0.0000  0.0000  0.0000  0.0000  0.0000 </r>
       </set>
       <set comment="band 4">
        <r>  0.0059  0.0001  0.0009  0.0002  0.0000  0.0000  0.0000  0.0000  0.0000 </r>
        <r>  0.0295  0.0451  0.0827  0.0140  0.0000  0.0000  0.0000  0.0000  0.0000 </r>
        <r>  0.0295  0.0451  0.0827  0.0140  0.0000  0.0000  0.0000  0.0000  0.0000 </r>
        <r>  0.0181  0.2348  0.0085  0.0441  0.0000  0.0000  0.0000  0.0000  0.0000 </r>
       </set>
       <set comment="band 5">
        <r>  0.0052  0.0002  0.0001  0.0000  0.0000  0.0000  0.0000  0.0000  0.0000 </r>
        <r>  0.0187  0.0040  0.0526  0.0910  0.0000  0.0000  0.0000  0.0000  0.0000 </r>
        <r>  0.0187  0.0040  0.0526  0.0910  0.0000  0.0000  0.0000  0.0000  0.0000 </r>
        <r>  0.0000  0.0002  0.0411  0.3039  0.0000  0.0000  0.0000  0.0000  0.0000 </r>
       </set>
       <set comment="band 6">
        <r>  0.0043  0.0009  0.0000  0.0001  0.0000  0.0000  0.0000  0.0000  0.0000 </r>
        <r>  0.0251  0.0851  0.0409  0.0254  0.0000  0.0000  0.0000  0.0000  0.0000 </r>
        <r>  0.0251  0.0851  0.0409  0.0254  0.0000  0.0000  0.0000  0.0000  0.0000 </r>
        <r>  0.0006  0.1588  0.0895  0.0834  0.0000  0.0000  0.0000  0.0000  0.0000 </r>
       </set>
       <set comment="band 7">
        <r>  0.0007  0.0001  0.0027  0.0001  0.0000  0.0000  0.0000  0.0000  0.0000 </r>
        <r>  0.1627  0.0045  0.1157  0.0020  0.0000  0.0000  0.0000  0.0000  0.0000 </r>
        <r>  0.1627  0.0045  0.1157  0.0020  0.0000  0.0000  0.0000  0.0000  0.0000 </r>
        <r>  0.0972  0.0220  0.0064  0.0066  0.0000  0.0000  0.0000  0.0000  0.0000 </r>
       </set>
       <set comment="band 8">
        <r>  0.0026  0.0025  0.0000  0.0007  0.0000  0.0000  0.0000  0.0000  0.0000 </r>
        <r>  0.0031  0.2344  0.0125  0.0680  0.0000  0.0000  0.0000  0.0000  0.0000 </r>
        <r>  0.0031  0.2344  0.0125  0.0680  0.0000  0.0000  0.0000  0.0000  0.0000 </r>
        <r>  0.0000  0.0016  0.0003  0.0001  0.0000  0.0000  0.0000  0.0000  0.0000 </r>
       </set>
       <set comment="band 9">
        <r>  0.0000  0.0008  0.0000  0.0031  0.0000  0.0000  0.0000  0.0000  0.0000 </r>
        <r>  0.0000  0.0693  0.0022  0.2563  0.0000  0.0000  0.0000  0.0000  0.0000 </r>
        <r>  0.0000  0.0693  0.0022  0.2563  0.0000  0.0000  0.0000  0.0000  0.0000 </r>
        <r>  0.0001  0.0006  0.0001  0.0002  0.0000  0.0000  0.0000  0.0000  0.0000 </r>
       </set>
       <set comment="band 10">
        <r>  0.0003  0.0005  0.0156  0.0031  0.0000  0.0000  0.0000  0.0000  0.0000 </r>
        <r>  0.0070  0.1006  0.0032  0.0220  0.0000  0.0000  0.0000  0.0000  0.0000 </r>
        <r>  0.0070  0.1006  0.0032  0.0220  0.0000  0.0000  0.0000  0.0000  0.0000 </r>
        <r>  0.0011  0.2170  0.0065  0.0530  0.0000  0.0000  0.0000  0.0000  0.0000 </r>
       </set>
       <set comment="band 11">
        <r>  0.0005  0.0038  0.0000  0.0013  0.0000  0.0000  0.0000  0.0000  0.0000 </r>
        <r>  0.0001  0.0361  0.0019  0.1523  0.0000  0.0000  0.0000  0.0000  0.0000 </r>
        <r>  0.0001  0.0361  0.0019  0.1523  0.0000  0.0000  0.0000  0.0000  0.0000 </r>
        <r>  0.0001  0.0479  0.0020  0.2234  0.0000  0.0000  0.0000  0.0000  0.0000 </r>
       </set>
       <set comment="band 12">
        <r>  0.0004  0.0017  0.0175  0.0016  0.0000  0.0000  0.0000  0.0000  0.0000 </r>
        <r>  0.0452  0.0460  0.0126  0.0151  0.0000  0.0000  0.0000  0.0000  0.0000 </r>
        <r>  0.0452  0.0460  0.0126  0.0151  0.0000  0.0000  0.0000  0.0000  0.0000 </r>
        <r>  0.0036  0.0050  0.0001  0.0011  0.0000  0.0000  0.0000  0.0000  0.0000 </r>
       </set>
       <set comment="band 13">
        <r>  0.0887  0.0117  0.0001  0.0049  0.0000  0.0000  0.0000  0.0000  0.0000 </r>
        <r>  0.0874  0.0094  0.0471  0.0050  0.0000  0.0000  0.0000  0.0000  0.0000 </r>
        <r>  0.0874  0.0094  0.0471  0.0050  0.0000  0.0000  0.0000  0.0000  0.0000 </r>
        <r>  0.0029  0.0020  0.0065  0.0003  0.0000  0.0000  0.0000  0.0000  0.0000 </r>
       </set>
       <set comment="band 14">
        <r>  0.0008  0.0099  0.0231  0.0012  0.0000  0.0000  0.0000  0.0000  0.0000 </r>
        <r>  0.0125  0.0087  0.1649  0.0065  0.0000  0.0000  0.0000  0.0000  0.0000 </r>
        <r>  0.0125  0.0087  0.1649  0.0065  0.0000  0.0000  0.0000  0.0000  0.0000 </r>
        <r>  0.0998  0.0014  0.0005  0.0023  0.0000  0.0000  0.0000  0.0000  0.0000 </r>
       </set>
       <set comment="band 15">
        <r>  0.0245  0.0785  0.0013  0.0506  0.0000  0.0000  0.0000  0.0000  0.0000 </r>
        <r>  0.0001  0.0115  0.0009  0.0100  0.0000  0.0000  0.0000  0.0000  0.0000 </r>
        <r>  0.0001  0.0115  0.0009  0.0100  0.0000  0.0000  0.0000  0.0000  0.0000 </r>
        <r>  0.0006  0.0000  0.0119  0.0000  0.0000  0.0000  0.0000  0.0000  0.0000 </r>
       </set>
       <set comment="band 16">
        <r>  0.0001  0.0848  0.0004  0.2097  0.0000  0.0000  0.0000  0.0000  0.0000 </r>
        <r>  0.0004  0.0159  0.0025  0.0093  0.0000  0.0000  0.0000  0.0000  0.0000 </r>
        <r>  0.0004  0.0159  0.0025  0.0093  0.0000  0.0000  0.0000  0.0000  0.0000 </r>
        <r>  0.0002  0.0005  0.0061  0.0004  0.0000  0.0000  0.0000  0.0000  0.0000 </r>
       </set>
      </set>
      <set comment="kpoint 234">
       <set comment="band 1">
        <r>  0.9891  0.0000  0.0000  0.0000  0.0000  0.0000  0.0000  0.0000  0.0000 </r>
        <r>  0.0000  0.0000  0.0000  0.0000  0.0000  0.0000  0.0000  0.0000  0.0000 </r>
        <r>  0.0000  0.0000  0.0000  0.0000  0.0000  0.0000  0.0000  0.0000  0.0000 </r>
        <r>  0.0000  0.0000  0.0000  0.0000  0.0000  0.0000  0.0000  0.0000  0.0000 </r>
       </set>
       <set comment="band 2">
        <r>  0.0000  0.0000  0.0000  0.0000  0.0000  0.0000  0.0000  0.0000  0.0000 </r>
        <r>  0.1462  0.0026  0.0605  0.0000  0.0000  0.0000  0.0000  0.0000  0.0000 </r>
        <r>  0.1462  0.0026  0.0605  0.0000  0.0000  0.0000  0.0000  0.0000  0.0000 </r>
        <r>  0.5302  0.0000  0.0000  0.0000  0.0000  0.0000  0.0000  0.0000  0.0000 </r>
       </set>
       <set comment="band 3">
        <r>  0.0010  0.0000  0.0000  0.0000  0.0000  0.0000  0.0000  0.0000  0.0000 </r>
        <r>  0.2450  0.0029  0.0618  0.0000  0.0000  0.0000  0.0000  0.0000  0.0000 </r>
        <r>  0.2450  0.0029  0.0618  0.0000  0.0000  0.0000  0.0000  0.0000  0.0000 </r>
        <r>  0.0000  0.0158  0.3871  0.0000  0.0000  0.0000  0.0000  0.0000  0.0000 </r>
       </set>
       <set comment="band 4">
        <r>  0.0130  0.0002  0.0001  0.0000  0.0000  0.0000  0.0000  0.0000  0.0000 </r>
        <r>  0.0355  0.0188  0.1464  0.0000  0.0000  0.0000  0.0000  0.0000  0.0000 </r>
        <r>  0.0355  0.0188  0.1464  0.0000  0.0000  0.0000  0.0000  0.0000  0.0000 </r>
        <r>  0.0016  0.1820  0.0476  0.0000  0.0000  0.0000  0.0000  0.0000  0.0000 </r>
       </set>
       <set comment="band 5">
        <r>  0.0030  0.0003  0.0027  0.0000  0.0000  0.0000  0.0000  0.0000  0.0000 </r>
        <r>  0.0994  0.0519  0.0837  0.0000  0.0000  0.0000  0.0000  0.0000  0.0000 </r>
        <r>  0.0994  0.0519  0.0837  0.0000  0.0000  0.0000  0.0000  0.0000  0.0000 </r>
        <r>  0.0666  0.0908  0.0524  0.0000  0.0000  0.0000  0.0000  0.0000  0.0000 </r>
       </set>
       <set comment="band 6">
        <r>  0.0000  0.0000  0.0000  0.0001  0.0000  0.0000  0.0000  0.0000  0.0000 </r>
        <r>  0.0000  0.0000  0.0000  0.1337  0.0000  0.0000  0.0000  0.0000  0.0000 </r>
        <r>  0.0000  0.0000  0.0000  0.1337  0.0000  0.0000  0.0000  0.0000  0.0000 </r>
        <r>  0.0000  0.0000  0.0000  0.4459  0.0000  0.0000  0.0000  0.0000  0.0000 </r>
       </set>
       <set comment="band 7">
        <r>  0.0018  0.0001  0.0012  0.0000  0.0000  0.0000  0.0000  0.0000  0.0000 </r>
        <r>  0.0971  0.0693  0.0618  0.0000  0.0000  0.0000  0.0000  0.0000  0.0000 </r>
        <r>  0.0971  0.0693  0.0618  0.0000  0.0000  0.0000  0.0000  0.0000  0.0000 </r>
        <r>  0.0493  0.1543  0.0472  0.0000  0.0000  0.0000  0.0000  0.0000  0.0000 </r>
       </set>
       <set comment="band 8">
        <r>  0.0010  0.0040  0.0000  0.0000  0.0000  0.0000  0.0000  0.0000  0.0000 </r>
        <r>  0.0015  0.3097  0.0122  0.0000  0.0000  0.0000  0.0000  0.0000  0.0000 </r>
        <r>  0.0015  0.3097  0.0122  0.0000  0.0000  0.0000  0.0000  0.0000  0.0000 </r>
        <r>  0.0001  0.0015  0.0000  0.0000  0.0000  0.0000  0.0000  0.0000  0.0000 </r>
       </set>
       <set comment="band 9">
        <r>  0.0000  0.0000  0.0000  0.0037  0.0000  0.0000  0.0000  0.0000  0.0000 </r>
        <r>  0.0000  0.0000  0.0000  0.3327  0.0000  0.0000  0.0000  0.0000  0.0000 </r>
        <r>  0.0000  0.0000  0.0000  0.3327  0.0000  0.0000  0.0000  0.0000  0.0000 </r>
        <r>  0.0000  0.0000  0.0000  0.0001  0.0000  0.0000  0.0000  0.0000  0.0000 </r>
       </set>
       <set comment="band 10">
        <r>  0.0001  0.0002  0.0137  0.0000  0.0000  0.0000  0.0000  0.0000  0.0000 </r>
        <r>  0.0133  0.1219  0.0058  0.0000  0.0000  0.0000  0.0000  0.0000  0.0000 </r>
        <r>  0.0133  0.1219  0.0058  0.0000  0.0000  0.0000  0.0000  0.0000  0.0000 </r>
        <r>  0.0016  0.2325  0.0069  0.0000  0.0000  0.0000  0.0000  0.0000  0.0000 </r>
       </set>
       <set comment="band 11">
        <r>  0.0000  0.0000  0.0000  0.0027  0.0000  0.0000  0.0000  0.0000  0.0000 </r>
        <r>  0.0000  0.0000  0.0000  0.1941  0.0000  0.0000  0.0000  0.0000  0.0000 </r>
        <r>  0.0000  0.0000  0.0000  0.1941  0.0000  0.0000  0.0000  0.0000  0.0000 </r>
        <r>  0.0000  0.0000  0.0000  0.2759  0.0000  0.0000  0.0000  0.0000  0.0000 </r>
       </set>
       <set comment="band 12">
        <r>  0.0007  0.0018  0.0156  0.0000  0.0000  0.0000  0.0000  0.0000  0.0000 </r>
        <r>  0.0432  0.0700  0.0106  0.0000  0.0000  0.0000  0.0000  0.0000  0.0000 </r>
        <r>  0.0432  0.0700  0.0106  0.0000  0.0000  0.0000  0.0000  0.0000  0.0000 </r>
        <r>  0.0042  0.0342  0.0006  0.0000  0.0000  0.0000  0.0000  0.0000  0.0000 </r>
       </set>
       <set comment="band 13">
        <r>  0.0925  0.0061  0.0026  0.0000  0.0000  0.0000  0.0000  0.0000  0.0000 </r>
        <r>  0.0903  0.0069  0.0477  0.0000  0.0000  0.0000  0.0000  0.0000  0.0000 </r>
        <r>  0.0903  0.0069  0.0477  0.0000  0.0000  0.0000  0.0000  0.0000  0.0000 </r>
        <r>  0.0003  0.0030  0.0032  0.0000  0.0000  0.0000  0.0000  0.0000  0.0000 </r>
       </set>
       <set comment="band 14">
        <r>  0.0056  0.0112  0.0273  0.0000  0.0000  0.0000  0.0000  0.0000  0.0000 </r>
        <r>  0.0120  0.0036  0.1759  0.0000  0.0000  0.0000  0.0000  0.0000  0.0000 </r>
        <r>  0.0120  0.0036  0.1759  0.0000  0.0000  0.0000  0.0000  0.0000  0.0000 </r>
        <r>  0.0947  0.0013  0.0010  0.0000  0.0000  0.0000  0.0000  0.0000  0.0000 </r>
       </set>
       <set comment="band 15">
        <r>  0.0046  0.1890  0.0057  0.0000  0.0000  0.0000  0.0000  0.0000  0.0000 </r>
        <r>  0.0017  0.0124  0.0005  0.0000  0.0000  0.0000  0.0000  0.0000  0.0000 </r>
        <r>  0.0017  0.0124  0.0005  0.0000  0.0000  0.0000  0.0000  0.0000  0.0000 </r>
        <r>  0.0000  0.0000  0.0231  0.0000  0.0000  0.0000  0.0000  0.0000  0.0000 </r>
       </set>
       <set comment="band 16">
        <r>  0.0000  0.0000  0.0000  0.2845  0.0000  0.0000  0.0000  0.0000  0.0000 </r>
        <r>  0.0000  0.0000  0.0000  0.0125  0.0000  0.0000  0.0000  0.0000  0.0000 </r>
        <r>  0.0000  0.0000  0.0000  0.0125  0.0000  0.0000  0.0000  0.0000  0.0000 </r>
        <r>  0.0000  0.0000  0.0000  0.0006  0.0000  0.0000  0.0000  0.0000  0.0000 </r>
       </set>
      </set>
     </set>
    </set>
   </array>
  </projected>
 </calculation>
 <structure name="finalpos" >
  <crystal>
   <varray name="basis" >
    <v>       1.67679201       2.84155193       0.00037473 </v>
    <v>      -1.67679201       2.84155193       0.00037473 </v>
    <v>       0.00000000       1.48096738       4.76350719 </v>
   </varray>
   <i name="volume">     45.39142403 </i>
   <varray name="rec_basis" >
    <v>       0.29818844       0.17596740      -0.05470801 </v>
    <v>      -0.29818844       0.17596740      -0.05470801 </v>
    <v>       0.00000000      -0.00002769       0.20993796 </v>
   </varray>
  </crystal>
  <varray name="positions" >
   <v>      -0.00000000      -0.00000000      -0.00000000 </v>
   <v>       0.60587641       0.60587641       0.25653348 </v>
   <v>       0.39412359       0.39412359       0.74346652 </v>
   <v>       0.50000000       0.50000000       0.50000000 </v>
  </varray>
 </structure>
</modeling>
