unknown system                          
           1
     1.677025    2.842534    0.000000
    -1.677025    2.842534    0.000000
     0.000000    1.480851    4.763721
   Li   N 
   1   3
Direct configuration=     1
   0.00000000  0.00000000  0.00000000
   0.60581100  0.60581100  0.25670700
   0.39418900  0.39418900  0.74329300
   0.50000000  0.50000000  0.50000000
unknown system                          
           1
     1.676532    2.840455    0.000793
    -1.676532    2.840455    0.000793
     0.000000    1.481097    4.763268
   Li   N 
   1   3
Direct configuration=     2
  -0.00000000 -0.00000000  0.00000000
   0.60594962  0.60594962  0.25633961
   0.39405038  0.39405038  0.74366039
   0.50000000  0.50000000  0.50000000
unknown system                          
           1
     1.676792    2.841552    0.000375
    -1.676792    2.841552    0.000375
     0.000000    1.480967    4.763507
   Li   N 
   1   3
Direct configuration=     3
  -0.00000000 -0.00000000 -0.00000000
   0.60587641  0.60587641  0.25653348
   0.39412359  0.39412359  0.74346652
   0.50000000  0.50000000  0.50000000
