    4    4    1    2
  0.1158142E+02  0.3366373E-09  0.3300365E-09  0.4988583E-09  0.5000000E-15
  1.000000000000000E-004
  CAR 
 unknown system                          
     18    424     14
 
  0.0000000E+00  0.0000000E+00  0.0000000E+00  0.1180638E-02
    1      -43.488880    -43.488622   1.000000   1.000000
    2      -21.836564    -21.836561   1.000000   1.000000
    3      -17.477217    -17.477219   1.000000   1.000000
    4       -6.810951     -6.810948   1.000000   1.000000
    5       -5.308283     -5.308281   1.000000   1.000000
    6       -5.225954     -5.225947   1.000000   1.000000
    7       -3.751284     -3.751283   1.000000   1.000000
    8        0.470961      0.470957   1.000000   1.000000
    9        0.566081      0.566080   1.000000   1.000000
   10        6.146792      6.146769   0.000000   0.000000
   11        6.158271      6.158271   0.000000   0.000000
   12        6.518681      6.518684   0.000000   0.000000
   13        9.895754      9.895717   0.000000   0.000000
   14       11.380303     11.378611   0.000000   0.000000
 
  0.9090909E-01 -0.4398719E-17  0.9131470E-18  0.2361275E-02
    1      -43.488521    -43.488263   1.000000   1.000000
    2      -21.822508    -21.822504   1.000000   1.000000
    3      -17.469533    -17.469535   1.000000   1.000000
    4       -6.775352     -6.775350   1.000000   1.000000
    5       -5.404508     -5.404505   1.000000   1.000000
    6       -5.246021     -5.246013   1.000000   1.000000
    7       -3.757348     -3.757347   1.000000   1.000000
    8        0.352499      0.352495   1.000000   1.000000
    9        0.502856      0.502854   1.000000   1.000000
   10        6.018072      6.018073   0.000000   0.000000
   11        6.291746      6.291747   0.000000   0.000000
   12        6.632371      6.632368   0.000000   0.000000
   13       10.092496     10.092451   0.000000   0.000000
   14       11.420698     11.418963   0.000000   0.000000
 
  0.1818182E+00 -0.2886819E-16 -0.2028293E-16  0.2361275E-02
    1      -43.487559    -43.487301   1.000000   1.000000
    2      -21.784733    -21.784730   1.000000   1.000000
    3      -17.448921    -17.448923   1.000000   1.000000
    4       -6.681507     -6.681505   1.000000   1.000000
    5       -5.649241     -5.649239   1.000000   1.000000
    6       -5.294334     -5.294327   1.000000   1.000000
    7       -3.776259     -3.776258   1.000000   1.000000
    8        0.001655      0.001651   1.000000   1.000000
    9        0.386871      0.386868   1.000000   1.000000
   10        5.786591      5.786593   0.000000   0.000000
   11        6.298846      6.298847   0.000000   0.000000
   12        7.166752      7.166396   0.000000   0.000000
   13       10.604881     10.604767   0.000000   0.000000
   14       11.521135     11.520552   0.000000   0.000000
 
  0.2727273E+00  0.3857875E-16  0.7944733E-16  0.2361275E-02
    1      -43.486322    -43.486064   1.000000   1.000000
    2      -21.734492    -21.734490   1.000000   1.000000
    3      -17.421826    -17.421828   1.000000   1.000000
    4       -6.580793     -6.580791   1.000000   1.000000
    5       -5.913000     -5.912997   1.000000   1.000000
    6       -5.355338     -5.355331   1.000000   1.000000
    7       -3.810627     -3.810626   1.000000   1.000000
    8       -0.432087     -0.432093   1.000000   1.000000
    9        0.249581      0.249576   1.000000   1.000000
   10        5.416106      5.416107   0.000000   0.000000
   11        6.330878      6.330880   0.000000   0.000000
   12        7.881791      7.881080   0.000000   0.000000
   13       11.153736     11.151717   0.000000   0.000000
   14       11.650108     11.646097   0.000000   0.000000
 
  0.3636364E+00  0.3967735E-17  0.6714511E-16  0.2361275E-02
    1      -43.485207    -43.484948   1.000000   1.000000
    2      -21.687652    -21.687650   1.000000   1.000000
    3      -17.396902    -17.396904   1.000000   1.000000
    4       -6.580479     -6.580477   1.000000   1.000000
    5       -6.026546     -6.026543   1.000000   1.000000
    6       -5.410409     -5.410401   1.000000   1.000000
    7       -3.857997     -3.857995   1.000000   1.000000
    8       -0.800931     -0.800937   1.000000   1.000000
    9        0.129415      0.129410   1.000000   1.000000
   10        5.062427      5.062428   0.000000   0.000000
   11        6.362502      6.362505   0.000000   0.000000
   12        8.458012      8.457986   0.000000   0.000000
   13       11.406562     11.406204   0.000000   0.000000
   14       11.639098     11.637588   0.000000   0.000000
 
  0.4545455E+00  0.9710556E-17  0.4396176E-16  0.2361275E-02
    1      -43.484540    -43.484281   1.000000   1.000000
    2      -21.659430    -21.659426   1.000000   1.000000
    3      -17.381999    -17.382001   1.000000   1.000000
    4       -6.653280     -6.653278   1.000000   1.000000
    5       -6.002499     -6.002498   1.000000   1.000000
    6       -5.442930     -5.442922   1.000000   1.000000
    7       -3.897235     -3.897233   1.000000   1.000000
    8       -1.007443     -1.007450   1.000000   1.000000
    9        0.060622      0.060617   1.000000   1.000000
   10        4.851523      4.851525   0.000000   0.000000
   11        6.378849      6.378851   0.000000   0.000000
   12        8.707920      8.707911   0.000000   0.000000
   13       11.452960     11.453001   0.000000   0.000000
   14       11.737635     11.737680   0.000000   0.000000
 
  0.1415405E-17  0.9090909E-01 -0.2775529E-16  0.2361275E-02
    1      -43.488476    -43.488218   1.000000   1.000000
    2      -21.821168    -21.821165   1.000000   1.000000
    3      -17.468755    -17.468757   1.000000   1.000000
    4       -6.773159     -6.773156   1.000000   1.000000
    5       -5.378592     -5.378587   1.000000   1.000000
    6       -5.278585     -5.278580   1.000000   1.000000
    7       -3.756871     -3.756870   1.000000   1.000000
    8        0.402784      0.402779   1.000000   1.000000
    9        0.443133      0.443132   1.000000   1.000000
   10        6.032090      6.032093   0.000000   0.000000
   11        6.274520      6.274521   0.000000   0.000000
   12        6.639097      6.639088   0.000000   0.000000
   13       10.096977     10.096930   0.000000   0.000000
   14       11.421173     11.417103   0.000000   0.000000
 
  0.9090909E-01  0.9090909E-01 -0.2485488E-16  0.2361275E-02
    1      -43.488455    -43.488196   1.000000   1.000000
    2      -21.819931    -21.819928   1.000000   1.000000
    3      -17.470702    -17.470704   1.000000   1.000000
    4       -6.754761     -6.754758   1.000000   1.000000
    5       -5.353659     -5.353656   1.000000   1.000000
    6       -5.315353     -5.315347   1.000000   1.000000
    7       -3.780669     -3.780668   1.000000   1.000000
    8        0.316720      0.316715   1.000000   1.000000
    9        0.553819      0.553819   1.000000   1.000000
   10        5.972141      5.972144   0.000000   0.000000
   11        6.423774      6.423776   0.000000   0.000000
   12        6.594154      6.594139   0.000000   0.000000
   13       10.047107     10.047064   0.000000   0.000000
   14       11.352467     11.351284   0.000000   0.000000
 
  0.1818182E+00  0.9090909E-01 -0.2457185E-16  0.2361275E-02
    1      -43.487793    -43.487535   1.000000   1.000000
    2      -21.792948    -21.792944   1.000000   1.000000
    3      -17.458290    -17.458292   1.000000   1.000000
    4       -6.671425     -6.671423   1.000000   1.000000
    5       -5.550697     -5.550694   1.000000   1.000000
    6       -5.333319     -5.333312   1.000000   1.000000
    7       -3.816203     -3.816202   1.000000   1.000000
    8        0.081214      0.081209   1.000000   1.000000
    9        0.487100      0.487099   1.000000   1.000000
   10        5.888158      5.888161   0.000000   0.000000
   11        6.308622      6.308624   0.000000   0.000000
   12        7.028066      7.027983   0.000000   0.000000
   13       10.371856     10.371752   0.000000   0.000000
   14       11.374261     11.374241   0.000000   0.000000
 
  0.2727273E+00  0.9090909E-01 -0.9118496E-17  0.2361275E-02
    1      -43.486685    -43.486427   1.000000   1.000000
    2      -21.748295    -21.748293   1.000000   1.000000
    3      -17.435408    -17.435410   1.000000   1.000000
    4       -6.554358     -6.554356   1.000000   1.000000
    5       -5.812068     -5.812066   1.000000   1.000000
    6       -5.391071     -5.391063   1.000000   1.000000
    7       -3.861042     -3.861041   1.000000   1.000000
    8       -0.263985     -0.263990   1.000000   1.000000
    9        0.327549      0.327547   1.000000   1.000000
   10        5.596062      5.596063   0.000000   0.000000
   11        6.284133      6.284136   0.000000   0.000000
   12        7.698008      7.697369   0.000000   0.000000
   13       10.879193     10.878432   0.000000   0.000000
   14       11.503459     11.503775   0.000000   0.000000
 
  0.3636364E+00  0.9090909E-01  0.1459860E-16  0.2361275E-02
    1      -43.485510    -43.485252   1.000000   1.000000
    2      -21.699693    -21.699691   1.000000   1.000000
    3      -17.409305    -17.409307   1.000000   1.000000
    4       -6.496844     -6.496842   1.000000   1.000000
    5       -5.991644     -5.991642   1.000000   1.000000
    6       -5.455927     -5.455920   1.000000   1.000000
    7       -3.912311     -3.912309   1.000000   1.000000
    8       -0.619857     -0.619863   1.000000   1.000000
    9        0.157450      0.157446   1.000000   1.000000
   10        5.219979      5.219979   0.000000   0.000000
   11        6.288812      6.288814   0.000000   0.000000
   12        8.412337      8.412288   0.000000   0.000000
   13       11.190346     11.187903   0.000000   0.000000
   14       11.652093     11.646812   0.000000   0.000000
 
  0.4545455E+00  0.9090909E-01 -0.8584746E-17  0.2361275E-02
    1      -43.484620    -43.484361   1.000000   1.000000
    2      -21.662776    -21.662773   1.000000   1.000000
    3      -17.388210    -17.388212   1.000000   1.000000
    4       -6.572328     -6.572325   1.000000   1.000000
    5       -5.992759     -5.992757   1.000000   1.000000
    6       -5.498664     -5.498657   1.000000   1.000000
    7       -3.953601     -3.953599   1.000000   1.000000
    8       -0.881973     -0.881980   1.000000   1.000000
    9        0.028373      0.028368   1.000000   1.000000
   10        4.930952      4.930953   0.000000   0.000000
   11        6.279979      6.279982   0.000000   0.000000
   12        8.873614      8.873604   0.000000   0.000000
   13       11.405608     11.405530   0.000000   0.000000
   14       11.634969     11.634407   0.000000   0.000000
 
 -0.4545455E+00  0.9090909E-01  0.2656594E-17  0.2361275E-02
    1      -43.484291    -43.484032   1.000000   1.000000
    2      -21.649817    -21.649813   1.000000   1.000000
    3      -17.378790    -17.378792   1.000000   1.000000
    4       -6.635265     -6.635263   1.000000   1.000000
    5       -5.965092     -5.965091   1.000000   1.000000
    6       -5.509301     -5.509294   1.000000   1.000000
    7       -3.951443     -3.951441   1.000000   1.000000
    8       -0.984990     -0.984997   1.000000   1.000000
    9       -0.028659     -0.028665   1.000000   1.000000
   10        4.825769      4.825770   0.000000   0.000000
   11        6.262743      6.262744   0.000000   0.000000
   12        9.007572      9.007563   0.000000   0.000000
   13       11.480544     11.480350   0.000000   0.000000
   14       11.751461     11.751603   0.000000   0.000000
 
 -0.3636364E+00  0.9090909E-01  0.6772468E-16  0.2361275E-02
    1      -43.484651    -43.484392   1.000000   1.000000
    2      -21.665323    -21.665321   1.000000   1.000000
    3      -17.384255    -17.384257   1.000000   1.000000
    4       -6.617022     -6.617018   1.000000   1.000000
    5       -5.974017     -5.974015   1.000000   1.000000
    6       -5.494378     -5.494370   1.000000   1.000000
    7       -3.894229     -3.894227   1.000000   1.000000
    8       -0.904728     -0.904734   1.000000   1.000000
    9        0.000321      0.000316   1.000000   1.000000
   10        4.932489      4.932490   0.000000   0.000000
   11        6.244339      6.244340   0.000000   0.000000
   12        8.882374      8.882358   0.000000   0.000000
   13       11.472785     11.472943   0.000000   0.000000
   14       11.746334     11.745941   0.000000   0.000000
 
 -0.2727273E+00  0.9090909E-01  0.2104267E-16  0.2361275E-02
    1      -43.485553    -43.485295   1.000000   1.000000
    2      -21.703823    -21.703818   1.000000   1.000000
    3      -17.402804    -17.402806   1.000000   1.000000
    4       -6.588891     -6.588888   1.000000   1.000000
    5       -5.938339     -5.938336   1.000000   1.000000
    6       -5.448664     -5.448656   1.000000   1.000000
    7       -3.819752     -3.819751   1.000000   1.000000
    8       -0.649731     -0.649737   1.000000   1.000000
    9        0.106034      0.106029   1.000000   1.000000
   10        5.213132      5.213133   0.000000   0.000000
   11        6.222715      6.222716   0.000000   0.000000
   12        8.418857      8.418633   0.000000   0.000000
   13       11.434318     11.432084   0.000000   0.000000
   14       11.763931     11.762518   0.000000   0.000000
 
 -0.1818182E+00  0.9090909E-01  0.5501077E-16  0.2361275E-02
    1      -43.486737    -43.486478   1.000000   1.000000
    2      -21.752587    -21.752587   1.000000   1.000000
    3      -17.428468    -17.428470   1.000000   1.000000
    4       -6.641758     -6.641756   1.000000   1.000000
    5       -5.767363     -5.767360   1.000000   1.000000
    6       -5.377347     -5.377340   1.000000   1.000000
    7       -3.768698     -3.768696   1.000000   1.000000
    8       -0.271024     -0.271028   1.000000   1.000000
    9        0.250156      0.250151   1.000000   1.000000
   10        5.581330      5.581331   0.000000   0.000000
   11        6.193727      6.193728   0.000000   0.000000
   12        7.705675      7.704923   0.000000   0.000000
   13       11.037290     11.036951   0.000000   0.000000
   14       11.750452     11.752406   0.000000   0.000000
 
 -0.9090909E-01  0.9090909E-01  0.2650617E-16  0.2361275E-02
    1      -43.487832    -43.487573   1.000000   1.000000
    2      -21.796238    -21.796234   1.000000   1.000000
    3      -17.453074    -17.453075   1.000000   1.000000
    4       -6.726108     -6.726106   1.000000   1.000000
    5       -5.541658     -5.541654   1.000000   1.000000
    6       -5.306796     -5.306789   1.000000   1.000000
    7       -3.750274     -3.750273   1.000000   1.000000
    8        0.131975      0.131973   1.000000   1.000000
    9        0.372069      0.372063   1.000000   1.000000
   10        5.926282      5.926283   0.000000   0.000000
   11        6.165062      6.165062   0.000000   0.000000
   12        7.035204      7.035093   0.000000   0.000000
   13       10.482540     10.482441   0.000000   0.000000
   14       11.566703     11.567251   0.000000   0.000000
 
  0.9040521E-18  0.1818182E+00 -0.5711780E-16  0.2361275E-02
    1      -43.487407    -43.487149   1.000000   1.000000
    2      -21.779504    -21.779500   1.000000   1.000000
    3      -17.446135    -17.446137   1.000000   1.000000
    4       -6.673871     -6.673868   1.000000   1.000000
    5       -5.619298     -5.619292   1.000000   1.000000
    6       -5.346666     -5.346662   1.000000   1.000000
    7       -3.774505     -3.774504   1.000000   1.000000
    8        0.040381      0.040377   1.000000   1.000000
    9        0.314284      0.314280   1.000000   1.000000
   10        5.805013      5.805016   0.000000   0.000000
   11        6.274138      6.274139   0.000000   0.000000
   12        7.178625      7.178424   0.000000   0.000000
   13       10.622958     10.622684   0.000000   0.000000
   14       11.511892     11.512164   0.000000   0.000000
 
  0.9090909E-01  0.1818182E+00 -0.7900860E-16  0.2361275E-02
    1      -43.487674    -43.487415   1.000000   1.000000
    2      -21.789144    -21.789140   1.000000   1.000000
    3      -17.456258    -17.456260   1.000000   1.000000
    4       -6.666093     -6.666091   1.000000   1.000000
    5       -5.530949     -5.530942   1.000000   1.000000
    6       -5.368517     -5.368514   1.000000   1.000000
    7       -3.814612     -3.814610   1.000000   1.000000
    8        0.082932      0.082926   1.000000   1.000000
    9        0.461513      0.461512   1.000000   1.000000
   10        5.894033      5.894036   0.000000   0.000000
   11        6.305831      6.305832   0.000000   0.000000
   12        7.031922      7.031799   0.000000   0.000000
   13       10.388291     10.388227   0.000000   0.000000
   14       11.364989     11.363854   0.000000   0.000000
 
  0.1818182E+00  0.1818182E+00 -0.6272287E-19  0.2361275E-02
    1      -43.487336    -43.487077   1.000000   1.000000
    2      -21.774846    -21.774843   1.000000   1.000000
    3      -17.453707    -17.453709   1.000000   1.000000
    4       -6.601448     -6.601446   1.000000   1.000000
    5       -5.583979     -5.583973   1.000000   1.000000
    6       -5.417362     -5.417358   1.000000   1.000000
    7       -3.874556     -3.874555   1.000000   1.000000
    8       -0.090231     -0.090237   1.000000   1.000000
    9        0.544864      0.544864   1.000000   1.000000
   10        5.919553      5.919555   0.000000   0.000000
   11        6.171958      6.171959   0.000000   0.000000
   12        7.271816      7.271627   0.000000   0.000000
   13       10.440571     10.440549   0.000000   0.000000
   14       11.348157     11.347783   0.000000   0.000000
 
  0.2727273E+00  0.1818182E+00 -0.4101203E-17  0.2361275E-02
    1      -43.486537    -43.486279   1.000000   1.000000
    2      -21.740977    -21.740976   1.000000   1.000000
    3      -17.439361    -17.439362   1.000000   1.000000
    4       -6.500259     -6.500257   1.000000   1.000000
    5       -5.745988     -5.745983   1.000000   1.000000
    6       -5.480710     -5.480704   1.000000   1.000000
    7       -3.946162     -3.946161   1.000000   1.000000
    8       -0.342969     -0.342976   1.000000   1.000000
    9        0.462771      0.462770   1.000000   1.000000
   10        5.737534      5.737535   0.000000   0.000000
   11        6.088781      6.088783   0.000000   0.000000
   12        7.799881      7.799337   0.000000   0.000000
   13       10.696052     10.696039   0.000000   0.000000
   14       11.509028     11.509995   0.000000   0.000000
 
  0.3636364E+00  0.1818182E+00  0.1696620E-16  0.2361275E-02
    1      -43.485499    -43.485241   1.000000   1.000000
    2      -21.697754    -21.697750   1.000000   1.000000
    3      -17.417645    -17.417647   1.000000   1.000000
    4       -6.427569     -6.427567   1.000000   1.000000
    5       -5.880332     -5.880329   1.000000   1.000000
    6       -5.569367     -5.569360   1.000000   1.000000
    7       -4.023905     -4.023904   1.000000   1.000000
    8       -0.591121     -0.591127   1.000000   1.000000
    9        0.256638      0.256636   1.000000   1.000000
   10        5.382513      5.382512   0.000000   0.000000
   11        6.071080      6.071082   0.000000   0.000000
   12        8.549574      8.549627   0.000000   0.000000
   13       10.909068     10.907323   0.000000   0.000000
   14       11.811982     11.779323   0.000000   0.000000
 
  0.4545455E+00  0.1818182E+00  0.1031033E-16  0.2361275E-02
    1      -43.484540    -43.484281   1.000000   1.000000
    2      -21.658812    -21.658809   1.000000   1.000000
    3      -17.395435    -17.395437   1.000000   1.000000
    4       -6.452237     -6.452233   1.000000   1.000000
    5       -5.934363     -5.934360   1.000000   1.000000
    6       -5.611255     -5.611249   1.000000   1.000000
    7       -4.091433     -4.091431   1.000000   1.000000
    8       -0.770258     -0.770265   1.000000   1.000000
    9        0.013533      0.013530   1.000000   1.000000
   10        5.055499      5.055498   0.000000   0.000000
   11        6.040289      6.040288   0.000000   0.000000
   12        9.279856      9.279848   0.000000   0.000000
   13       11.097736     11.097753   0.000000   0.000000
   14       11.719464     11.719536   0.000000   0.000000
 
 -0.4545455E+00  0.1818182E+00 -0.5017228E-16  0.2361275E-02
    1      -43.483991    -43.483732   1.000000   1.000000
    2      -21.637019    -21.637015   1.000000   1.000000
    3      -17.379656    -17.379658   1.000000   1.000000
    4       -6.519114     -6.519111   1.000000   1.000000
    5       -5.954485     -5.954482   1.000000   1.000000
    6       -5.599696     -5.599691   1.000000   1.000000
    7       -4.106452     -4.106451   1.000000   1.000000
    8       -0.849446     -0.849453   1.000000   1.000000
    9       -0.178990     -0.178994   1.000000   1.000000
   10        4.863500      4.863499   0.000000   0.000000
   11        6.018505      6.018504   0.000000   0.000000
   12        9.642231      9.642142   0.000000   0.000000
   13       11.384226     11.384825   0.000000   0.000000
   14       11.748045     11.738059   0.000000   0.000000
 
 -0.3636364E+00  0.1818182E+00  0.2448439E-16  0.2361275E-02
    1      -43.484033    -43.483774   1.000000   1.000000
    2      -21.639638    -21.639634   1.000000   1.000000
    3      -17.375513    -17.375514   1.000000   1.000000
    4       -6.561071     -6.561068   1.000000   1.000000
    5       -5.924804     -5.924800   1.000000   1.000000
    6       -5.623723     -5.623718   1.000000   1.000000
    7       -4.034047     -4.034046   1.000000   1.000000
    8       -0.838437     -0.838443   1.000000   1.000000
    9       -0.244098     -0.244103   1.000000   1.000000
   10        4.855658      4.855658   0.000000   0.000000
   11        6.024405      6.024406   0.000000   0.000000
   12        9.608525      9.608232   0.000000   0.000000
   13       11.408688     11.407200   0.000000   0.000000
   14       11.879786     11.888590   0.000000   0.000000
 
 -0.2727273E+00  0.1818182E+00  0.4738190E-17  0.2361275E-02
    1      -43.484619    -43.484360   1.000000   1.000000
    2      -21.665672    -21.665669   1.000000   1.000000
    3      -17.384359    -17.384361   1.000000   1.000000
    4       -6.573642     -6.573639   1.000000   1.000000
    5       -5.862027     -5.862025   1.000000   1.000000
    6       -5.646185     -5.646178   1.000000   1.000000
    7       -3.911480     -3.911479   1.000000   1.000000
    8       -0.745221     -0.745226   1.000000   1.000000
    9       -0.153890     -0.153895   1.000000   1.000000
   10        5.020702      5.020703   0.000000   0.000000
   11        6.056851      6.056850   0.000000   0.000000
   12        9.184785      9.184748   0.000000   0.000000
   13       11.411800     11.408917   0.000000   0.000000
   14       11.991945     11.993382   0.000000   0.000000
 
 -0.1818182E+00  0.1818182E+00 -0.4339360E-17  0.2361275E-02
    1      -43.485583    -43.485325   1.000000   1.000000
    2      -21.706416    -21.706412   1.000000   1.000000
    3      -17.403398    -17.403400   1.000000   1.000000
    4       -6.591815     -6.591813   1.000000   1.000000
    5       -5.826645     -5.826641   1.000000   1.000000
    6       -5.549113     -5.549106   1.000000   1.000000
    7       -3.811307     -3.811307   1.000000   1.000000
    8       -0.543622     -0.543627   1.000000   1.000000
    9        0.027502      0.027496   1.000000   1.000000
   10        5.297938      5.297939   0.000000   0.000000
   11        6.104613      6.104613   0.000000   0.000000
   12        8.457537      8.456120   0.000000   0.000000
   13       11.544232     11.478178   0.000000   0.000000
   14       12.062032     12.016109   0.000000   0.000000
 
 -0.9090909E-01  0.1818182E+00  0.3766447E-16  0.2361275E-02
    1      -43.486621    -43.486363   1.000000   1.000000
    2      -21.748793    -21.748793   1.000000   1.000000
    3      -17.426435    -17.426437   1.000000   1.000000
    4       -6.636309     -6.636307   1.000000   1.000000
    5       -5.743997     -5.743992   1.000000   1.000000
    6       -5.416437     -5.416432   1.000000   1.000000
    7       -3.767733     -3.767732   1.000000   1.000000
    8       -0.245806     -0.245809   1.000000   1.000000
    9        0.200247      0.200242   1.000000   1.000000
   10        5.595571      5.595573   0.000000   0.000000
   11        6.171860      6.171859   0.000000   0.000000
   12        7.710695      7.709886   0.000000   0.000000
   13       11.045673     11.045534   0.000000   0.000000
   14       11.756805     11.756008   0.000000   0.000000
 
  0.2605831E-16  0.2727273E+00 -0.6702077E-16  0.2361275E-02
    1      -43.486016    -43.485757   1.000000   1.000000
    2      -21.724095    -21.724094   1.000000   1.000000
    3      -17.416390    -17.416392   1.000000   1.000000
    4       -6.570149     -6.570146   1.000000   1.000000
    5       -5.884118     -5.884113   1.000000   1.000000
    6       -5.419185     -5.419181   1.000000   1.000000
    7       -3.807851     -3.807849   1.000000   1.000000
    8       -0.410984     -0.410989   1.000000   1.000000
    9        0.164685      0.164681   1.000000   1.000000
   10        5.431409      5.431412   0.000000   0.000000
   11        6.296966      6.296967   0.000000   0.000000
   12        7.884787      7.884334   0.000000   0.000000
   13       11.184486     11.184661   0.000000   0.000000
   14       11.645624     11.638462   0.000000   0.000000
 
  0.9090909E-01  0.2727273E+00 -0.4330367E-16  0.2361275E-02
    1      -43.486417    -43.486159   1.000000   1.000000
    2      -21.739365    -21.739364   1.000000   1.000000
    3      -17.430761    -17.430763   1.000000   1.000000
    4       -6.546039     -6.546037   1.000000   1.000000
    5       -5.799327     -5.799321   1.000000   1.000000
    6       -5.431873     -5.431870   1.000000   1.000000
    7       -3.857504     -3.857503   1.000000   1.000000
    8       -0.277650     -0.277655   1.000000   1.000000
    9        0.288044      0.288042   1.000000   1.000000
   10        5.599794      5.599797   0.000000   0.000000
   11        6.274243      6.274244   0.000000   0.000000
   12        7.706911      7.706286   0.000000   0.000000
   13       10.924339     10.923686   0.000000   0.000000
   14       11.465661     11.466229   0.000000   0.000000
 
  0.1818182E+00  0.2727273E+00 -0.6648702E-16  0.2361275E-02
    1      -43.486376    -43.486118   1.000000   1.000000
    2      -21.735775    -21.735774   1.000000   1.000000
    3      -17.436694    -17.436696   1.000000   1.000000
    4       -6.498227     -6.498224   1.000000   1.000000
    5       -5.754224     -5.754217   1.000000   1.000000
    6       -5.483938     -5.483936   1.000000   1.000000
    7       -3.943680     -3.943679   1.000000   1.000000
    8       -0.369419     -0.369425   1.000000   1.000000
    9        0.460799      0.460798   1.000000   1.000000
   10        5.722793      5.722795   0.000000   0.000000
   11        6.103448      6.103447   0.000000   0.000000
   12        7.807509      7.807009   0.000000   0.000000
   13       10.721532     10.721523   0.000000   0.000000
   14       11.479668     11.480391   0.000000   0.000000
 
  0.2727273E+00  0.2727273E+00 -0.2889214E-16  0.2361275E-02
    1      -43.485907    -43.485649   1.000000   1.000000
    2      -21.714576    -21.714575   1.000000   1.000000
    3      -17.432497    -17.432499   1.000000   1.000000
    4       -6.445087     -6.445084   1.000000   1.000000
    5       -5.783957     -5.783953   1.000000   1.000000
    6       -5.526086     -5.526083   1.000000   1.000000
    7       -4.050055     -4.050054   1.000000   1.000000
    8       -0.573246     -0.573251   1.000000   1.000000
    9        0.542320      0.542319   1.000000   1.000000
   10        5.781718      5.781719   0.000000   0.000000
   11        5.850388      5.850386   0.000000   0.000000
   12        8.121273      8.120854   0.000000   0.000000
   13       10.632672     10.633091   0.000000   0.000000
   14       11.696976     11.694387   0.000000   0.000000
 
  0.3636364E+00  0.2727273E+00 -0.6598557E-16  0.2361275E-02
    1      -43.485164    -43.484906   1.000000   1.000000
    2      -21.682144    -21.682144   1.000000   1.000000
    3      -17.419475    -17.419477   1.000000   1.000000
    4       -6.428587     -6.428583   1.000000   1.000000
    5       -5.766182     -5.766178   1.000000   1.000000
    6       -5.620090     -5.620085   1.000000   1.000000
    7       -4.166192     -4.166191   1.000000   1.000000
    8       -0.767329     -0.767334   1.000000   1.000000
    9        0.449557      0.449557   1.000000   1.000000
   10        5.519974      5.519972   0.000000   0.000000
   11        5.799480      5.799480   0.000000   0.000000
   12        8.694012      8.693615   0.000000   0.000000
   13       10.677346     10.677800   0.000000   0.000000
   14       12.005056     12.029004   0.000000   0.000000
 
  0.4545455E+00  0.2727273E+00 -0.2305901E-16  0.2361275E-02
    1      -43.484339    -43.484080   1.000000   1.000000
    2      -21.648681    -21.648680   1.000000   1.000000
    3      -17.401558    -17.401560   1.000000   1.000000
    4       -6.429904     -6.429900   1.000000   1.000000
    5       -5.842168     -5.842164   1.000000   1.000000
    6       -5.612894     -5.612891   1.000000   1.000000
    7       -4.273766     -4.273766   1.000000   1.000000
    8       -0.876406     -0.876411   1.000000   1.000000
    9        0.205852      0.205851   1.000000   1.000000
   10        5.209353      5.209350   0.000000   0.000000
   11        5.763360      5.763359   0.000000   0.000000
   12        9.513879      9.513670   0.000000   0.000000
   13       10.795059     10.795388   0.000000   0.000000
   14       12.489931     12.353544   0.000000   0.000000
 