       N       E                     dE             d eps       ncg     rms          rms(c)
DAV:   1     0.875675394528E+02    0.87568E+02   -0.83986E+03 23768   0.118E+03
DAV:   2    -0.228267025353E+02   -0.11039E+03   -0.10691E+03 31216   0.268E+02
DAV:   3    -0.284329604570E+02   -0.56063E+01   -0.55836E+01 32792   0.661E+01
DAV:   4    -0.286630113650E+02   -0.23005E+00   -0.22991E+00 36548   0.112E+01
DAV:   5    -0.286658825783E+02   -0.28712E-02   -0.28709E-02 32786   0.133E+00    0.128E+01
RMM:   6    -0.275069467550E+02    0.11589E+01   -0.38883E+00 25677   0.137E+01    0.588E+00
RMM:   7    -0.274540347761E+02    0.52912E-01   -0.68846E-01 30714   0.759E+00    0.338E+00
RMM:   8    -0.274391557795E+02    0.14879E-01   -0.28258E-01 34045   0.423E+00    0.167E+00
RMM:   9    -0.274526033727E+02   -0.13448E-01   -0.75869E-02 36558   0.233E+00    0.643E-01
RMM:  10    -0.274536410792E+02   -0.10377E-02   -0.24409E-02 38472   0.124E+00    0.151E-01
RMM:  11    -0.274551036836E+02   -0.14626E-02   -0.10180E-02 41010   0.705E-01    0.898E-02
RMM:  12    -0.274557842623E+02   -0.68058E-03   -0.47260E-03 43424   0.442E-01    0.531E-02
RMM:  13    -0.274560344861E+02   -0.25022E-03   -0.19886E-03 42838   0.284E-01    0.192E-02
RMM:  14    -0.274561534605E+02   -0.11897E-03   -0.93817E-04 41875   0.199E-01    0.146E-02
RMM:  15    -0.274562065984E+02   -0.53138E-04   -0.43596E-04 39176   0.129E-01    0.869E-03
RMM:  16    -0.274562300953E+02   -0.23497E-04   -0.20166E-04 35904   0.901E-02    0.226E-03
RMM:  17    -0.274562416824E+02   -0.11587E-04   -0.92885E-05 31231   0.670E-02    0.224E-03
RMM:  18    -0.274562460339E+02   -0.43515E-05   -0.42827E-05 27856   0.542E-02
   1 F= -.27456246E+02 E0= -.27456246E+02  d E =0.000000E+00  mag=     0.0000
