 running on    8 total cores
 distrk:  each k-point on    8 cores,    1 groups
 distr:  one band on    1 cores,    8 groups
 using from now: INCAR     
 vasp.6.1.2 22Jul20 (build Mar 20 2021 11:25:07) complex                        
  
 POSCAR found type information on POSCAR LiO 
 POSCAR found :  2 types and       3 ions
 scaLAPACK will be used
 -----------------------------------------------------------------------------
|                                                                             |
|           W    W    AA    RRRRR   N    N  II  N    N   GGGG   !!!           |
|           W    W   A  A   R    R  NN   N  II  NN   N  G    G  !!!           |
|           W    W  A    A  R    R  N N  N  II  N N  N  G       !!!           |
|           W WW W  AAAAAA  RRRRR   N  N N  II  N  N N  G  GGG   !            |
|           WW  WW  A    A  R   R   N   NN  II  N   NN  G    G                |
|           W    W  A    A  R    R  N    N  II  N    N   GGGG   !!!           |
|                                                                             |
|     The value NCORE = 6 specified in the INCAR file was overwritten,        |
|     because it was not compatible with the 8 processes available:           |
|     NCORE = 1                                                               |
|     was used instead, please check that this makes sense for your           |
|     machine.                                                                |
|                                                                             |
 -----------------------------------------------------------------------------

 -----------------------------------------------------------------------------
|                                                                             |
|           W    W    AA    RRRRR   N    N  II  N    N   GGGG   !!!           |
|           W    W   A  A   R    R  NN   N  II  NN   N  G    G  !!!           |
|           W    W  A    A  R    R  N N  N  II  N N  N  G       !!!           |
|           W WW W  AAAAAA  RRRRR   N  N N  II  N  N N  G  GGG   !            |
|           WW  WW  A    A  R   R   N   NN  II  N   NN  G    G                |
|           W    W  A    A  R    R  N    N  II  N    N   GGGG   !!!           |
|                                                                             |
|     For optimal performance we recommend to set                             |
|       NCORE = 4 - approx SQRT(number of cores).                             |
|     NCORE specifies how many cores store one orbital (NPAR=cpu/NCORE).      |
|     This setting can greatly improve the performance of VASP for DFT.       |
|     The default, NCORE=1 might be grossly inefficient on modern             |
|     multi-core architectures or massively parallel machines. Do your        |
|     own testing!!!!                                                         |
|     Unfortunately you need to use the default for GW and RPA                |
|     calculations (for HF NCORE is supported but not extensively tested      |
|     yet).                                                                   |
|                                                                             |
 -----------------------------------------------------------------------------

 -----------------------------------------------------------------------------
|                                                                             |
|               ----> ADVICE to this user running VASP <----                  |
|                                                                             |
|     You have a (more or less) 'small supercell' and for smaller cells       |
|     it is recommended to use the reciprocal-space projection scheme!        |
|     The real-space optimization is not efficient for small cells and it     |
|     is also less accurate ...                                               |
|     Therefore, set LREAL=.FALSE. in the INCAR file.                         |
|                                                                             |
 -----------------------------------------------------------------------------

 LDA part: xc-table for Pade appr. of Perdew
 generate k-points for:   12   12   12
 POSCAR, INCAR and KPOINTS ok, starting setup
 FFT: planning ...
 WAVECAR not read
 entering main loop
       N       E                     dE             d eps       ncg     rms          rms(c)
DAV:   1     0.478649572202E+02    0.47865E+02   -0.53427E+03  4616   0.786E+02
DAV:   2    -0.106303970848E+02   -0.58495E+02   -0.55679E+02  6264   0.199E+02
DAV:   3    -0.151674983693E+02   -0.45371E+01   -0.45064E+01  6704   0.427E+01
DAV:   4    -0.152714144217E+02   -0.10392E+00   -0.10389E+00  5424   0.731E+00
DAV:   5    -0.152726067541E+02   -0.11923E-02   -0.11923E-02  6184   0.626E-01    0.117E+01
RMM:   6    -0.141094683209E+02    0.11631E+01   -0.19147E+00  5121   0.799E+00    0.491E+00
RMM:   7    -0.142403261846E+02   -0.13086E+00   -0.49650E-02  5937   0.165E+00    0.218E+00
RMM:   8    -0.142523974286E+02   -0.12071E-01   -0.26633E-02  6426   0.132E+00    0.116E+00
RMM:   9    -0.142640664176E+02   -0.11669E-01   -0.24192E-02  6473   0.135E+00    0.234E-01
RMM:  10    -0.142650365911E+02   -0.97017E-03   -0.41024E-03  7098   0.462E-01    0.131E-01
RMM:  11    -0.142655760496E+02   -0.53946E-03   -0.28435E-03  6747   0.362E-01    0.164E-01
RMM:  12    -0.142655016983E+02    0.74351E-04   -0.80520E-04  6743   0.212E-01    0.745E-02
RMM:  13    -0.142654727594E+02    0.28939E-04   -0.39045E-04  7101   0.140E-01    0.157E-02
RMM:  14    -0.142654912651E+02   -0.18506E-04   -0.13933E-04  6567   0.737E-02    0.184E-02
RMM:  15    -0.142654950085E+02   -0.37433E-05   -0.56557E-05  6262   0.482E-02
   1 F= -.14265495E+02 E0= -.14265495E+02  d E =0.000000E+00  mag=     0.0000
