    4    4    1    2
  0.1169496E+02  0.3399377E-09  0.3300365E-09  0.4988583E-09  0.5000000E-15
  1.000000000000000E-004
  CAR 
 unknown system                          
     18    424     14
 
  0.0000000E+00  0.0000000E+00  0.0000000E+00  0.1180638E-02
    1      -43.577982    -43.577715   1.000000   1.000000
    2      -21.870656    -21.870655   1.000000   1.000000
    3      -17.514162    -17.514163   1.000000   1.000000
    4       -6.841463     -6.841460   1.000000   1.000000
    5       -5.375973     -5.375969   1.000000   1.000000
    6       -5.276742     -5.276742   1.000000   1.000000
    7       -3.792600     -3.792598   1.000000   1.000000
    8        0.392723      0.392720   1.000000   1.000000
    9        0.507726      0.507724   1.000000   1.000000
   10        6.051627      6.051601   0.000000   0.000000
   11        6.086474      6.086475   0.000000   0.000000
   12        6.442976      6.442977   0.000000   0.000000
   13        9.785120      9.785078   0.000000   0.000000
   14       11.305607     11.303096   0.000000   0.000000
 
  0.9090909E-01 -0.7808623E-17 -0.9344575E-17  0.2361275E-02
    1      -43.577670    -43.577403   1.000000   1.000000
    2      -21.857540    -21.857539   1.000000   1.000000
    3      -17.507048    -17.507050   1.000000   1.000000
    4       -6.806983     -6.806980   1.000000   1.000000
    5       -5.469745     -5.469740   1.000000   1.000000
    6       -5.294189     -5.294190   1.000000   1.000000
    7       -3.799371     -3.799369   1.000000   1.000000
    8        0.275347      0.275344   1.000000   1.000000
    9        0.450307      0.450304   1.000000   1.000000
   10        5.932418      5.932420   0.000000   0.000000
   11        6.217831      6.217828   0.000000   0.000000
   12        6.548046      6.548043   0.000000   0.000000
   13        9.977895      9.977841   0.000000   0.000000
   14       11.344595     11.343993   0.000000   0.000000
 
  0.1818182E+00 -0.1284585E-16 -0.2395623E-16  0.2361275E-02
    1      -43.576801    -43.576534   1.000000   1.000000
    2      -21.822178    -21.822176   1.000000   1.000000
    3      -17.487925    -17.487926   1.000000   1.000000
    4       -6.715891     -6.715888   1.000000   1.000000
    5       -5.706018     -5.706014   1.000000   1.000000
    6       -5.338614     -5.338614   1.000000   1.000000
    7       -3.820338     -3.820334   1.000000   1.000000
    8       -0.062115     -0.062118   1.000000   1.000000
    9        0.338638      0.338635   1.000000   1.000000
   10        5.706966      5.706969   0.000000   0.000000
   11        6.232956      6.232953   0.000000   0.000000
   12        7.068440      7.068158   0.000000   0.000000
   13       10.481168     10.480935   0.000000   0.000000
   14       11.442283     11.442199   0.000000   0.000000
 
  0.2727273E+00 -0.1371558E-16 -0.7847166E-17  0.2361275E-02
    1      -43.575664    -43.575397   1.000000   1.000000
    2      -21.775078    -21.775077   1.000000   1.000000
    3      -17.462818    -17.462820   1.000000   1.000000
    4       -6.616697     -6.616695   1.000000   1.000000
    5       -5.962245     -5.962240   1.000000   1.000000
    6       -5.395317     -5.395318   1.000000   1.000000
    7       -3.857315     -3.857311   1.000000   1.000000
    8       -0.479894     -0.479900   1.000000   1.000000
    9        0.206881      0.206877   1.000000   1.000000
   10        5.347733      5.347735   0.000000   0.000000
   11        6.269353      6.269352   0.000000   0.000000
   12        7.777980      7.777273   0.000000   0.000000
   13       11.029277     11.027053   0.000000   0.000000
   14       11.541277     11.539736   0.000000   0.000000
 
  0.3636364E+00 -0.2846310E-16 -0.5652317E-16  0.2361275E-02
    1      -43.574647    -43.574379   1.000000   1.000000
    2      -21.731256    -21.731254   1.000000   1.000000
    3      -17.439673    -17.439674   1.000000   1.000000
    4       -6.610563     -6.610559   1.000000   1.000000
    5       -6.078249     -6.078245   1.000000   1.000000
    6       -5.446612     -5.446612   1.000000   1.000000
    7       -3.906564     -3.906560   1.000000   1.000000
    8       -0.835159     -0.835167   1.000000   1.000000
    9        0.091565      0.091560   1.000000   1.000000
   10        5.004449      5.004450   0.000000   0.000000
   11        6.305378      6.305378   0.000000   0.000000
   12        8.367661      8.367639   0.000000   0.000000
   13       11.297404     11.296644   0.000000   0.000000
   14       11.491560     11.488267   0.000000   0.000000
 
  0.4545455E+00  0.1058975E-16 -0.3312824E-16  0.2361275E-02
    1      -43.574048    -43.573781   1.000000   1.000000
    2      -21.704891    -21.704889   1.000000   1.000000
    3      -17.425901    -17.425902   1.000000   1.000000
    4       -6.677080     -6.677076   1.000000   1.000000
    5       -6.059726     -6.059724   1.000000   1.000000
    6       -5.476903     -5.476903   1.000000   1.000000
    7       -3.946326     -3.946321   1.000000   1.000000
    8       -1.033994     -1.034001   1.000000   1.000000
    9        0.025417      0.025412   1.000000   1.000000
   10        4.799853      4.799854   0.000000   0.000000
   11        6.324494      6.324494   0.000000   0.000000
   12        8.637774      8.637763   0.000000   0.000000
   13       11.366165     11.366158   0.000000   0.000000
   14       11.537122     11.537074   0.000000   0.000000
 
  0.4476095E-17  0.9090909E-01 -0.5132893E-17  0.2361275E-02
    1      -43.577611    -43.577344   1.000000   1.000000
    2      -21.855542    -21.855542   1.000000   1.000000
    3      -17.505963    -17.505964   1.000000   1.000000
    4       -6.803791     -6.803787   1.000000   1.000000
    5       -5.434882     -5.434881   1.000000   1.000000
    6       -5.338707     -5.338704   1.000000   1.000000
    7       -3.798721     -3.798718   1.000000   1.000000
    8        0.341133      0.341129   1.000000   1.000000
    9        0.370698      0.370696   1.000000   1.000000
   10        5.952323      5.952323   0.000000   0.000000
   11        6.193483      6.193485   0.000000   0.000000
   12        6.557829      6.557820   0.000000   0.000000
   13        9.984553      9.984510   0.000000   0.000000
   14       11.343553     11.340586   0.000000   0.000000
 
  0.9090909E-01  0.9090909E-01 -0.2968010E-16  0.2361275E-02
    1      -43.577593    -43.577326   1.000000   1.000000
    2      -21.854621    -21.854619   1.000000   1.000000
    3      -17.508018    -17.508019   1.000000   1.000000
    4       -6.785814     -6.785810   1.000000   1.000000
    5       -5.419850     -5.419844   1.000000   1.000000
    6       -5.363961     -5.363963   1.000000   1.000000
    7       -3.822607     -3.822605   1.000000   1.000000
    8        0.249727      0.249723   1.000000   1.000000
    9        0.488600      0.488598   1.000000   1.000000
   10        5.890567      5.890569   0.000000   0.000000
   11        6.348522      6.348522   0.000000   0.000000
   12        6.507797      6.507783   0.000000   0.000000
   13        9.933695      9.933645   0.000000   0.000000
   14       11.275080     11.273563   0.000000   0.000000
 
  0.1818182E+00  0.9090909E-01 -0.2413750E-16  0.2361275E-02
    1      -43.577004    -43.576737   1.000000   1.000000
    2      -21.829617    -21.829614   1.000000   1.000000
    3      -17.496764    -17.496766   1.000000   1.000000
    4       -6.704754     -6.704751   1.000000   1.000000
    5       -5.607161     -5.607155   1.000000   1.000000
    6       -5.381870     -5.381872   1.000000   1.000000
    7       -3.859689     -3.859686   1.000000   1.000000
    8        0.021823      0.021818   1.000000   1.000000
    9        0.427875      0.427872   1.000000   1.000000
   10        5.809656      5.809659   0.000000   0.000000
   11        6.236101      6.236099   0.000000   0.000000
   12        6.934450      6.934338   0.000000   0.000000
   13       10.250193     10.250128   0.000000   0.000000
   14       11.295151     11.294477   0.000000   0.000000
 
  0.2727273E+00  0.9090909E-01 -0.6751412E-16  0.2361275E-02
    1      -43.575996    -43.575728   1.000000   1.000000
    2      -21.787829    -21.787830   1.000000   1.000000
    3      -17.475671    -17.475672   1.000000   1.000000
    4       -6.589824     -6.589822   1.000000   1.000000
    5       -5.860158     -5.860153   1.000000   1.000000
    6       -5.435947     -5.435949   1.000000   1.000000
    7       -3.906907     -3.906904   1.000000   1.000000
    8       -0.309949     -0.309954   1.000000   1.000000
    9        0.274695      0.274692   1.000000   1.000000
   10        5.527229      5.527231   0.000000   0.000000
   11        6.216204      6.216202   0.000000   0.000000
   12        7.593242      7.592649   0.000000   0.000000
   13       10.752732     10.752560   0.000000   0.000000
   14       11.409651     11.409799   0.000000   0.000000
 
  0.3636364E+00  0.9090909E-01 -0.8578485E-16  0.2361275E-02
    1      -43.574919    -43.574651   1.000000   1.000000
    2      -21.742344    -21.742342   1.000000   1.000000
    3      -17.451422    -17.451423   1.000000   1.000000
    4       -6.528069     -6.528066   1.000000   1.000000
    5       -6.040794     -6.040790   1.000000   1.000000
    6       -5.495899     -5.495900   1.000000   1.000000
    7       -3.960125     -3.960121   1.000000   1.000000
    8       -0.653153     -0.653160   1.000000   1.000000
    9        0.111245      0.111241   1.000000   1.000000
   10        5.160800      5.160801   0.000000   0.000000
   11        6.227720      6.227720   0.000000   0.000000
   12        8.308660      8.308695   0.000000   0.000000
   13       11.062930     11.061899   0.000000   0.000000
   14       11.544407     11.537369   0.000000   0.000000
 
  0.4545455E+00  0.9090909E-01 -0.5974024E-16  0.2361275E-02
    1      -43.574098    -43.573831   1.000000   1.000000
    2      -21.707618    -21.707617   1.000000   1.000000
    3      -17.431669    -17.431671   1.000000   1.000000
    4       -6.596344     -6.596340   1.000000   1.000000
    5       -6.048684     -6.048682   1.000000   1.000000
    6       -5.534936     -5.534936   1.000000   1.000000
    7       -4.001991     -4.001986   1.000000   1.000000
    8       -0.907972     -0.907980   1.000000   1.000000
    9       -0.011756     -0.011761   1.000000   1.000000
   10        4.878408      4.878408   0.000000   0.000000
   11        6.224601      6.224599   0.000000   0.000000
   12        8.791447      8.791437   0.000000   0.000000
   13       11.260695     11.260590   0.000000   0.000000
   14       11.515852     11.515536   0.000000   0.000000
 
 -0.4545455E+00  0.9090909E-01  0.3692151E-16  0.2361275E-02
    1      -43.573808    -43.573540   1.000000   1.000000
    2      -21.695302    -21.695300   1.000000   1.000000
    3      -17.422696    -17.422697   1.000000   1.000000
    4       -6.658938     -6.658934   1.000000   1.000000
    5       -6.021762     -6.021760   1.000000   1.000000
    6       -5.544309     -5.544309   1.000000   1.000000
    7       -3.999866     -3.999862   1.000000   1.000000
    8       -1.010788     -1.010795   1.000000   1.000000
    9       -0.064730     -0.064735   1.000000   1.000000
   10        4.774342      4.774342   0.000000   0.000000
   11        6.210255      6.210254   0.000000   0.000000
   12        8.939145      8.939135   0.000000   0.000000
   13       11.361382     11.361054   0.000000   0.000000
   14       11.578272     11.578296   0.000000   0.000000
 
 -0.3636364E+00  0.9090909E-01  0.5766675E-16  0.2361275E-02
    1      -43.574106    -43.573839   1.000000   1.000000
    2      -21.709503    -21.709501   1.000000   1.000000
    3      -17.427439    -17.427441   1.000000   1.000000
    4       -6.645560     -6.645556   1.000000   1.000000
    5       -6.027289     -6.027286   1.000000   1.000000
    6       -5.529415     -5.529415   1.000000   1.000000
    7       -3.942870     -3.942866   1.000000   1.000000
    8       -0.936724     -0.936731   1.000000   1.000000
    9       -0.035474     -0.035479   1.000000   1.000000
   10        4.876322      4.876322   0.000000   0.000000
   11        6.190856      6.190855   0.000000   0.000000
   12        8.801928      8.801908   0.000000   0.000000
   13       11.355613     11.353257   0.000000   0.000000
   14       11.580660     11.580461   0.000000   0.000000
 
 -0.2727273E+00  0.9090909E-01  0.4469539E-16  0.2361275E-02
    1      -43.574930    -43.574663   1.000000   1.000000
    2      -21.745347    -21.745345   1.000000   1.000000
    3      -17.444464    -17.444465   1.000000   1.000000
    4       -6.623323     -6.623320   1.000000   1.000000
    5       -5.988220     -5.988216   1.000000   1.000000
    6       -5.486475     -5.486475   1.000000   1.000000
    7       -3.867639     -3.867635   1.000000   1.000000
    8       -0.692284     -0.692290   1.000000   1.000000
    9        0.065513      0.065509   1.000000   1.000000
   10        5.148234      5.148235   0.000000   0.000000
   11        6.164890      6.164889   0.000000   0.000000
   12        8.318852      8.318639   0.000000   0.000000
   13       11.320049     11.319477   0.000000   0.000000
   14       11.618877     11.612903   0.000000   0.000000
 
 -0.1818182E+00  0.9090909E-01  0.3402597E-16  0.2361275E-02
    1      -43.576022    -43.575755   1.000000   1.000000
    2      -21.791064    -21.791065   1.000000   1.000000
    3      -17.468261    -17.468262   1.000000   1.000000
    4       -6.676571     -6.676568   1.000000   1.000000
    5       -5.819478     -5.819475   1.000000   1.000000
    6       -5.421628     -5.421628   1.000000   1.000000
    7       -3.814271     -3.814268   1.000000   1.000000
    8       -0.325194     -0.325200   1.000000   1.000000
    9        0.200513      0.200508   1.000000   1.000000
   10        5.506816      5.506817   0.000000   0.000000
   11        6.130196      6.130195   0.000000   0.000000
   12        7.604341      7.603522   0.000000   0.000000
   13       10.912988     10.912714   0.000000   0.000000
   14       11.668376     11.668066   0.000000   0.000000
 
 -0.9090909E-01  0.9090909E-01  0.1243402E-16  0.2361275E-02
    1      -43.577002    -43.576735   1.000000   1.000000
    2      -21.831994    -21.831992   1.000000   1.000000
    3      -17.491123    -17.491124   1.000000   1.000000
    4       -6.758341     -6.758338   1.000000   1.000000
    5       -5.597349     -5.597346   1.000000   1.000000
    6       -5.359930     -5.359929   1.000000   1.000000
    7       -3.793398     -3.793396   1.000000   1.000000
    8        0.069207      0.069204   1.000000   1.000000
    9        0.311689      0.311684   1.000000   1.000000
   10        5.844627      5.844628   0.000000   0.000000
   11        6.095514      6.095513   0.000000   0.000000
   12        6.944226      6.944084   0.000000   0.000000
   13       10.364562     10.364528   0.000000   0.000000
   14       11.493281     11.490695   0.000000   0.000000
 
  0.2485719E-16  0.1818182E+00 -0.2013674E-16  0.2361275E-02
    1      -43.576568    -43.576301   1.000000   1.000000
    2      -21.814594    -21.814592   1.000000   1.000000
    3      -17.483958    -17.483959   1.000000   1.000000
    4       -6.704741     -6.704738   1.000000   1.000000
    5       -5.662403     -5.662403   1.000000   1.000000
    6       -5.414747     -5.414742   1.000000   1.000000
    7       -3.817838     -3.817835   1.000000   1.000000
    8       -0.005663     -0.005668   1.000000   1.000000
    9        0.232590      0.232587   1.000000   1.000000
   10        5.733343      5.733343   0.000000   0.000000
   11        6.197926      6.197929   0.000000   0.000000
   12        7.086375      7.086061   0.000000   0.000000
   13       10.507451     10.507351   0.000000   0.000000
   14       11.431744     11.430157   0.000000   0.000000
 
  0.9090909E-01  0.1818182E+00 -0.3014374E-16  0.2361275E-02
    1      -43.576826    -43.576559   1.000000   1.000000
    2      -21.824055    -21.824053   1.000000   1.000000
    3      -17.493853    -17.493855   1.000000   1.000000
    4       -6.696971     -6.696968   1.000000   1.000000
    5       -5.577631     -5.577633   1.000000   1.000000
    6       -5.433847     -5.433842   1.000000   1.000000
    7       -3.857434     -3.857432   1.000000   1.000000
    8        0.023837      0.023833   1.000000   1.000000
    9        0.390869      0.390867   1.000000   1.000000
   10        5.818250      5.818250   0.000000   0.000000
   11        6.232733      6.232736   0.000000   0.000000
   12        6.939771      6.939658   0.000000   0.000000
   13       10.274527     10.274452   0.000000   0.000000
   14       11.279863     11.279225   0.000000   0.000000
 
  0.1818182E+00  0.1818182E+00 -0.2889034E-16  0.2361275E-02
    1      -43.576550    -43.576283   1.000000   1.000000
    2      -21.811150    -21.811148   1.000000   1.000000
    3      -17.492041    -17.492042   1.000000   1.000000
    4       -6.633950     -6.633948   1.000000   1.000000
    5       -5.631907     -5.631904   1.000000   1.000000
    6       -5.475234     -5.475233   1.000000   1.000000
    7       -3.918263     -3.918260   1.000000   1.000000
    8       -0.145368     -0.145373   1.000000   1.000000
    9        0.478766      0.478764   1.000000   1.000000
   10        5.845427      5.845429   0.000000   0.000000
   11        6.098570      6.098569   0.000000   0.000000
   12        7.177177      7.177006   0.000000   0.000000
   13       10.324015     10.323990   0.000000   0.000000
   14       11.258657     11.258442   0.000000   0.000000
 
  0.2727273E+00  0.1818182E+00 -0.3063359E-16  0.2361275E-02
    1      -43.575818    -43.575551   1.000000   1.000000
    2      -21.779664    -21.779665   1.000000   1.000000
    3      -17.479072    -17.479074   1.000000   1.000000
    4       -6.534128     -6.534125   1.000000   1.000000
    5       -5.788656     -5.788650   1.000000   1.000000
    6       -5.534750     -5.534751   1.000000   1.000000
    7       -3.991685     -3.991682   1.000000   1.000000
    8       -0.385664     -0.385669   1.000000   1.000000
    9        0.399968      0.399966   1.000000   1.000000
   10        5.672819      5.672822   0.000000   0.000000
   11        6.015524      6.015521   0.000000   0.000000
   12        7.695669      7.695144   0.000000   0.000000
   13       10.580107     10.580044   0.000000   0.000000
   14       11.406637     11.407535   0.000000   0.000000
 
  0.3636364E+00  0.1818182E+00 -0.6543181E-16  0.2361275E-02
    1      -43.574882    -43.574615   1.000000   1.000000
    2      -21.739323    -21.739324   1.000000   1.000000
    3      -17.459074    -17.459075   1.000000   1.000000
    4       -6.457490     -6.457487   1.000000   1.000000
    5       -5.926443     -5.926439   1.000000   1.000000
    6       -5.616521     -5.616521   1.000000   1.000000
    7       -4.070980     -4.070976   1.000000   1.000000
    8       -0.621215     -0.621220   1.000000   1.000000
    9        0.198893      0.198890   1.000000   1.000000
   10        5.324044      5.324043   0.000000   0.000000
   11        6.006688      6.006686   0.000000   0.000000
   12        8.435014      8.434853   0.000000   0.000000
   13       10.798619     10.796963   0.000000   0.000000
   14       11.657422     11.653546   0.000000   0.000000
 
  0.4545455E+00  0.1818182E+00  0.1019524E-16  0.2361275E-02
    1      -43.574002    -43.573734   1.000000   1.000000
    2      -21.702665    -21.702664   1.000000   1.000000
    3      -17.438242    -17.438243   1.000000   1.000000
    4       -6.474872     -6.474867   1.000000   1.000000
    5       -5.988373     -5.988370   1.000000   1.000000
    6       -5.653348     -5.653347   1.000000   1.000000
    7       -4.138502     -4.138499   1.000000   1.000000
    8       -0.793000     -0.793005   1.000000   1.000000
    9       -0.037287     -0.037291   1.000000   1.000000
   10        5.001914      5.001912   0.000000   0.000000
   11        5.984683      5.984680   0.000000   0.000000
   12        9.173147      9.173152   0.000000   0.000000
   13       10.964409     10.964281   0.000000   0.000000
   14       11.628975     11.642993   0.000000   0.000000
 
 -0.4545455E+00  0.1818182E+00  0.1860555E-16  0.2361275E-02
    1      -43.573482    -43.573215   1.000000   1.000000
    2      -21.681852    -21.681851   1.000000   1.000000
    3      -17.423133    -17.423134   1.000000   1.000000
    4       -6.542482     -6.542478   1.000000   1.000000
    5       -6.004366     -6.004364   1.000000   1.000000
    6       -5.643742     -5.643741   1.000000   1.000000
    7       -4.152780     -4.152777   1.000000   1.000000
    8       -0.873085     -0.873091   1.000000   1.000000
    9       -0.221769     -0.221774   1.000000   1.000000
   10        4.811438      4.811437   0.000000   0.000000
   11        5.968133      5.968130   0.000000   0.000000
   12        9.564414      9.564404   0.000000   0.000000
   13       11.201355     11.201788   0.000000   0.000000
   14       11.640316     11.641529   0.000000   0.000000
 
 -0.3636364E+00  0.1818182E+00 -0.4932264E-17  0.2361275E-02
    1      -43.573491    -43.573223   1.000000   1.000000
    2      -21.683812    -21.683810   1.000000   1.000000
    3      -17.418716    -17.418718   1.000000   1.000000
    4       -6.589248     -6.589245   1.000000   1.000000
    5       -5.972454     -5.972452   1.000000   1.000000
    6       -5.665220     -5.665219   1.000000   1.000000
    7       -4.081231     -4.081228   1.000000   1.000000
    8       -0.868977     -0.868983   1.000000   1.000000
    9       -0.281673     -0.281678   1.000000   1.000000
   10        4.800986      4.800984   0.000000   0.000000
   11        5.973869      5.973866   0.000000   0.000000
   12        9.531475      9.531461   0.000000   0.000000
   13       11.244152     11.243806   0.000000   0.000000
   14       11.754194     11.754201   0.000000   0.000000
 
 -0.2727273E+00  0.1818182E+00  0.4489418E-16  0.2361275E-02
    1      -43.574020    -43.573753   1.000000   1.000000
    2      -21.707780    -21.707780   1.000000   1.000000
    3      -17.426463    -17.426464   1.000000   1.000000
    4       -6.605714     -6.605711   1.000000   1.000000
    5       -5.913363     -5.913359   1.000000   1.000000
    6       -5.682991     -5.682990   1.000000   1.000000
    7       -3.959871     -3.959868   1.000000   1.000000
    8       -0.781703     -0.781710   1.000000   1.000000
    9       -0.196294     -0.196299   1.000000   1.000000
   10        4.960727      4.960726   0.000000   0.000000
   11        6.000781      6.000778   0.000000   0.000000
   12        9.085323      9.085243   0.000000   0.000000
   13       11.286768     11.285911   0.000000   0.000000
   14       11.830961     11.841392   0.000000   0.000000
 
 -0.1818182E+00  0.1818182E+00  0.5352199E-16  0.2361275E-02
    1      -43.574893    -43.574625   1.000000   1.000000
    2      -21.745749    -21.745747   1.000000   1.000000
    3      -17.443896    -17.443898   1.000000   1.000000
    4       -6.625246     -6.625244   1.000000   1.000000
    5       -5.871990     -5.871987   1.000000   1.000000
    6       -5.597443     -5.597441   1.000000   1.000000
    7       -3.858845     -3.858842   1.000000   1.000000
    8       -0.583717     -0.583723   1.000000   1.000000
    9       -0.028948     -0.028952   1.000000   1.000000
   10        5.232741      5.232741   0.000000   0.000000
   11        6.040070      6.040069   0.000000   0.000000
   12        8.351444      8.350309   0.000000   0.000000
   13       11.374885     11.366915   0.000000   0.000000
   14       11.894801     11.887075   0.000000   0.000000
 
 -0.9090909E-01  0.1818182E+00  0.3399598E-16  0.2361275E-02
    1      -43.575843    -43.575575   1.000000   1.000000
    2      -21.785502    -21.785502   1.000000   1.000000
    3      -17.465338    -17.465340   1.000000   1.000000
    4       -6.668613     -6.668610   1.000000   1.000000
    5       -5.785675     -5.785674   1.000000   1.000000
    6       -5.478236     -5.478232   1.000000   1.000000
    7       -3.812978     -3.812975   1.000000   1.000000
    8       -0.288664     -0.288669   1.000000   1.000000
    9        0.127886      0.127882   1.000000   1.000000
   10        5.527045      5.527045   0.000000   0.000000
   11        6.099018      6.099018   0.000000   0.000000
   12        7.611655      7.611008   0.000000   0.000000
   13       10.925333     10.925051   0.000000   0.000000
   14       11.674870     11.674332   0.000000   0.000000
 
  0.3721817E-16  0.2727273E+00 -0.2725690E-16  0.2361275E-02
    1      -43.575229    -43.574962   1.000000   1.000000
    2      -21.760127    -21.760127   1.000000   1.000000
    3      -17.455055    -17.455057   1.000000   1.000000
    4       -6.601156     -6.601155   1.000000   1.000000
    5       -5.919923     -5.919922   1.000000   1.000000
    6       -5.488435     -5.488430   1.000000   1.000000
    7       -3.853583     -3.853580   1.000000   1.000000
    8       -0.449422     -0.449428   1.000000   1.000000
    9        0.083048      0.083044   1.000000   1.000000
   10        5.369676      5.369677   0.000000   0.000000
   11        6.220766      6.220769   0.000000   0.000000
   12        7.783248      7.782765   0.000000   0.000000
   13       11.075036     11.073936   0.000000   0.000000
   14       11.541053     11.535497   0.000000   0.000000
 
  0.9090909E-01  0.2727273E+00 -0.4208942E-17  0.2361275E-02
    1      -43.575604    -43.575336   1.000000   1.000000
    2      -21.774936    -21.774938   1.000000   1.000000
    3      -17.469001    -17.469002   1.000000   1.000000
    4       -6.577633     -6.577632   1.000000   1.000000
    5       -5.841035     -5.841035   1.000000   1.000000
    6       -5.495896     -5.495891   1.000000   1.000000
    7       -3.901976     -3.901973   1.000000   1.000000
    8       -0.330627     -0.330632   1.000000   1.000000
    9        0.217420      0.217417   1.000000   1.000000
   10        5.532660      5.532660   0.000000   0.000000
   11        6.202892      6.202895   0.000000   0.000000
   12        7.606469      7.605849   0.000000   0.000000
   13       10.819365     10.818510   0.000000   0.000000
   14       11.354769     11.354720   0.000000   0.000000
 
  0.1818182E+00  0.2727273E+00 -0.5815202E-16  0.2361275E-02
    1      -43.575607    -43.575339   1.000000   1.000000
    2      -21.772212    -21.772213   1.000000   1.000000
    3      -17.475304    -17.475305   1.000000   1.000000
    4       -6.531149     -6.531147   1.000000   1.000000
    5       -5.800036     -5.800035   1.000000   1.000000
    6       -5.540080     -5.540075   1.000000   1.000000
    7       -3.988295     -3.988292   1.000000   1.000000
    8       -0.424457     -0.424461   1.000000   1.000000
    9        0.396964      0.396961   1.000000   1.000000
   10        5.651348      5.651347   0.000000   0.000000
   11        6.037596      6.037597   0.000000   0.000000
   12        7.706643      7.706179   0.000000   0.000000
   13       10.618545     10.618531   0.000000   0.000000
   14       11.361652     11.362799   0.000000   0.000000
 
  0.2727273E+00  0.2727273E+00 -0.7642276E-16  0.2361275E-02
    1      -43.575186    -43.574919   1.000000   1.000000
    2      -21.752896    -21.752898   1.000000   1.000000
    3      -17.472050    -17.472051   1.000000   1.000000
    4       -6.477911     -6.477909   1.000000   1.000000
    5       -5.825690     -5.825687   1.000000   1.000000
    6       -5.581707     -5.581705   1.000000   1.000000
    7       -4.095678     -4.095675   1.000000   1.000000
    8       -0.617835     -0.617839   1.000000   1.000000
    9        0.478740      0.478738   1.000000   1.000000
   10        5.716409      5.716407   0.000000   0.000000
   11        5.784105      5.784103   0.000000   0.000000
   12        8.016434      8.015918   0.000000   0.000000
   13       10.531302     10.531607   0.000000   0.000000
   14       11.567760     11.570101   0.000000   0.000000
 
  0.3636364E+00  0.2727273E+00 -0.5898885E-16  0.2361275E-02
    1      -43.574512    -43.574244   1.000000   1.000000
    2      -21.722842    -21.722843   1.000000   1.000000
    3      -17.460310    -17.460311   1.000000   1.000000
    4       -6.456099     -6.456097   1.000000   1.000000
    5       -5.809172     -5.809168   1.000000   1.000000
    6       -5.674788     -5.674788   1.000000   1.000000
    7       -4.212562     -4.212559   1.000000   1.000000
    8       -0.800086     -0.800090   1.000000   1.000000
    9        0.387722      0.387720   1.000000   1.000000
   10        5.465061      5.465060   0.000000   0.000000
   11        5.733331      5.733327   0.000000   0.000000
   12        8.578489      8.578274   0.000000   0.000000
   13       10.580222     10.580113   0.000000   0.000000
   14       11.997934     11.846609   0.000000   0.000000
 
  0.4545455E+00  0.2727273E+00 -0.5477109E-16  0.2361275E-02
    1      -43.573770    -43.573502   1.000000   1.000000
    2      -21.691446    -21.691444   1.000000   1.000000
    3      -17.443636    -17.443637   1.000000   1.000000
    4       -6.450840     -6.450837   1.000000   1.000000
    5       -5.895088     -5.895087   1.000000   1.000000
    6       -5.660975     -5.660974   1.000000   1.000000
    7       -4.319191     -4.319188   1.000000   1.000000
    8       -0.901634     -0.901638   1.000000   1.000000
    9        0.149145      0.149142   1.000000   1.000000
   10        5.155089      5.155086   0.000000   0.000000
   11        5.708061      5.708057   0.000000   0.000000
   12        9.384412      9.384399   0.000000   0.000000
   13       10.701079     10.701808   0.000000   0.000000
   14       12.295576     12.287093   0.000000   0.000000
 