 running on   12 total cores
 distrk:  each k-point on   12 cores,    1 groups
 distr:  one band on    6 cores,    2 groups
 using from now: INCAR     
 vasp.6.1.2 22Jul20 (build Mar 20 2021 11:25:07) complex                        
  
 POSCAR found type information on POSCAR LiN 
 POSCAR found :  2 types and       4 ions
 scaLAPACK will be used
 -----------------------------------------------------------------------------
|                                                                             |
|               ----> ADVICE to this user running VASP <----                  |
|                                                                             |
|     You have a (more or less) 'small supercell' and for smaller cells       |
|     it is recommended to use the reciprocal-space projection scheme!        |
|     The real-space optimization is not efficient for small cells and it     |
|     is also less accurate ...                                               |
|     Therefore, set LREAL=.FALSE. in the INCAR file.                         |
|                                                                             |
 -----------------------------------------------------------------------------

 LDA part: xc-table for Pade appr. of Perdew
 generate k-points for:   11   11    7
 POSCAR, INCAR and KPOINTS ok, starting setup
 FFT: planning ...
 WAVECAR not read
 entering main loop
       N       E                     dE             d eps       ncg     rms          rms(c)
DAV:   1     0.887250401145E+02    0.88725E+02   -0.83850E+03 23752   0.118E+03
DAV:   2    -0.227556725314E+02   -0.11148E+03   -0.10790E+03 31554   0.270E+02
DAV:   3    -0.284170465084E+02   -0.56614E+01   -0.56388E+01 32684   0.663E+01
DAV:   4    -0.286486268573E+02   -0.23158E+00   -0.23145E+00 36882   0.112E+01
DAV:   5    -0.286515683272E+02   -0.29415E-02   -0.29412E-02 32448   0.135E+00    0.128E+01
RMM:   6    -0.275008770052E+02    0.11507E+01   -0.38799E+00 25719   0.136E+01    0.587E+00
RMM:   7    -0.274491135074E+02    0.51763E-01   -0.69083E-01 30731   0.758E+00    0.337E+00
RMM:   8    -0.274351778663E+02    0.13936E-01   -0.28211E-01 34001   0.422E+00    0.167E+00
RMM:   9    -0.274486468988E+02   -0.13469E-01   -0.75567E-02 36513   0.232E+00    0.643E-01
RMM:  10    -0.274497389083E+02   -0.10920E-02   -0.24429E-02 38430   0.124E+00    0.151E-01
RMM:  11    -0.274511890481E+02   -0.14501E-02   -0.10026E-02 41038   0.702E-01    0.901E-02
RMM:  12    -0.274518617835E+02   -0.67274E-03   -0.46378E-03 43457   0.440E-01    0.526E-02
RMM:  13    -0.274521087451E+02   -0.24696E-03   -0.19544E-03 42803   0.282E-01    0.187E-02
RMM:  14    -0.274522263931E+02   -0.11765E-03   -0.92341E-04 42007   0.198E-01    0.144E-02
WARNING in EDDRMM: call to ZHEGV failed, returncode =   6  3      2
RMM:  15    -0.274522790754E+02   -0.52682E-04   -0.43083E-04 39224   0.129E-01    0.849E-03
RMM:  16    -0.274523023961E+02   -0.23321E-04   -0.19847E-04 35935   0.898E-02    0.225E-03
RMM:  17    -0.274523138443E+02   -0.11448E-04   -0.91389E-05 31198   0.668E-02    0.216E-03
RMM:  18    -0.274523182039E+02   -0.43596E-05   -0.42697E-05 28058   0.542E-02
   1 F= -.27452318E+02 E0= -.27452318E+02  d E =0.000000E+00  mag=    -0.0000
