   96   96    1    2
  0.8658485E+01  0.9410218E-09  0.9410217E-09  0.9410218E-09  0.5000000E-15
  1.000000000000000E-004
  CAR 
 unknown system                          
    368      8    264
 
  0.0000000E+00  0.0000000E+00  0.0000000E+00  0.3703704E-01
    1      -40.858005    -40.858008   1.000000   1.000000
    2      -40.856488    -40.856491   1.000000   1.000000
    3      -40.852682    -40.852686   1.000000   1.000000
    4      -40.851476    -40.851480   1.000000   1.000000
    5      -40.828629    -40.828627   1.000000   1.000000
    6      -40.827951    -40.827950   1.000000   1.000000
    7      -40.822825    -40.822824   1.000000   1.000000
    8      -40.822347    -40.822346   1.000000   1.000000
    9      -40.656812    -40.656807   1.000000   1.000000
   10      -40.656643    -40.656637   1.000000   1.000000
   11      -40.644906    -40.644899   1.000000   1.000000
   12      -40.644511    -40.644505   1.000000   1.000000
   13      -40.590293    -40.590290   1.000000   1.000000
   14      -40.589890    -40.589888   1.000000   1.000000
   15      -40.557021    -40.557019   1.000000   1.000000
   16      -40.556065    -40.556063   1.000000   1.000000
   17      -40.546523    -40.546521   1.000000   1.000000
   18      -40.545968    -40.545966   1.000000   1.000000
   19      -40.539177    -40.539174   1.000000   1.000000
   20      -40.532913    -40.532910   1.000000   1.000000
   21      -40.525598    -40.525595   1.000000   1.000000
   22      -40.522363    -40.522359   1.000000   1.000000
   23      -40.518128    -40.518125   1.000000   1.000000
   24      -40.516499    -40.516496   1.000000   1.000000
   25      -40.505962    -40.505958   1.000000   1.000000
   26      -40.500977    -40.500974   1.000000   1.000000
   27      -40.491046    -40.491045   1.000000   1.000000
   28      -40.490455    -40.490454   1.000000   1.000000
   29      -40.480568    -40.480567   1.000000   1.000000
   30      -40.479852    -40.479852   1.000000   1.000000
   31      -40.471178    -40.471177   1.000000   1.000000
   32      -40.466583    -40.466582   1.000000   1.000000
   33      -40.459767    -40.459766   1.000000   1.000000
   34      -40.459025    -40.459024   1.000000   1.000000
   35      -40.431939    -40.431939   1.000000   1.000000
   36      -40.430135    -40.430135   1.000000   1.000000
   37      -40.429563    -40.429563   1.000000   1.000000
   38      -40.429248    -40.429248   1.000000   1.000000
   39      -40.395003    -40.395001   1.000000   1.000000
   40      -40.395000    -40.394997   1.000000   1.000000
   41      -40.369267    -40.369264   1.000000   1.000000
   42      -40.369139    -40.369136   1.000000   1.000000
   43      -40.347667    -40.347666   1.000000   1.000000
   44      -40.347214    -40.347213   1.000000   1.000000
   45      -40.282221    -40.282222   1.000000   1.000000
   46      -40.281384    -40.281385   1.000000   1.000000
   47      -40.281222    -40.281223   1.000000   1.000000
   48      -40.277396    -40.277398   1.000000   1.000000
   49      -40.276194    -40.276195   1.000000   1.000000
   50      -40.276116    -40.276117   1.000000   1.000000
   51      -39.899766    -39.899757   1.000000   1.000000
   52      -39.899584    -39.899575   1.000000   1.000000
   53      -39.888930    -39.888913   1.000000   1.000000
   54      -39.883411    -39.883394   1.000000   1.000000
   55      -39.880261    -39.880252   1.000000   1.000000
   56      -39.880248    -39.880238   1.000000   1.000000
   57      -12.836937    -12.836959   1.000000   1.000000
   58      -12.832142    -12.832165   1.000000   1.000000
   59      -12.705252    -12.705278   1.000000   1.000000
   60      -12.700632    -12.700658   1.000000   1.000000
   61      -12.698745    -12.698771   1.000000   1.000000
   62      -12.696999    -12.697026   1.000000   1.000000
   63      -12.686583    -12.686608   1.000000   1.000000
   64      -12.685794    -12.685820   1.000000   1.000000
   65       -9.641088     -9.641108   1.000000   1.000000
   66       -9.633912     -9.633933   1.000000   1.000000
   67       -9.620761     -9.620782   1.000000   1.000000
   68       -9.599610     -9.599630   1.000000   1.000000
   69       -9.554184     -9.554208   1.000000   1.000000
   70       -9.540510     -9.540535   1.000000   1.000000
   71       -9.534343     -9.534369   1.000000   1.000000
   72       -9.530052     -9.530078   1.000000   1.000000
   73       -9.524877     -9.524903   1.000000   1.000000
   74       -9.503533     -9.503555   1.000000   1.000000
   75       -9.461490     -9.461514   1.000000   1.000000
   76       -9.447129     -9.447153   1.000000   1.000000
   77       -9.446190     -9.446215   1.000000   1.000000
   78       -9.443135     -9.443161   1.000000   1.000000
   79       -9.410410     -9.410433   1.000000   1.000000
   80       -9.392983     -9.393006   1.000000   1.000000
   81       -9.358894     -9.358915   1.000000   1.000000
   82       -9.351558     -9.351581   1.000000   1.000000
   83       -9.328996     -9.329019   1.000000   1.000000
   84       -9.325441     -9.325464   1.000000   1.000000
   85       -9.300753     -9.300776   1.000000   1.000000
   86       -9.296059     -9.296084   1.000000   1.000000
   87       -9.275846     -9.275872   1.000000   1.000000
   88       -9.260253     -9.260279   1.000000   1.000000
   89       -3.000783     -3.000796   1.000000   1.000000
   90       -2.719354     -2.719369   1.000000   1.000000
   91       -2.706399     -2.706415   1.000000   1.000000
   92       -2.677098     -2.677114   1.000000   1.000000
   93       -2.672353     -2.672368   1.000000   1.000000
   94       -2.596969     -2.596986   1.000000   1.000000
   95       -2.596955     -2.596973   1.000000   1.000000
   96       -2.555751     -2.555770   1.000000   1.000000
   97       -1.159197     -1.159203   1.000000   1.000000
   98       -1.149229     -1.149234   1.000000   1.000000
   99       -1.127958     -1.127961   1.000000   1.000000
  100       -1.111340     -1.111346   1.000000   1.000000
  101       -1.091961     -1.091966   1.000000   1.000000
  102       -1.085936     -1.085941   1.000000   1.000000
  103       -0.932464     -0.932469   1.000000   1.000000
  104       -0.845650     -0.845661   1.000000   1.000000
  105       -0.815071     -0.815079   1.000000   1.000000
  106       -0.805134     -0.805142   1.000000   1.000000
  107       -0.801000     -0.801009   1.000000   1.000000
  108       -0.793171     -0.793181   1.000000   1.000000
  109       -0.754868     -0.754875   1.000000   1.000000
  110       -0.735908     -0.735919   1.000000   1.000000
  111       -0.659110     -0.659121   1.000000   1.000000
  112       -0.583461     -0.583471   1.000000   1.000000
  113       -0.461801     -0.461814   1.000000   1.000000
  114       -0.424277     -0.424291   1.000000   1.000000
  115       -0.422538     -0.422551   1.000000   1.000000
  116       -0.394582     -0.394595   1.000000   1.000000
  117       -0.389126     -0.389138   1.000000   1.000000
  118       -0.312450     -0.312464   1.000000   1.000000
  119       -0.285540     -0.285554   1.000000   1.000000
  120       -0.282538     -0.282552   1.000000   1.000000
  121        1.094163      1.094160   1.000000   1.000000
  122        1.098427      1.098425   1.000000   1.000000
  123        1.312303      1.312298   1.000000   1.000000
  124        1.313256      1.313251   1.000000   1.000000
  125        1.325328      1.325325   1.000000   1.000000
  126        1.348335      1.348330   1.000000   1.000000
  127        1.350516      1.350510   1.000000   1.000000
  128        1.402425      1.402418   1.000000   1.000000
  129        1.417757      1.417750   1.000000   1.000000
  130        1.445850      1.445842   1.000000   1.000000
  131        1.468215      1.468214   1.000000   1.000000
  132        1.472951      1.472950   1.000000   1.000000
  133        1.492208      1.492204   1.000000   1.000000
  134        1.651935      1.651927   1.000000   1.000000
  135        1.704521      1.704516   1.000000   1.000000
  136        1.730991      1.730986   1.000000   1.000000
  137        1.735178      1.735172   1.000000   1.000000
  138        1.750362      1.750352   1.000000   1.000000
  139        1.765263      1.765253   1.000000   1.000000
  140        1.882272      1.882262   1.000000   1.000000
  141        1.901643      1.901633   1.000000   1.000000
  142        1.921593      1.921581   1.000000   1.000000
  143        1.944617      1.944608   1.000000   1.000000
  144        1.961415      1.961406   1.000000   1.000000
  145        1.986212      1.986204   1.000000   1.000000
  146        1.992050      1.992040   1.000000   1.000000
  147        1.998177      1.998167   1.000000   1.000000
  148        2.015210      2.015201   1.000000   1.000000
  149        2.044481      2.044471   1.000000   1.000000
  150        2.081085      2.081070   1.000000   1.000000
  151        2.092557      2.092544   1.000000   1.000000
  152        2.276200      2.276189   1.000000   1.000000
  153        2.325394      2.325383   1.000000   1.000000
  154        2.358782      2.358768   1.000000   1.000000
  155        2.376356      2.376346   1.000000   1.000000
  156        2.404313      2.404300   1.000000   1.000000
  157        2.444686      2.444674   1.000000   1.000000
  158        2.536316      2.536306   1.000000   1.000000
  159        2.539616      2.539609   1.000000   1.000000
  160        2.563862      2.563854   1.000000   1.000000
  161        2.644054      2.644043   1.000000   1.000000
  162        2.646759      2.646748   1.000000   1.000000
  163        2.668576      2.668569   1.000000   1.000000
  164        2.696604      2.696597   1.000000   1.000000
  165        2.877287      2.877270   1.000000   1.000000
  166        2.926848      2.926835   1.000000   1.000000
  167        2.931259      2.931248   1.000000   1.000000
  168        2.938133      2.938119   1.000000   1.000000
  169        2.954380      2.954364   1.000000   1.000000
  170        3.059853      3.059839   1.000000   1.000000
  171        3.172398      3.172382   1.000000   1.000000
  172        3.180025      3.180008   1.000000   1.000000
  173        3.209894      3.209877   1.000000   1.000000
  174        3.313851      3.313837   1.000000   1.000000
  175        3.354223      3.354208   1.000000   1.000000
  176        3.357780      3.357762   1.000000   1.000000
  177        3.367465      3.367451   1.000000   1.000000
  178        3.417425      3.417405   1.000000   1.000000
  179        3.466413      3.466397   1.000000   1.000000
  180        3.469145      3.469128   1.000000   1.000000
  181        3.532035      3.532017   1.000000   1.000000
  182        3.601155      3.601135   1.000000   1.000000
  183        3.635711      3.635691   1.000000   1.000000
  184        3.660225      3.660207   1.000000   1.000000
  185        7.077037      7.077072   0.000000   0.000000
  186        7.112349      7.112391   0.000000   0.000000
  187        7.112575      7.112617   0.000000   0.000000
  188        7.717060      7.717092   0.000000   0.000000
  189        7.961940      7.961983   0.000000   0.000000
  190        8.347925      8.347957   0.000000   0.000000
  191        8.361311      8.361344   0.000000   0.000000
  192        8.425167      8.425202   0.000000   0.000000
  193        8.442484      8.442529   0.000000   0.000000
  194        8.491054      8.491098   0.000000   0.000000
  195        8.885248      8.885270   0.000000   0.000000
  196        8.905703      8.905791   0.000000   0.000000
  197        9.038418      9.038443   0.000000   0.000000
  198        9.150020      9.150049   0.000000   0.000000
  199        9.291908      9.291955   0.000000   0.000000
  200        9.295389      9.295431   0.000000   0.000000
  201        9.334702      9.334735   0.000000   0.000000
  202        9.375944      9.375975   0.000000   0.000000
  203        9.389324      9.389361   0.000000   0.000000
  204        9.398085      9.398125   0.000000   0.000000
  205        9.717570      9.717591   0.000000   0.000000
  206        9.717700      9.717734   0.000000   0.000000
  207        9.809379      9.809409   0.000000   0.000000
  208        9.812118      9.812149   0.000000   0.000000
  209        9.898608      9.898732   0.000000   0.000000
  210        9.933327      9.933390   0.000000   0.000000
  211        9.959431      9.959461   0.000000   0.000000
  212       10.090715     10.090744   0.000000   0.000000
  213       10.182863     10.182890   0.000000   0.000000
  214       10.228406     10.228450   0.000000   0.000000
  215       10.278637     10.278657   0.000000   0.000000
  216       10.315873     10.315898   0.000000   0.000000
  217       10.966233     10.966175   0.000000   0.000000
  218       11.009435     11.009444   0.000000   0.000000
  219       11.135365     11.135360   0.000000   0.000000
  220       11.152889     11.152915   0.000000   0.000000
  221       11.237151     11.237378   0.000000   0.000000
  222       11.262986     11.262951   0.000000   0.000000
  223       11.290078     11.290018   0.000000   0.000000
  224       11.310482     11.310323   0.000000   0.000000
  225       11.379168     11.378828   0.000000   0.000000
  226       11.568713     11.568796   0.000000   0.000000
  227       11.581346     11.581157   0.000000   0.000000
  228       11.602273     11.602344   0.000000   0.000000
  229       11.618197     11.618212   0.000000   0.000000
  230       11.656242     11.656215   0.000000   0.000000
  231       11.668780     11.668863   0.000000   0.000000
  232       11.678838     11.678945   0.000000   0.000000
  233       11.767593     11.767717   0.000000   0.000000
  234       11.832142     11.832187   0.000000   0.000000
  235       11.908232     11.908623   0.000000   0.000000
  236       11.925443     11.925082   0.000000   0.000000
  237       12.028123     12.027725   0.000000   0.000000
  238       12.207997     12.208910   0.000000   0.000000
  239       12.243546     12.243397   0.000000   0.000000
  240       12.279293     12.279572   0.000000   0.000000
  241       12.341249     12.342648   0.000000   0.000000
  242       12.560665     12.557572   0.000000   0.000000
  243       12.590585     12.592652   0.000000   0.000000
  244       12.785407     12.786638   0.000000   0.000000
  245       12.852394     12.839597   0.000000   0.000000
  246       12.896801     12.884863   0.000000   0.000000
  247       12.905503     12.913210   0.000000   0.000000
  248       12.978758     12.987033   0.000000   0.000000
  249       12.986916     12.997367   0.000000   0.000000
  250       13.010478     13.039184   0.000000   0.000000
  251       13.067700     13.082830   0.000000   0.000000
  252       13.123391     13.106828   0.000000   0.000000
  253       13.134021     13.151212   0.000000   0.000000
  254       13.194548     13.176218   0.000000   0.000000
  255       13.196343     13.222589   0.000000   0.000000
  256       13.264730     13.261933   0.000000   0.000000
  257       13.312713     13.298029   0.000000   0.000000
  258       13.430131     13.348938   0.000000   0.000000
  259       13.497378     13.414625   0.000000   0.000000
  260       13.516311     13.540995   0.000000   0.000000
  261       13.606990     13.653490   0.000000   0.000000
  262       13.784962     13.657730   0.000000   0.000000
  263       13.957674     13.826172   0.000000   0.000000
  264       14.045472     13.977275   0.000000   0.000000
 
  0.3333333E+00  0.7325019E-18  0.0000000E+00  0.1481481E+00
    1      -40.857411    -40.857414   1.000000   1.000000
    2      -40.856638    -40.856641   1.000000   1.000000
    3      -40.852210    -40.852214   1.000000   1.000000
    4      -40.851574    -40.851577   1.000000   1.000000
    5      -40.828759    -40.828758   1.000000   1.000000
    6      -40.828399    -40.828398   1.000000   1.000000
    7      -40.822925    -40.822924   1.000000   1.000000
    8      -40.822701    -40.822700   1.000000   1.000000
    9      -40.656559    -40.656553   1.000000   1.000000
   10      -40.654681    -40.654675   1.000000   1.000000
   11      -40.647205    -40.647199   1.000000   1.000000
   12      -40.644568    -40.644562   1.000000   1.000000
   13      -40.590068    -40.590065   1.000000   1.000000
   14      -40.589593    -40.589590   1.000000   1.000000
   15      -40.556470    -40.556468   1.000000   1.000000
   16      -40.554728    -40.554726   1.000000   1.000000
   17      -40.548830    -40.548828   1.000000   1.000000
   18      -40.546275    -40.546273   1.000000   1.000000
   19      -40.537458    -40.537454   1.000000   1.000000
   20      -40.534041    -40.534037   1.000000   1.000000
   21      -40.523886    -40.523883   1.000000   1.000000
   22      -40.521867    -40.521863   1.000000   1.000000
   23      -40.519169    -40.519165   1.000000   1.000000
   24      -40.516772    -40.516769   1.000000   1.000000
   25      -40.507265    -40.507261   1.000000   1.000000
   26      -40.502720    -40.502716   1.000000   1.000000
   27      -40.491107    -40.491106   1.000000   1.000000
   28      -40.490293    -40.490291   1.000000   1.000000
   29      -40.479813    -40.479813   1.000000   1.000000
   30      -40.478579    -40.478578   1.000000   1.000000
   31      -40.469831    -40.469830   1.000000   1.000000
   32      -40.466456    -40.466455   1.000000   1.000000
   33      -40.461835    -40.461833   1.000000   1.000000
   34      -40.458583    -40.458582   1.000000   1.000000
   35      -40.433972    -40.433972   1.000000   1.000000
   36      -40.429957    -40.429957   1.000000   1.000000
   37      -40.429791    -40.429791   1.000000   1.000000
   38      -40.427005    -40.427005   1.000000   1.000000
   39      -40.394953    -40.394951   1.000000   1.000000
   40      -40.391953    -40.391950   1.000000   1.000000
   41      -40.376242    -40.376239   1.000000   1.000000
   42      -40.369179    -40.369175   1.000000   1.000000
   43      -40.347422    -40.347420   1.000000   1.000000
   44      -40.342757    -40.342756   1.000000   1.000000
   45      -40.282565    -40.282566   1.000000   1.000000
   46      -40.281404    -40.281406   1.000000   1.000000
   47      -40.280045    -40.280047   1.000000   1.000000
   48      -40.277701    -40.277703   1.000000   1.000000
   49      -40.277468    -40.277469   1.000000   1.000000
   50      -40.276214    -40.276216   1.000000   1.000000
   51      -39.899692    -39.899683   1.000000   1.000000
   52      -39.899327    -39.899318   1.000000   1.000000
   53      -39.888935    -39.888918   1.000000   1.000000
   54      -39.883403    -39.883387   1.000000   1.000000
   55      -39.880549    -39.880540   1.000000   1.000000
   56      -39.880255    -39.880246   1.000000   1.000000
   57      -12.835082    -12.835104   1.000000   1.000000
   58      -12.832705    -12.832728   1.000000   1.000000
   59      -12.704360    -12.704383   1.000000   1.000000
   60      -12.700624    -12.700647   1.000000   1.000000
   61      -12.699605    -12.699630   1.000000   1.000000
   62      -12.697739    -12.697765   1.000000   1.000000
   63      -12.686779    -12.686803   1.000000   1.000000
   64      -12.686401    -12.686426   1.000000   1.000000
   65       -9.643499     -9.643520   1.000000   1.000000
   66       -9.624650     -9.624671   1.000000   1.000000
   67       -9.617666     -9.617687   1.000000   1.000000
   68       -9.603794     -9.603815   1.000000   1.000000
   69       -9.549239     -9.549263   1.000000   1.000000
   70       -9.541412     -9.541438   1.000000   1.000000
   71       -9.539726     -9.539750   1.000000   1.000000
   72       -9.523523     -9.523548   1.000000   1.000000
   73       -9.521913     -9.521938   1.000000   1.000000
   74       -9.509392     -9.509414   1.000000   1.000000
   75       -9.472214     -9.472239   1.000000   1.000000
   76       -9.448805     -9.448831   1.000000   1.000000
   77       -9.444592     -9.444617   1.000000   1.000000
   78       -9.434266     -9.434291   1.000000   1.000000
   79       -9.409699     -9.409722   1.000000   1.000000
   80       -9.395291     -9.395314   1.000000   1.000000
   81       -9.359414     -9.359436   1.000000   1.000000
   82       -9.353339     -9.353361   1.000000   1.000000
   83       -9.328671     -9.328693   1.000000   1.000000
   84       -9.318874     -9.318897   1.000000   1.000000
   85       -9.304251     -9.304275   1.000000   1.000000
   86       -9.291658     -9.291683   1.000000   1.000000
   87       -9.279530     -9.279556   1.000000   1.000000
   88       -9.267105     -9.267131   1.000000   1.000000
   89       -2.942421     -2.942434   1.000000   1.000000
   90       -2.809929     -2.809944   1.000000   1.000000
   91       -2.696200     -2.696215   1.000000   1.000000
   92       -2.692711     -2.692726   1.000000   1.000000
   93       -2.644402     -2.644418   1.000000   1.000000
   94       -2.601764     -2.601782   1.000000   1.000000
   95       -2.583929     -2.583946   1.000000   1.000000
   96       -2.577593     -2.577611   1.000000   1.000000
   97       -1.138661     -1.138667   1.000000   1.000000
   98       -1.130456     -1.130461   1.000000   1.000000
   99       -1.096752     -1.096758   1.000000   1.000000
  100       -1.072043     -1.072049   1.000000   1.000000
  101       -1.053565     -1.053570   1.000000   1.000000
  102       -1.036931     -1.036936   1.000000   1.000000
  103       -0.975825     -0.975830   1.000000   1.000000
  104       -0.881115     -0.881125   1.000000   1.000000
  105       -0.860723     -0.860731   1.000000   1.000000
  106       -0.847280     -0.847287   1.000000   1.000000
  107       -0.745471     -0.745483   1.000000   1.000000
  108       -0.720757     -0.720767   1.000000   1.000000
  109       -0.707004     -0.707014   1.000000   1.000000
  110       -0.682874     -0.682884   1.000000   1.000000
  111       -0.634306     -0.634317   1.000000   1.000000
  112       -0.592970     -0.592981   1.000000   1.000000
  113       -0.513663     -0.513675   1.000000   1.000000
  114       -0.487367     -0.487379   1.000000   1.000000
  115       -0.479609     -0.479620   1.000000   1.000000
  116       -0.432972     -0.432985   1.000000   1.000000
  117       -0.384534     -0.384547   1.000000   1.000000
  118       -0.367582     -0.367595   1.000000   1.000000
  119       -0.304142     -0.304155   1.000000   1.000000
  120       -0.280054     -0.280068   1.000000   1.000000
  121        1.125390      1.125388   1.000000   1.000000
  122        1.162003      1.161999   1.000000   1.000000
  123        1.257340      1.257335   1.000000   1.000000
  124        1.273201      1.273197   1.000000   1.000000
  125        1.321028      1.321025   1.000000   1.000000
  126        1.328117      1.328114   1.000000   1.000000
  127        1.358953      1.358949   1.000000   1.000000
  128        1.363105      1.363101   1.000000   1.000000
  129        1.383835      1.383832   1.000000   1.000000
  130        1.393009      1.393006   1.000000   1.000000
  131        1.415506      1.415499   1.000000   1.000000
  132        1.453906      1.453899   1.000000   1.000000
  133        1.546192      1.546184   1.000000   1.000000
  134        1.551752      1.551745   1.000000   1.000000
  135        1.592659      1.592652   1.000000   1.000000
  136        1.689334      1.689324   1.000000   1.000000
  137        1.744927      1.744919   1.000000   1.000000
  138        1.756397      1.756390   1.000000   1.000000
  139        1.798125      1.798114   1.000000   1.000000
  140        1.886832      1.886823   1.000000   1.000000
  141        1.906212      1.906202   1.000000   1.000000
  142        1.919787      1.919778   1.000000   1.000000
  143        1.930670      1.930662   1.000000   1.000000
  144        1.939986      1.939976   1.000000   1.000000
  145        1.954459      1.954452   1.000000   1.000000
  146        1.999236      1.999226   1.000000   1.000000
  147        2.031431      2.031420   1.000000   1.000000
  148        2.038537      2.038527   1.000000   1.000000
  149        2.101666      2.101656   1.000000   1.000000
  150        2.206949      2.206936   1.000000   1.000000
  151        2.233477      2.233466   1.000000   1.000000
  152        2.249108      2.249096   1.000000   1.000000
  153        2.308643      2.308629   1.000000   1.000000
  154        2.335510      2.335498   1.000000   1.000000
  155        2.357688      2.357676   1.000000   1.000000
  156        2.485756      2.485744   1.000000   1.000000
  157        2.511458      2.511447   1.000000   1.000000
  158        2.591104      2.591093   1.000000   1.000000
  159        2.600521      2.600510   1.000000   1.000000
  160        2.615761      2.615749   1.000000   1.000000
  161        2.685852      2.685840   1.000000   1.000000
  162        2.703478      2.703464   1.000000   1.000000
  163        2.757485      2.757474   1.000000   1.000000
  164        2.781171      2.781160   1.000000   1.000000
  165        2.874674      2.874664   1.000000   1.000000
  166        2.901938      2.901926   1.000000   1.000000
  167        2.931283      2.931271   1.000000   1.000000
  168        2.962382      2.962369   1.000000   1.000000
  169        3.039004      3.038990   1.000000   1.000000
  170        3.089140      3.089126   1.000000   1.000000
  171        3.137440      3.137425   1.000000   1.000000
  172        3.157221      3.157206   1.000000   1.000000
  173        3.206189      3.206173   1.000000   1.000000
  174        3.254787      3.254772   1.000000   1.000000
  175        3.283617      3.283603   1.000000   1.000000
  176        3.296365      3.296349   1.000000   1.000000
  177        3.337312      3.337296   1.000000   1.000000
  178        3.376406      3.376390   1.000000   1.000000
  179        3.395891      3.395874   1.000000   1.000000
  180        3.414467      3.414450   1.000000   1.000000
  181        3.523775      3.523758   1.000000   1.000000
  182        3.547638      3.547620   1.000000   1.000000
  183        3.559628      3.559609   1.000000   1.000000
  184        3.586160      3.586142   1.000000   1.000000
  185        7.227373      7.227426   0.000000   0.000000
  186        7.464221      7.464268   0.000000   0.000000
  187        7.496082      7.496126   0.000000   0.000000
  188        7.659660      7.659723   0.000000   0.000000
  189        8.019881      8.019910   0.000000   0.000000
  190        8.330318      8.330353   0.000000   0.000000
  191        8.435435      8.435470   0.000000   0.000000
  192        8.480851      8.480883   0.000000   0.000000
  193        8.512930      8.512960   0.000000   0.000000
  194        8.520395      8.520428   0.000000   0.000000
  195        8.692191      8.692222   0.000000   0.000000
  196        8.785228      8.785263   0.000000   0.000000
  197        8.889534      8.889579   0.000000   0.000000
  198        9.034744      9.034776   0.000000   0.000000
  199        9.042903      9.042930   0.000000   0.000000
  200        9.088674      9.088707   0.000000   0.000000
  201        9.260083      9.260110   0.000000   0.000000
  202        9.307684      9.307717   0.000000   0.000000
  203        9.354956      9.354986   0.000000   0.000000
  204        9.418066      9.418094   0.000000   0.000000
  205        9.504097      9.504148   0.000000   0.000000
  206        9.542071      9.542102   0.000000   0.000000
  207        9.616176      9.616215   0.000000   0.000000
  208        9.688663      9.688693   0.000000   0.000000
  209        9.794434      9.794438   0.000000   0.000000
  210        9.899374      9.899395   0.000000   0.000000
  211        9.926831      9.926886   0.000000   0.000000
  212        9.969132      9.969163   0.000000   0.000000
  213       10.068218     10.068254   0.000000   0.000000
  214       10.190819     10.190867   0.000000   0.000000
  215       10.304967     10.304993   0.000000   0.000000
  216       10.390318     10.390351   0.000000   0.000000
  217       10.922842     10.922865   0.000000   0.000000
  218       11.018317     11.018314   0.000000   0.000000
  219       11.073380     11.073376   0.000000   0.000000
  220       11.149964     11.149941   0.000000   0.000000
  221       11.227599     11.227559   0.000000   0.000000
  222       11.251098     11.251098   0.000000   0.000000
  223       11.354479     11.354708   0.000000   0.000000
  224       11.431760     11.431552   0.000000   0.000000
  225       11.501518     11.501331   0.000000   0.000000
  226       11.546133     11.546160   0.000000   0.000000
  227       11.611262     11.611279   0.000000   0.000000
  228       11.665930     11.665850   0.000000   0.000000
  229       11.709099     11.709010   0.000000   0.000000
  230       11.739070     11.739194   0.000000   0.000000
  231       11.803862     11.803884   0.000000   0.000000
  232       11.844488     11.844164   0.000000   0.000000
  233       11.907212     11.907884   0.000000   0.000000
  234       11.941799     11.941319   0.000000   0.000000
  235       11.955866     11.956088   0.000000   0.000000
  236       12.030274     12.030006   0.000000   0.000000
  237       12.097414     12.098545   0.000000   0.000000
  238       12.210224     12.211276   0.000000   0.000000
  239       12.260564     12.260018   0.000000   0.000000
  240       12.297573     12.292121   0.000000   0.000000
  241       12.429919     12.426672   0.000000   0.000000
  242       12.484246     12.488532   0.000000   0.000000
  243       12.589352     12.586611   0.000000   0.000000
  244       12.692143     12.677367   0.000000   0.000000
  245       12.743217     12.750378   0.000000   0.000000
  246       12.830097     12.829812   0.000000   0.000000
  247       12.902141     12.881486   0.000000   0.000000