       N       E                     dE             d eps       ncg     rms          rms(c)
DAV:   1     0.348278873843E+04    0.34828E+04   -0.15332E+05  8448   0.156E+03
DAV:   2     0.351671852305E+02   -0.34476E+04   -0.31063E+04  9000   0.436E+02
DAV:   3    -0.448618360119E+03   -0.48379E+03   -0.47711E+03 11392   0.146E+02
DAV:   4    -0.518451210456E+03   -0.69833E+02   -0.69094E+02 15144   0.476E+01
DAV:   5    -0.525394350312E+03   -0.69431E+01   -0.69377E+01 13496   0.126E+01    0.739E+01
RMM:   6    -0.469169512626E+03    0.56225E+02   -0.20850E+02 10133   0.209E+01    0.322E+01
RMM:   7    -0.482514386721E+03   -0.13345E+02   -0.46939E+01 13519   0.122E+01    0.173E+01
RMM:   8    -0.485113603561E+03   -0.25992E+01   -0.11726E+01 15172   0.566E+00    0.910E+00
RMM:   9    -0.485899440497E+03   -0.78584E+00   -0.53227E+00 13768   0.434E+00    0.303E+00
RMM:  10    -0.485988949400E+03   -0.89509E-01   -0.22362E+00 15108   0.283E+00    0.161E+00
RMM:  11    -0.486084720632E+03   -0.95771E-01   -0.13801E+00 15667   0.164E+00    0.126E+00
RMM:  12    -0.486159606758E+03   -0.74886E-01   -0.66073E-01 15993   0.108E+00    0.104E+00
RMM:  13    -0.486191670007E+03   -0.32063E-01   -0.27436E-01 15550   0.732E-01    0.492E-01
RMM:  14    -0.486205003241E+03   -0.13333E-01   -0.12087E-01 15955   0.524E-01    0.103E-01
RMM:  15    -0.486212391983E+03   -0.73887E-02   -0.68779E-02 16000   0.361E-01    0.860E-02
RMM:  16    -0.486215988359E+03   -0.35964E-02   -0.32864E-02 16000   0.254E-01    0.775E-02
RMM:  17    -0.486217790271E+03   -0.18019E-02   -0.18062E-02 14967   0.184E-01    0.362E-02
RMM:  18    -0.486218821282E+03   -0.10310E-02   -0.10480E-02 14254   0.138E-01    0.141E-02
RMM:  19    -0.486219464309E+03   -0.64303E-03   -0.58952E-03 14208   0.104E-01    0.235E-02
RMM:  20    -0.486219830328E+03   -0.36602E-03   -0.35495E-03 14202   0.786E-02    0.212E-02
RMM:  21    -0.486220063597E+03   -0.23327E-03   -0.22690E-03 14064   0.605E-02    0.242E-02
RMM:  22    -0.486220240813E+03   -0.17722E-03   -0.14800E-03 13994   0.475E-02    0.441E-02
RMM:  23    -0.486220305790E+03   -0.64977E-04   -0.94043E-04 13635   0.380E-02    0.260E-02
RMM:  24    -0.486220352554E+03   -0.46764E-04   -0.61510E-04 11732   0.301E-02    0.149E-02
RMM:  25    -0.486220379743E+03   -0.27189E-04   -0.45159E-04 12754   0.272E-02    0.659E-03
RMM:  26    -0.486220403284E+03   -0.23541E-04   -0.29104E-04 10905   0.218E-02    0.965E-03
RMM:  27    -0.486220423621E+03   -0.20337E-04   -0.21088E-04 10908   0.189E-02    0.983E-03
RMM:  28    -0.486220437627E+03   -0.14006E-04   -0.14439E-04 10215   0.164E-02    0.993E-03
RMM:  29    -0.486220445491E+03   -0.78635E-05   -0.10684E-04 10177   0.152E-02    0.120E-02
RMM:  30    -0.486220454447E+03   -0.89565E-05   -0.72932E-05  9780   0.139E-02
   1 F= -.48622045E+03 E0= -.48622045E+03  d E =0.000000E+00  mag=     0.0000
