   16   16    1    2
  0.9258631E+01  0.4528652E-09  0.5296402E-09  0.6176136E-09  0.5000000E-15
  1.000000000000000E-004
  CAR 
 unknown system                          
     76     48     52
 
  0.0000000E+00  0.0000000E+00  0.0000000E+00  0.4761905E-02
    1      -40.564232    -40.564247   1.000000   1.000000
    2      -40.562993    -40.563008   1.000000   1.000000
    3      -40.244336    -40.244350   1.000000   1.000000
    4      -40.236381    -40.236395   1.000000   1.000000
    5      -40.229697    -40.229711   1.000000   1.000000
    6      -40.221414    -40.221429   1.000000   1.000000
    7      -18.588351    -18.588353   1.000000   1.000000
    8      -18.408029    -18.408030   1.000000   1.000000
    9      -15.761809    -15.761805   1.000000   1.000000
   10      -15.708798    -15.708794   1.000000   1.000000
   11      -15.490140    -15.490134   1.000000   1.000000
   12      -15.445701    -15.445695   1.000000   1.000000
   13      -15.391348    -15.391342   1.000000   1.000000
   14      -15.346430    -15.346424   1.000000   1.000000
   15       -5.062219     -5.062219   1.000000   1.000000
   16       -4.796286     -4.796285   1.000000   1.000000
   17       -3.403060     -3.403054   1.000000   1.000000
   18       -3.329021     -3.329017   1.000000   1.000000
   19       -3.134312     -3.134311   1.000000   1.000000
   20       -3.129797     -3.129793   1.000000   1.000000
   21       -2.913996     -2.913993   1.000000   1.000000
   22       -2.832287     -2.832285   1.000000   1.000000
   23       -0.887471     -0.887460   1.000000   1.000000
   24       -0.862633     -0.862626   1.000000   1.000000
   25       -0.808656     -0.808647   1.000000   1.000000
   26       -0.612138     -0.612129   1.000000   1.000000
   27       -0.408419     -0.408411   1.000000   1.000000
   28       -0.358350     -0.358340   1.000000   1.000000
   29       -0.288302     -0.288292   1.000000   1.000000
   30        0.503047      0.503055   1.000000   1.000000
   31        0.554369      0.554379   1.000000   1.000000
   32        0.820245      0.820256   1.000000   1.000000
   33        0.927391      0.927402   1.000000   1.000000
   34        1.175509      1.175521   1.000000   1.000000
   35        1.186471      1.186484   1.000000   1.000000
   36        1.254123      1.254137   1.000000   1.000000
   37        1.532811      1.532822   1.000000   1.000000
   38        1.601559      1.601574   1.000000   1.000000
   39        8.055432      8.055442   0.000000   0.000000
   40       10.166064     10.166101   0.000000   0.000000
   41       11.102335     11.101351   0.000000   0.000000
   42       11.224863     11.224066   0.000000   0.000000
   43       11.278417     11.278337   0.000000   0.000000
   44       11.772861     11.772746   0.000000   0.000000
   45       11.923676     11.924432   0.000000   0.000000
   46       12.499195     12.499468   0.000000   0.000000
   47       13.039215     13.039384   0.000000   0.000000
   48       13.086150     13.085857   0.000000   0.000000
   49       14.226545     14.328189   0.000000   0.000000
   50       14.595543     14.580682   0.000000   0.000000
   51       15.052632     15.051869   0.000000   0.000000
   52       15.136077     15.195666   0.000000   0.000000
 
  0.1428571E+00  0.0000000E+00  0.0000000E+00  0.9523810E-02
    1      -40.564069    -40.564084   1.000000   1.000000
    2      -40.562957    -40.562971   1.000000   1.000000
    3      -40.243663    -40.243677   1.000000   1.000000
    4      -40.235646    -40.235660   1.000000   1.000000
    5      -40.230453    -40.230467   1.000000   1.000000
    6      -40.222123    -40.222138   1.000000   1.000000
    7      -18.566319    -18.566321   1.000000   1.000000
    8      -18.401804    -18.401806   1.000000   1.000000
    9      -15.790267    -15.790263   1.000000   1.000000
   10      -15.739511    -15.739507   1.000000   1.000000
   11      -15.484757    -15.484751   1.000000   1.000000
   12      -15.444802    -15.444796   1.000000   1.000000
   13      -15.395652    -15.395646   1.000000   1.000000
   14      -15.355346    -15.355340   1.000000   1.000000
   15       -5.109304     -5.109304   1.000000   1.000000
   16       -4.810625     -4.810625   1.000000   1.000000
   17       -3.275823     -3.275820   1.000000   1.000000
   18       -3.232273     -3.232268   1.000000   1.000000
   19       -3.099442     -3.099442   1.000000   1.000000
   20       -3.050144     -3.050140   1.000000   1.000000
   21       -2.875024     -2.875020   1.000000   1.000000
   22       -2.827701     -2.827699   1.000000   1.000000
   23       -0.956861     -0.956850   1.000000   1.000000
   24       -0.917624     -0.917617   1.000000   1.000000
   25       -0.916721     -0.916712   1.000000   1.000000
   26       -0.693066     -0.693057   1.000000   1.000000
   27       -0.303814     -0.303806   1.000000   1.000000
   28       -0.297382     -0.297373   1.000000   1.000000
   29       -0.281682     -0.281673   1.000000   1.000000
   30        0.468744      0.468752   1.000000   1.000000
   31        0.508622      0.508632   1.000000   1.000000
   32        0.619462      0.619472   1.000000   1.000000
   33        0.972928      0.972939   1.000000   1.000000
   34        1.220077      1.220090   1.000000   1.000000
   35        1.231614      1.231627   1.000000   1.000000
   36        1.329697      1.329711   1.000000   1.000000
   37        1.485092      1.485104   1.000000   1.000000
   38        1.647960      1.647974   1.000000   1.000000
   39        8.233946      8.233957   0.000000   0.000000
   40       10.141329     10.141502   0.000000   0.000000
   41       10.731463     10.730626   0.000000   0.000000
   42       11.040525     11.041309   0.000000   0.000000
   43       11.489082     11.488788   0.000000   0.000000
   44       11.826284     11.826221   0.000000   0.000000
   45       12.006587     12.005963   0.000000   0.000000
   46       12.437595     12.437654   0.000000   0.000000
   47       13.007199     13.007084   0.000000   0.000000
   48       13.071148     13.071488   0.000000   0.000000
   49       14.174277     14.174706   0.000000   0.000000
   50       14.447549     14.416780   0.000000   0.000000
   51       14.675535     14.562574   0.000000   0.000000
   52       14.998606     14.796939   0.000000   0.000000
 
  0.2857143E+00  0.0000000E+00  0.0000000E+00  0.9523810E-02
    1      -40.563638    -40.563653   1.000000   1.000000
    2      -40.562866    -40.562881   1.000000   1.000000
    3      -40.241726    -40.241741   1.000000   1.000000
    4      -40.233467    -40.233481   1.000000   1.000000
    5      -40.232574    -40.232589   1.000000   1.000000
    6      -40.224102    -40.224116   1.000000   1.000000
    7      -18.510202    -18.510204   1.000000   1.000000
    8      -18.392731    -18.392733   1.000000   1.000000
    9      -15.851769    -15.851765   1.000000   1.000000
   10      -15.811709    -15.811705   1.000000   1.000000
   11      -15.468592    -15.468586   1.000000   1.000000
   12      -15.441140    -15.441134   1.000000   1.000000
   13      -15.406800    -15.406793   1.000000   1.000000
   14      -15.379077    -15.379071   1.000000   1.000000
   15       -5.163933     -5.163931   1.000000   1.000000
   16       -4.889551     -4.889551   1.000000   1.000000
   17       -3.163442     -3.163440   1.000000   1.000000
   18       -3.046946     -3.046944   1.000000   1.000000
   19       -3.009232     -3.009231   1.000000   1.000000
   20       -2.821634     -2.821632   1.000000   1.000000
   21       -2.750337     -2.750331   1.000000   1.000000
   22       -2.580918     -2.580913   1.000000   1.000000
   23       -1.086312     -1.086303   1.000000   1.000000
   24       -1.085779     -1.085768   1.000000   1.000000
   25       -1.047695     -1.047687   1.000000   1.000000
   26       -0.864826     -0.864816   1.000000   1.000000
   27       -0.380426     -0.380416   1.000000   1.000000
   28       -0.131245     -0.131236   1.000000   1.000000
   29       -0.117879     -0.117870   1.000000   1.000000
   30        0.110949      0.110960   1.000000   1.000000
   31        0.373260      0.373268   1.000000   1.000000
   32        0.400710      0.400720   1.000000   1.000000
   33        1.041157      1.041169   1.000000   1.000000
   34        1.328562      1.328576   1.000000   1.000000
   35        1.375126      1.375138   1.000000   1.000000
   36        1.408422      1.408434   1.000000   1.000000
   37        1.470104      1.470118   1.000000   1.000000
   38        1.723244      1.723258   1.000000   1.000000
   39        8.688508      8.688518   0.000000   0.000000
   40        9.940973      9.941476   0.000000   0.000000
   41       10.424865     10.424928   0.000000   0.000000
   42       10.858659     10.858730   0.000000   0.000000
   43       11.549427     11.549218   0.000000   0.000000
   44       11.826935     11.827306   0.000000   0.000000
   45       11.934861     11.935203   0.000000   0.000000
   46       12.285407     12.285518   0.000000   0.000000
   47       12.977424     12.976814   0.000000   0.000000
   48       13.061902     13.060543   0.000000   0.000000
   49       13.934226     13.869905   0.000000   0.000000
   50       14.077464     14.144153   0.000000   0.000000
   51       14.322525     14.320239   0.000000   0.000000
   52       14.735791     14.379817   0.000000   0.000000
 
  0.4285714E+00  0.0000000E+00  0.0000000E+00  0.9523810E-02
    1      -40.563205    -40.563219   1.000000   1.000000
    2      -40.562938    -40.562952   1.000000   1.000000
    3      -40.238864    -40.238878   1.000000   1.000000
    4      -40.235604    -40.235618   1.000000   1.000000
    5      -40.230431    -40.230446   1.000000   1.000000
    6      -40.227070    -40.227085   1.000000   1.000000
    7      -18.446014    -18.446017   1.000000   1.000000
    8      -18.403018    -18.403021   1.000000   1.000000
    9      -15.893985    -15.893981   1.000000   1.000000
   10      -15.878118    -15.878114   1.000000   1.000000
   11      -15.442887    -15.442881   1.000000   1.000000
   12      -15.433070    -15.433064   1.000000   1.000000
   13      -15.420760    -15.420754   1.000000   1.000000
   14      -15.410948    -15.410943   1.000000   1.000000
   15       -5.136107     -5.136106   1.000000   1.000000
   16       -5.024705     -5.024704   1.000000   1.000000
   17       -3.069411     -3.069409   1.000000   1.000000
   18       -3.027038     -3.027036   1.000000   1.000000
   19       -2.905778     -2.905778   1.000000   1.000000
   20       -2.838856     -2.838855   1.000000   1.000000
   21       -2.305591     -2.305587   1.000000   1.000000
   22       -2.196264     -2.196260   1.000000   1.000000
   23       -1.187497     -1.187489   1.000000   1.000000
   24       -1.166849     -1.166841   1.000000   1.000000
   25       -1.137715     -1.137704   1.000000   1.000000
   26       -1.041311     -1.041301   1.000000   1.000000
   27       -0.547017     -0.547007   1.000000   1.000000
   28       -0.445843     -0.445831   1.000000   1.000000
   29        0.064110      0.064118   1.000000   1.000000
   30        0.074729      0.074738   1.000000   1.000000
   31        0.232212      0.232220   1.000000   1.000000
   32        0.252833      0.252842   1.000000   1.000000
   33        1.123657      1.123668   1.000000   1.000000
   34        1.241346      1.241358   1.000000   1.000000
   35        1.466244      1.466259   1.000000   1.000000
   36        1.533541      1.533555   1.000000   1.000000
   37        1.614188      1.614201   1.000000   1.000000
   38        1.731181      1.731194   1.000000   1.000000
   39        9.215542      9.215565   0.000000   0.000000
   40        9.610058      9.610099   0.000000   0.000000
   41       10.506776     10.507114   0.000000   0.000000
   42       10.683501     10.683631   0.000000   0.000000
   43       11.379952     11.380008   0.000000   0.000000
   44       11.468669     11.468731   0.000000   0.000000
   45       12.026577     12.026687   0.000000   0.000000
   46       12.129075     12.129197   0.000000   0.000000
   47       12.983217     12.983399   0.000000   0.000000
   48       13.130382     13.129986   0.000000   0.000000
   49       13.751060     13.741816   0.000000   0.000000
   50       13.981832     13.974608   0.000000   0.000000
   51       14.089562     14.090992   0.000000   0.000000
   52       14.856515     14.991022   0.000000   0.000000
 
  0.0000000E+00  0.1666667E+00  0.0000000E+00  0.9523810E-02
    1      -40.564164    -40.564179   1.000000   1.000000
    2      -40.563028    -40.563043   1.000000   1.000000
    3      -40.244471    -40.244485   1.000000   1.000000
    4      -40.236367    -40.236381   1.000000   1.000000
    5      -40.229631    -40.229645   1.000000   1.000000
    6      -40.221469    -40.221483   1.000000   1.000000
    7      -18.579663    -18.579665   1.000000   1.000000
    8      -18.413507    -18.413508   1.000000   1.000000
    9      -15.758997    -15.758993   1.000000   1.000000
   10      -15.707631    -15.707627   1.000000   1.000000
   11      -15.483172    -15.483166   1.000000   1.000000
   12      -15.473215    -15.473209   1.000000   1.000000
   13      -15.378646    -15.378640   1.000000   1.000000
   14      -15.354721    -15.354716   1.000000   1.000000
   15       -5.039329     -5.039328   1.000000   1.000000
   16       -4.796410     -4.796409   1.000000   1.000000
   17       -3.392300     -3.392294   1.000000   1.000000
   18       -3.312565     -3.312560   1.000000   1.000000
   19       -3.139993     -3.139992   1.000000   1.000000
   20       -3.123193     -3.123189   1.000000   1.000000
   21       -2.873873     -2.873871   1.000000   1.000000
   22       -2.804725     -2.804724   1.000000   1.000000
   23       -0.949981     -0.949973   1.000000   1.000000
   24       -0.945058     -0.945048   1.000000   1.000000
   25       -0.747696     -0.747687   1.000000   1.000000
   26       -0.559551     -0.559543   1.000000   1.000000
   27       -0.471147     -0.471136   1.000000   1.000000
   28       -0.390305     -0.390298   1.000000   1.000000
   29       -0.089866     -0.089857   1.000000   1.000000
   30        0.307528      0.307536   1.000000   1.000000
   31        0.551536      0.551546   1.000000   1.000000
   32        0.774374      0.774384   1.000000   1.000000
   33        0.965528      0.965539   1.000000   1.000000
   34        1.106503      1.106515   1.000000   1.000000
   35        1.138152      1.138165   1.000000   1.000000
   36        1.315820      1.315834   1.000000   1.000000
   37        1.519325      1.519338   1.000000   1.000000
   38        1.644201      1.644214   1.000000   1.000000
   39        8.297865      8.297875   0.000000   0.000000
   40        9.979233      9.979162   0.000000   0.000000
   41       10.714863     10.714714   0.000000   0.000000
   42       11.183597     11.183582   0.000000   0.000000
   43       11.724131     11.724228   0.000000   0.000000
   44       11.823435     11.823359   0.000000   0.000000
   45       12.071754     12.071622   0.000000   0.000000
   46       12.441413     12.441335   0.000000   0.000000
   47       12.844339     12.844291   0.000000   0.000000
   48       12.970608     12.970888   0.000000   0.000000
   49       13.912153     13.910824   0.000000   0.000000
   50       14.502201     14.485677   0.000000   0.000000
   51       14.834220     15.046111   0.000000   0.000000
   52       15.493112     15.550798   0.000000   0.000000
 
  0.1428571E+00  0.1666667E+00  0.0000000E+00  0.1904762E-01
    1      -40.563996    -40.564011   1.000000   1.000000
    2      -40.562961    -40.562975   1.000000   1.000000
    3      -40.243771    -40.243785   1.000000   1.000000
    4      -40.235583    -40.235597   1.000000   1.000000
    5      -40.230411    -40.230425   1.000000   1.000000
    6      -40.222149    -40.222163   1.000000   1.000000
    7      -18.558199    -18.558201   1.000000   1.000000
    8      -18.406547    -18.406550   1.000000   1.000000
    9      -15.787541    -15.787537   1.000000   1.000000
   10      -15.738196    -15.738192   1.000000   1.000000
   11      -15.478464    -15.478458   1.000000   1.000000
   12      -15.470169    -15.470163   1.000000   1.000000
   13      -15.385172    -15.385165   1.000000   1.000000
   14      -15.362703    -15.362697   1.000000   1.000000
   15       -5.085478     -5.085478   1.000000   1.000000
   16       -4.816444     -4.816444   1.000000   1.000000
   17       -3.265624     -3.265620   1.000000   1.000000
   18       -3.195962     -3.195958   1.000000   1.000000
   19       -3.111428     -3.111428   1.000000   1.000000
   20       -3.044508     -3.044504   1.000000   1.000000
   21       -2.847583     -2.847580   1.000000   1.000000
   22       -2.801703     -2.801701   1.000000   1.000000
   23       -1.023960     -1.023951   1.000000   1.000000
   24       -0.984949     -0.984939   1.000000   1.000000
   25       -0.795606     -0.795598   1.000000   1.000000
   26       -0.627507     -0.627498   1.000000   1.000000
   27       -0.471424     -0.471414   1.000000   1.000000
   28       -0.316150     -0.316142   1.000000   1.000000
   29       -0.069268     -0.069258   1.000000   1.000000
   30        0.245223      0.245231   1.000000   1.000000
   31        0.505218      0.505227   1.000000   1.000000
   32        0.620843      0.620853   1.000000   1.000000
   33        0.995322      0.995333   1.000000   1.000000
   34        1.172763      1.172775   1.000000   1.000000
   35        1.181410      1.181423   1.000000   1.000000
   36        1.374934      1.374948   1.000000   1.000000
   37        1.520442      1.520454   1.000000   1.000000
   38        1.646114      1.646128   1.000000   1.000000
   39        8.452931      8.452942   0.000000   0.000000
   40       10.001840     10.001918   0.000000   0.000000
   41       10.402011     10.401459   0.000000   0.000000
   42       11.224891     11.224450   0.000000   0.000000
   43       11.689272     11.689744   0.000000   0.000000
   44       11.712178     11.712251   0.000000   0.000000
   45       12.124261     12.124403   0.000000   0.000000
   46       12.389381     12.389341   0.000000   0.000000
   47       12.878343     12.879060   0.000000   0.000000
   48       12.949005     12.948641   0.000000   0.000000
   49       13.888012     13.870682   0.000000   0.000000
   50       14.252182     14.249369   0.000000   0.000000
   51       14.761427     14.852875   0.000000   0.000000
   52       15.229264     15.079423   0.000000   0.000000
 
  0.2857143E+00  0.1666667E+00  0.0000000E+00  0.1904762E-01
    1      -40.563581    -40.563596   1.000000   1.000000
    2      -40.562885    -40.562900   1.000000   1.000000
    3      -40.241807    -40.241821   1.000000   1.000000
    4      -40.233439    -40.233453   1.000000   1.000000
    5      -40.232554    -40.232568   1.000000   1.000000
    6      -40.224152    -40.224166   1.000000   1.000000
    7      -18.503725    -18.503728   1.000000   1.000000
    8      -18.395476    -18.395479   1.000000   1.000000
    9      -15.849504    -15.849500   1.000000   1.000000
   10      -15.810484    -15.810479   1.000000   1.000000
   11      -15.464323    -15.464317   1.000000   1.000000
   12      -15.460850    -15.460844   1.000000   1.000000
   13      -15.402247    -15.402241   1.000000   1.000000
   14      -15.384276    -15.384270   1.000000   1.000000
   15       -5.142350     -5.142349   1.000000   1.000000
   16       -4.898115     -4.898114   1.000000   1.000000
   17       -3.148476     -3.148474   1.000000   1.000000
   18       -3.033753     -3.033752   1.000000   1.000000
   19       -2.983805     -2.983803   1.000000   1.000000
   20       -2.805361     -2.805359   1.000000   1.000000
   21       -2.730450     -2.730445   1.000000   1.000000
   22       -2.598745     -2.598741   1.000000   1.000000
   23       -1.139764     -1.139755   1.000000   1.000000
   24       -1.062109     -1.062099   1.000000   1.000000
   25       -0.926668     -0.926660   1.000000   1.000000
   26       -0.796610     -0.796600   1.000000   1.000000
   27       -0.493943     -0.493934   1.000000   1.000000
   28       -0.153403     -0.153395   1.000000   1.000000
   29       -0.086750     -0.086741   1.000000   1.000000
   30       -0.002812     -0.002803   1.000000   1.000000
   31        0.352081      0.352090   1.000000   1.000000
   32        0.389416      0.389426   1.000000   1.000000
   33        1.050623      1.050634   1.000000   1.000000
   34        1.299320      1.299334   1.000000   1.000000
   35        1.329855      1.329868   1.000000   1.000000
   36        1.469491      1.469503   1.000000   1.000000
   37        1.489658      1.489672   1.000000   1.000000
   38        1.697154      1.697167   1.000000   1.000000
   39        8.848669      8.848682   0.000000   0.000000
   40        9.891758      9.891827   0.000000   0.000000
   41       10.150708     10.150585   0.000000   0.000000
   42       11.142319     11.142856   0.000000   0.000000
   43       11.457161     11.457611   0.000000   0.000000
   44       11.692496     11.693298   0.000000   0.000000
   45       11.899538     11.899363   0.000000   0.000000
   46       12.209463     12.209664   0.000000   0.000000
   47       12.842765     12.842730   0.000000   0.000000
   48       13.091504     13.097095   0.000000   0.000000
   49       13.833523     13.911366   0.000000   0.000000
   50       13.915020     13.980368   0.000000   0.000000
   51       14.373611     14.547356   0.000000   0.000000
   52       15.036557     15.214809   0.000000   0.000000
 
  0.4285714E+00  0.1666667E+00  0.0000000E+00  0.1904762E-01
    1      -40.563161    -40.563176   1.000000   1.000000
    2      -40.562934    -40.562949   1.000000   1.000000
    3      -40.238902    -40.238916   1.000000   1.000000
    4      -40.235605    -40.235619   1.000000   1.000000
    5      -40.230422    -40.230436   1.000000   1.000000
    6      -40.227102    -40.227116   1.000000   1.000000
    7      -18.442265    -18.442268   1.000000   1.000000
    8      -18.402560    -18.402563   1.000000   1.000000
    9      -15.892212    -15.892208   1.000000   1.000000
   10      -15.876839    -15.876835   1.000000   1.000000
   11      -15.445045    -15.445039   1.000000   1.000000
   12      -15.441523    -15.441517   1.000000   1.000000
   13      -15.424165    -15.424159   1.000000   1.000000
   14      -15.413000    -15.412995   1.000000   1.000000
   15       -5.122916     -5.122914   1.000000   1.000000
   16       -5.024078     -5.024077   1.000000   1.000000
   17       -3.047942     -3.047941   1.000000   1.000000
   18       -2.981130     -2.981128   1.000000   1.000000
   19       -2.931900     -2.931899   1.000000   1.000000
   20       -2.845489     -2.845488   1.000000   1.000000
   21       -2.293318     -2.293314   1.000000   1.000000
   22       -2.203083     -2.203080   1.000000   1.000000
   23       -1.170225     -1.170217   1.000000   1.000000
   24       -1.080542     -1.080534   1.000000   1.000000
   25       -1.077320     -1.077310   1.000000   1.000000
   26       -0.980267     -0.980257   1.000000   1.000000
   27       -0.612419     -0.612409   1.000000   1.000000
   28       -0.521771     -0.521760   1.000000   1.000000
   29        0.038110      0.038118   1.000000   1.000000
   30        0.047463      0.047472   1.000000   1.000000
   31        0.181216      0.181225   1.000000   1.000000
   32        0.227476      0.227485   1.000000   1.000000
   33        1.143166      1.143178   1.000000   1.000000
   34        1.270435      1.270447   1.000000   1.000000
   35        1.447651      1.447665   1.000000   1.000000
   36        1.531318      1.531332   1.000000   1.000000
   37        1.595636      1.595649   1.000000   1.000000
   38        1.704761      1.704774   1.000000   1.000000
   39        9.287186      9.287216   0.000000   0.000000
   40        9.590831      9.590878   0.000000   0.000000
   41       10.397663     10.397779   0.000000   0.000000
   42       10.839898     10.840038   0.000000   0.000000
   43       11.300098     11.300056   0.000000   0.000000
   44       11.465155     11.465261   0.000000   0.000000
   45       11.750209     11.749382   0.000000   0.000000
   46       11.946315     11.946707   0.000000   0.000000
   47       12.917184     12.917703   0.000000   0.000000
   48       13.206547     13.206027   0.000000   0.000000
   49       13.701061     13.681380   0.000000   0.000000
   50       14.095212     14.098306   0.000000   0.000000
   51       14.221375     14.226077   0.000000   0.000000
   52       14.796718     14.424434   0.000000   0.000000
 
  0.0000000E+00  0.3333333E+00  0.0000000E+00  0.9523810E-02
    1      -40.563967    -40.563982   1.000000   1.000000
    2      -40.563117    -40.563131   1.000000   1.000000
    3      -40.244667    -40.244681   1.000000   1.000000
    4      -40.236302    -40.236316   1.000000   1.000000
    5      -40.229511    -40.229525   1.000000   1.000000
    6      -40.221588    -40.221602   1.000000   1.000000
    7      -18.560004    -18.560005   1.000000   1.000000
    8      -18.426865    -18.426866   1.000000   1.000000
    9      -15.753952    -15.753948   1.000000   1.000000
   10      -15.703494    -15.703490   1.000000   1.000000
   11      -15.513293    -15.513287   1.000000   1.000000
   12      -15.465596    -15.465590   1.000000   1.000000
   13      -15.374664    -15.374659   1.000000   1.000000
   14      -15.369078    -15.369072   1.000000   1.000000
   15       -4.973928     -4.973927   1.000000   1.000000
   16       -4.821408     -4.821408   1.000000   1.000000
   17       -3.386435     -3.386429   1.000000   1.000000
   18       -3.263886     -3.263880   1.000000   1.000000
   19       -3.146355     -3.146353   1.000000   1.000000
   20       -3.102246     -3.102243   1.000000   1.000000
   21       -2.784229     -2.784227   1.000000   1.000000
   22       -2.754442     -2.754441   1.000000   1.000000
   23       -1.004343     -1.004334   1.000000   1.000000
   24       -0.943026     -0.943016   1.000000   1.000000
   25       -0.795998     -0.795989   1.000000   1.000000
   26       -0.634554     -0.634544   1.000000   1.000000
   27       -0.401759     -0.401749   1.000000   1.000000
   28       -0.285109     -0.285101   1.000000   1.000000
   29       -0.115592     -0.115584   1.000000   1.000000
   30        0.140364      0.140373   1.000000   1.000000
   31        0.532190      0.532199   1.000000   1.000000
   32        0.644837      0.644847   1.000000   1.000000
   33        0.967710      0.967723   1.000000   1.000000
   34        1.088502      1.088514   1.000000   1.000000
   35        1.092804      1.092817   1.000000   1.000000
   36        1.390605      1.390620   1.000000   1.000000
   37        1.424054      1.424067   1.000000   1.000000
   38        1.746910      1.746923   1.000000   1.000000
   39        8.909920      8.909930   0.000000   0.000000
   40        9.643706      9.643651   0.000000   0.000000
   41       10.339073     10.339087   0.000000   0.000000
   42       10.999513     10.999576   0.000000   0.000000
   43       11.627522     11.627517   0.000000   0.000000
   44       12.252692     12.253119   0.000000   0.000000
   45       12.299069     12.299243   0.000000   0.000000
   46       12.501864     12.502195   0.000000   0.000000
   47       12.688072     12.688455   0.000000   0.000000
   48       12.967298     12.967349   0.000000   0.000000
   49       13.574883     13.574774   0.000000   0.000000
   50       14.038334     14.040306   0.000000   0.000000
   51       14.723965     14.814280   0.000000   0.000000
   52       14.934900     15.032244   0.000000   0.000000
 
  0.1428571E+00  0.3333333E+00  0.0000000E+00  0.1904762E-01
    1      -40.563823    -40.563838   1.000000   1.000000
    2      -40.563060    -40.563075   1.000000   1.000000
    3      -40.243953    -40.243967   1.000000   1.000000
    4      -40.235540    -40.235554   1.000000   1.000000
    5      -40.230345    -40.230360   1.000000   1.000000
    6      -40.222268    -40.222282   1.000000   1.000000
    7      -18.539812    -18.539814   1.000000   1.000000
    8      -18.418345    -18.418347   1.000000   1.000000
    9      -15.782783    -15.782780   1.000000   1.000000
   10      -15.734360    -15.734356   1.000000   1.000000
   11      -15.507654    -15.507648   1.000000   1.000000
   12      -15.462718    -15.462712   1.000000   1.000000
   13      -15.380719    -15.380713   1.000000   1.000000
   14      -15.378460    -15.378454   1.000000   1.000000
   15       -5.018672     -5.018672   1.000000   1.000000
   16       -4.852994     -4.852993   1.000000   1.000000
   17       -3.242019     -3.242013   1.000000   1.000000
   18       -3.127649     -3.127647   1.000000   1.000000
   19       -3.122305     -3.122300   1.000000   1.000000
   20       -3.038191     -3.038188   1.000000   1.000000
   21       -2.769786     -2.769784   1.000000   1.000000
   22       -2.759113     -2.759112   1.000000   1.000000
   23       -1.053867     -1.053859   1.000000   1.000000
   24       -0.963460     -0.963450   1.000000   1.000000
   25       -0.781485     -0.781477   1.000000   1.000000
   26       -0.649183     -0.649174   1.000000   1.000000
   27       -0.453806     -0.453796   1.000000   1.000000
   28       -0.276468     -0.276460   1.000000   1.000000
   29       -0.187407     -0.187399   1.000000   1.000000
   30        0.127597      0.127606   1.000000   1.000000
   31        0.482959      0.482968   1.000000   1.000000
   32        0.535633      0.535643   1.000000   1.000000
   33        0.991982      0.991994   1.000000   1.000000
   34        1.134597      1.134611   1.000000   1.000000
   35        1.156244      1.156256   1.000000   1.000000