       N       E                     dE             d eps       ncg     rms          rms(c)
DAV:   1     0.635211607592E+03    0.63521E+03   -0.37580E+04  9984   0.155E+03
DAV:   2    -0.439385277444E+02   -0.67915E+03   -0.64611E+03 11600   0.407E+02
DAV:   3    -0.102362382035E+03   -0.58424E+02   -0.58148E+02 14044   0.113E+02
DAV:   4    -0.108067472496E+03   -0.57051E+01   -0.56802E+01 16880   0.289E+01
DAV:   5    -0.108551062826E+03   -0.48359E+00   -0.48348E+00 13984   0.610E+00    0.411E+01
RMM:   6    -0.980483961426E+02    0.10503E+02   -0.42265E+01 11074   0.251E+01    0.177E+01
RMM:   7    -0.990834921582E+02   -0.10351E+01   -0.56624E+00 14435   0.955E+00    0.891E+00
RMM:   8    -0.993456252170E+02   -0.26213E+00   -0.11684E+00 16594   0.487E+00    0.402E+00
RMM:   9    -0.994146766144E+02   -0.69051E-01   -0.45848E-01 16736   0.330E+00    0.116E+00
RMM:  10    -0.994560830233E+02   -0.41406E-01   -0.29739E-01 18877   0.200E+00    0.427E-01
RMM:  11    -0.994734079817E+02   -0.17325E-01   -0.13118E-01 19345   0.122E+00    0.326E-01
RMM:  12    -0.994805069249E+02   -0.70989E-02   -0.50529E-02 19363   0.768E-01    0.202E-01
RMM:  13    -0.994828279542E+02   -0.23210E-02   -0.18780E-02 19030   0.509E-01    0.934E-02
RMM:  14    -0.994840059608E+02   -0.11780E-02   -0.96938E-03 19200   0.354E-01    0.397E-02
RMM:  15    -0.994844202235E+02   -0.41426E-03   -0.39189E-03 18754   0.223E-01    0.322E-02
RMM:  16    -0.994846131568E+02   -0.19293E-03   -0.19380E-03 18574   0.150E-01    0.178E-02
RMM:  17    -0.994846855904E+02   -0.72434E-04   -0.75720E-04 18065   0.103E-01    0.937E-03
RMM:  18    -0.994847297593E+02   -0.44169E-04   -0.42027E-04 17769   0.719E-02    0.689E-03
RMM:  19    -0.994847460452E+02   -0.16286E-04   -0.17151E-04 16959   0.500E-02    0.279E-03
RMM:  20    -0.994847477061E+02   -0.16608E-05   -0.42822E-05 12328   0.364E-02
   1 F= -.99484748E+02 E0= -.99484748E+02  d E =0.000000E+00  mag=     0.0000
