       N       E                     dE             d eps       ncg     rms          rms(c)
DAV:   1     0.578483912564E+00    0.57848E+00   -0.71030E+02 14442   0.347E+02
DAV:   2    -0.151454854182E+01   -0.20930E+01   -0.20490E+01 20136   0.484E+01
DAV:   3    -0.159625926359E+01   -0.81711E-01   -0.81534E-01 17958   0.647E+00
DAV:   4    -0.159793236414E+01   -0.16731E-02   -0.16721E-02 21114   0.828E-01
DAV:   5    -0.159794930186E+01   -0.16938E-04   -0.16944E-04 19044   0.531E-02    0.545E+00
RMM:   6    -0.182230911514E+01   -0.22436E+00   -0.65436E-02 16635   0.248E+00    0.260E+00
RMM:   7    -0.189813488137E+01   -0.75826E-01   -0.22130E-02 15910   0.157E+00    0.173E-01
RMM:   8    -0.189963481853E+01   -0.14999E-02   -0.90238E-03 17854   0.869E-01    0.899E-02
RMM:   9    -0.189982030896E+01   -0.18549E-03   -0.23322E-03 21060   0.452E-01    0.333E-02
RMM:  10    -0.190021939702E+01   -0.39909E-03   -0.14386E-03 19515   0.357E-01    0.274E-02
RMM:  11    -0.190027011364E+01   -0.50717E-04   -0.28440E-04 22013   0.144E-01    0.214E-02
RMM:  12    -0.190028181355E+01   -0.11700E-04   -0.13887E-04 20945   0.105E-01    0.703E-03
RMM:  13    -0.190029382665E+01   -0.12013E-04   -0.35520E-05 18860   0.603E-02    0.485E-03
RMM:  14    -0.190029614547E+01   -0.23188E-05   -0.15307E-05 14037   0.363E-02
   1 F= -.19002961E+01 E0= -.19002961E+01  d E =0.000000E+00  mag=    -0.0001
