 running on   24 total cores
 distrk:  each k-point on   24 cores,    1 groups
 distr:  one band on    6 cores,    4 groups
 using from now: INCAR     
 vasp.6.1.2 22Jul20 (build Mar 31 2021 18:09:49) complex                        
  
 POSCAR found type information on POSCAR LiO 
 POSCAR found :  2 types and       8 ions
 scaLAPACK will be used
 -----------------------------------------------------------------------------
|                                                                             |
|               ----> ADVICE to this user running VASP <----                  |
|                                                                             |
|     You have a (more or less) 'small supercell' and for smaller cells       |
|     it is recommended to use the reciprocal-space projection scheme!        |
|     The real-space optimization is not efficient for small cells and it     |
|     is also less accurate ...                                               |
|     Therefore, set LREAL=.FALSE. in the INCAR file.                         |
|                                                                             |
 -----------------------------------------------------------------------------

 LDA part: xc-table for Pade appr. of Perdew
 generate k-points for:   12   12    4
 POSCAR, INCAR and KPOINTS ok, starting setup
 FFT: planning ...
 WAVECAR not read
 entering main loop
       N       E                     dE             d eps       ncg     rms          rms(c)
DAV:   1     0.253768854534E+03    0.25377E+03   -0.17298E+04 18376   0.137E+03
DAV:   2    -0.143818690073E+02   -0.26815E+03   -0.25782E+03 21924   0.348E+02
DAV:   3    -0.375018829474E+02   -0.23120E+02   -0.22924E+02 29512   0.850E+01
DAV:   4    -0.391727728221E+02   -0.16709E+01   -0.16637E+01 27276   0.214E+01
DAV:   5    -0.392199410255E+02   -0.47168E-01   -0.47164E-01 25984   0.315E+00    0.178E+01
RMM:   6    -0.380943075700E+02    0.11256E+01   -0.45311E+00 20524   0.109E+01    0.783E+00
RMM:   7    -0.386974273370E+02   -0.60312E+00   -0.68685E-01 23204   0.509E+00    0.389E+00
RMM:   8    -0.387740071464E+02   -0.76580E-01   -0.30490E-01 27351   0.315E+00    0.156E+00
RMM:   9    -0.387842724414E+02   -0.10265E-01   -0.10176E-01 28788   0.204E+00    0.386E-01
RMM:  10    -0.387937673895E+02   -0.94949E-02   -0.53098E-02 32488   0.116E+00    0.187E-01
RMM:  11    -0.387975230439E+02   -0.37557E-02   -0.20230E-02 33129   0.671E-01    0.127E-01
RMM:  12    -0.387988099945E+02   -0.12870E-02   -0.84654E-03 34305   0.404E-01    0.909E-02
RMM:  13    -0.387992208009E+02   -0.41081E-03   -0.31837E-03 32950   0.273E-01    0.362E-02
RMM:  14    -0.387994765457E+02   -0.25574E-03   -0.15980E-03 33441   0.191E-01    0.864E-03
RMM:  15    -0.387995646223E+02   -0.88077E-04   -0.73246E-04 31667   0.113E-01    0.909E-03
RMM:  16    -0.387995985851E+02   -0.33963E-04   -0.30946E-04 30650   0.744E-02    0.565E-03
RMM:  17    -0.387996117714E+02   -0.13186E-04   -0.12163E-04 28215   0.513E-02    0.330E-03
RMM:  18    -0.387996160817E+02   -0.43103E-05   -0.43769E-05 24013   0.376E-02
   1 F= -.38799616E+02 E0= -.38799616E+02  d E =0.000000E+00  mag=    -0.0000
