 running on    8 total cores
 distrk:  each k-point on    8 cores,    1 groups
 distr:  one band on    1 cores,    8 groups
 using from now: INCAR     
 vasp.6.1.2 22Jul20 (build Mar 20 2021 11:25:07) complex                        
  
 POSCAR found type information on POSCAR LiO 
 POSCAR found :  2 types and       3 ions
 scaLAPACK will be used
 -----------------------------------------------------------------------------
|                                                                             |
|           W    W    AA    RRRRR   N    N  II  N    N   GGGG   !!!           |
|           W    W   A  A   R    R  NN   N  II  NN   N  G    G  !!!           |
|           W    W  A    A  R    R  N N  N  II  N N  N  G       !!!           |
|           W WW W  AAAAAA  RRRRR   N  N N  II  N  N N  G  GGG   !            |
|           WW  WW  A    A  R   R   N   NN  II  N   NN  G    G                |
|           W    W  A    A  R    R  N    N  II  N    N   GGGG   !!!           |
|                                                                             |
|     The value NCORE = 6 specified in the INCAR file was overwritten,        |
|     because it was not compatible with the 8 processes available:           |
|     NCORE = 1                                                               |
|     was used instead, please check that this makes sense for your           |
|     machine.                                                                |
|                                                                             |
 -----------------------------------------------------------------------------

 -----------------------------------------------------------------------------
|                                                                             |
|           W    W    AA    RRRRR   N    N  II  N    N   GGGG   !!!           |
|           W    W   A  A   R    R  NN   N  II  NN   N  G    G  !!!           |
|           W    W  A    A  R    R  N N  N  II  N N  N  G       !!!           |
|           W WW W  AAAAAA  RRRRR   N  N N  II  N  N N  G  GGG   !            |
|           WW  WW  A    A  R   R   N   NN  II  N   NN  G    G                |
|           W    W  A    A  R    R  N    N  II  N    N   GGGG   !!!           |
|                                                                             |
|     For optimal performance we recommend to set                             |
|       NCORE = 4 - approx SQRT(number of cores).                             |
|     NCORE specifies how many cores store one orbital (NPAR=cpu/NCORE).      |
|     This setting can greatly improve the performance of VASP for DFT.       |
|     The default, NCORE=1 might be grossly inefficient on modern             |
|     multi-core architectures or massively parallel machines. Do your        |
|     own testing!!!!                                                         |
|     Unfortunately you need to use the default for GW and RPA                |
|     calculations (for HF NCORE is supported but not extensively tested      |
|     yet).                                                                   |
|                                                                             |
 -----------------------------------------------------------------------------

 -----------------------------------------------------------------------------
|                                                                             |
|               ----> ADVICE to this user running VASP <----                  |
|                                                                             |
|     You have a (more or less) 'small supercell' and for smaller cells       |
|     it is recommended to use the reciprocal-space projection scheme!        |
|     The real-space optimization is not efficient for small cells and it     |
|     is also less accurate ...                                               |
|     Therefore, set LREAL=.FALSE. in the INCAR file.                         |
|                                                                             |
 -----------------------------------------------------------------------------

 LDA part: xc-table for Pade appr. of Perdew
 generate k-points for:   12   12   12
 POSCAR, INCAR and KPOINTS ok, starting setup
 FFT: planning ...
 WAVECAR not read
 entering main loop
       N       E                     dE             d eps       ncg     rms          rms(c)
DAV:   1     0.457986336870E+02    0.45799E+02   -0.52899E+03  4640   0.785E+02
DAV:   2    -0.106732697383E+02   -0.56472E+02   -0.53772E+02  6272   0.195E+02
DAV:   3    -0.152376034392E+02   -0.45643E+01   -0.45347E+01  6912   0.418E+01
DAV:   4    -0.153106890790E+02   -0.73086E-01   -0.73078E-01  5344   0.659E+00
DAV:   5    -0.153114952845E+02   -0.80621E-03   -0.80620E-03  6400   0.511E-01    0.117E+01
RMM:   6    -0.141674007370E+02    0.11441E+01   -0.19509E+00  5120   0.802E+00    0.494E+00
RMM:   7    -0.142959457893E+02   -0.12855E+00   -0.54358E-02  5844   0.177E+00    0.213E+00
RMM:   8    -0.143043835770E+02   -0.84378E-02   -0.28368E-02  6406   0.137E+00    0.116E+00
RMM:   9    -0.143164082549E+02   -0.12025E-01   -0.24026E-02  6462   0.136E+00    0.234E-01
RMM:  10    -0.143172593769E+02   -0.85112E-03   -0.40114E-03  7101   0.458E-01    0.134E-01
RMM:  11    -0.143178892556E+02   -0.62988E-03   -0.31248E-03  6685   0.379E-01    0.180E-01
RMM:  12    -0.143177393217E+02    0.14993E-03   -0.84627E-04  6719   0.220E-01    0.777E-02
RMM:  13    -0.143177067119E+02    0.32610E-04   -0.40648E-04  7104   0.145E-01    0.157E-02
RMM:  14    -0.143177271423E+02   -0.20430E-04   -0.15292E-04  6612   0.769E-02    0.169E-02
RMM:  15    -0.143177314257E+02   -0.42835E-05   -0.58234E-05  6315   0.497E-02
   1 F= -.14317731E+02 E0= -.14317731E+02  d E =0.000000E+00  mag=     0.0001
