   12   12    1    2
  0.9994032E+01  0.5341277E-09  0.5341277E-09  0.4774610E-09  0.5000000E-15
  1.000000000000000E-004
  CAR 
 unknown system                          
     56     64     40
 
  0.0000000E+00  0.0000000E+00  0.0000000E+00  0.2915452E-02
    1      -40.398299    -40.398098   1.000000   1.000000
    2      -40.378571    -40.378369   1.000000   1.000000
    3      -40.377472    -40.377270   1.000000   1.000000
    4      -40.376717    -40.376516   1.000000   1.000000
    5      -17.105416    -17.105466   1.000000   1.000000
    6      -16.458449    -16.458512   1.000000   1.000000
    7      -15.084398    -15.084474   1.000000   1.000000
    8      -15.060831    -15.060907   1.000000   1.000000
    9      -12.908958    -12.909011   1.000000   1.000000
   10      -11.329703    -11.329754   1.000000   1.000000
   11       -7.066866     -7.066893   1.000000   1.000000
   12       -3.882669     -3.882696   1.000000   1.000000
   13       -3.643922     -3.643947   1.000000   1.000000
   14       -3.042759     -3.042790   1.000000   1.000000
   15       -3.013713     -3.013741   1.000000   1.000000
   16       -1.873168     -1.873219   1.000000   1.000000
   17       -0.963012     -0.963045   1.000000   1.000000
   18       -0.926886     -0.926907   1.000000   1.000000
   19       -0.048674     -0.048712   1.000000   1.000000
   20        0.115616      0.115586   1.000000   1.000000
   21        0.309991      0.309956   1.000000   1.000000
   22        1.032479      1.032419   1.000000   1.000000
   23        1.044681      1.044622   1.000000   1.000000
   24        1.117939      1.117883   1.000000   1.000000
   25        1.282706      1.282659   1.000000   1.000000
   26        1.911842      1.911792   1.000000   1.000000
   27        1.936912      1.936871   1.000000   1.000000
   28        2.597963      2.597927   1.000000   1.000000
   29        8.154684      8.154710   0.000002   0.000002
   30        9.460336      9.460360   0.000000   0.000000
   31        9.774731      9.774737   0.000000   0.000000
   32       11.196550     11.196206   0.000000   0.000000
   33       11.301381     11.301326   0.000000   0.000000
   34       12.122148     12.122292   0.000000   0.000000
   35       12.152876     12.152804   0.000000   0.000000
   36       13.102071     13.103622   0.000000   0.000000
   37       13.229624     13.227126   0.000000   0.000000
   38       13.459912     13.433545   0.000000   0.000000
   39       13.477928     13.476883   0.000000   0.000000
   40       14.013482     14.298404   0.000000   0.000000
 
  0.1428571E+00  0.2986018E-17  0.0000000E+00  0.1166181E-01
    1      -40.397584    -40.397383   1.000000   1.000000
    2      -40.380610    -40.380409   1.000000   1.000000
    3      -40.377429    -40.377228   1.000000   1.000000
    4      -40.375430    -40.375229   1.000000   1.000000
    5      -17.085838    -17.085887   1.000000   1.000000
    6      -16.477078    -16.477140   1.000000   1.000000
    7      -15.089462    -15.089538   1.000000   1.000000
    8      -15.064214    -15.064291   1.000000   1.000000
    9      -12.912093    -12.912146   1.000000   1.000000
   10      -11.328026    -11.328078   1.000000   1.000000
   11       -7.070029     -7.070056   1.000000   1.000000
   12       -3.878078     -3.878103   1.000000   1.000000
   13       -3.614118     -3.614145   1.000000   1.000000
   14       -3.047245     -3.047274   1.000000   1.000000
   15       -2.959169     -2.959201   1.000000   1.000000
   16       -1.893190     -1.893239   1.000000   1.000000
   17       -1.053467     -1.053492   1.000000   1.000000
   18       -0.708882     -0.708913   1.000000   1.000000
   19       -0.019040     -0.019078   1.000000   1.000000
   20        0.149708      0.149675   1.000000   1.000000
   21        0.302848      0.302814   1.000000   1.000000
   22        0.848034      0.847980   1.000000   1.000000
   23        0.973196      0.973145   1.000000   1.000000
   24        1.108305      1.108246   1.000000   1.000000
   25        1.244627      1.244579   1.000000   1.000000
   26        1.861553      1.861505   1.000000   1.000000
   27        1.988774      1.988728   1.000000   1.000000
   28        2.593692      2.593656   1.000000   1.000000
   29        8.385022      8.385044  -0.000000  -0.000000
   30        9.468203      9.468220   0.000000   0.000000
   31        9.869164      9.869169   0.000000   0.000000
   32       11.053487     11.053380   0.000000   0.000000
   33       11.317734     11.317423   0.000000   0.000000
   34       11.799129     11.798795   0.000000   0.000000
   35       12.222453     12.221748   0.000000   0.000000
   36       12.647662     12.647620   0.000000   0.000000
   37       13.065736     13.066951   0.000000   0.000000
   38       13.240669     13.241726   0.000000   0.000000
   39       13.384652     13.383643   0.000000   0.000000
   40       14.200568     14.231907   0.000000   0.000000
 
  0.2857143E+00  0.4987066E-17  0.0000000E+00  0.1166181E-01
    1      -40.395492    -40.395291   1.000000   1.000000
    2      -40.384083    -40.383882   1.000000   1.000000
    3      -40.377057    -40.376856   1.000000   1.000000
    4      -40.374376    -40.374175   1.000000   1.000000
    5      -17.035866    -17.035917   1.000000   1.000000
    6      -16.524808    -16.524869   1.000000   1.000000
    7      -15.100788    -15.100864   1.000000   1.000000
    8      -15.072014    -15.072091   1.000000   1.000000
    9      -12.918574    -12.918628   1.000000   1.000000
   10      -11.324836    -11.324888   1.000000   1.000000
   11       -7.076294     -7.076320   1.000000   1.000000
   12       -3.883690     -3.883711   1.000000   1.000000
   13       -3.515589     -3.515622   1.000000   1.000000
   14       -3.130862     -3.130893   1.000000   1.000000
   15       -2.752346     -2.752381   1.000000   1.000000
   16       -1.954627     -1.954674   1.000000   1.000000
   17       -0.963899     -0.963928   1.000000   1.000000
   18       -0.464416     -0.464451   1.000000   1.000000
   19       -0.032793     -0.032830   1.000000   1.000000
   20        0.202570      0.202534   1.000000   1.000000
   21        0.318652      0.318620   1.000000   1.000000
   22        0.520378      0.520335   1.000000   1.000000
   23        0.814436      0.814390   1.000000   1.000000
   24        1.036783      1.036736   1.000000   1.000000
   25        1.169226      1.169170   1.000000   1.000000
   26        1.739349      1.739305   1.000000   1.000000
   27        2.111121      2.111067   1.000000   1.000000
   28        2.580964      2.580928   1.000000   1.000000
   29        8.934636      8.934646   0.000000   0.000000
   30        9.465975      9.465989   0.000000   0.000000
   31       10.100076     10.100066   0.000000   0.000000
   32       10.823838     10.823852   0.000000   0.000000
   33       11.161889     11.161891   0.000000   0.000000
   34       11.353153     11.353095   0.000000   0.000000
   35       11.871955     11.871927   0.000000   0.000000
   36       12.328604     12.328421   0.000000   0.000000
   37       12.613534     12.613042   0.000000   0.000000
   38       13.297589     13.297987   0.000000   0.000000
   39       13.431841     13.433007   0.000000   0.000000
   40       14.189117     14.179983   0.000000   0.000000
 
  0.4285714E+00  0.5035648E-16  0.0000000E+00  0.1166181E-01
    1      -40.392593    -40.392392   1.000000   1.000000
    2      -40.387669    -40.387468   1.000000   1.000000
    3      -40.376762    -40.376560   1.000000   1.000000
    4      -40.373910    -40.373708   1.000000   1.000000
    5      -16.987004    -16.987056   1.000000   1.000000
    6      -16.571943    -16.572003   1.000000   1.000000
    7      -15.109890    -15.109965   1.000000   1.000000
    8      -15.078193    -15.078270   1.000000   1.000000
    9      -12.923172    -12.923225   1.000000   1.000000
   10      -11.322758    -11.322810   1.000000   1.000000
   11       -7.080386     -7.080412   1.000000   1.000000
   12       -3.900269     -3.900287   1.000000   1.000000
   13       -3.377041     -3.377078   1.000000   1.000000
   14       -3.242489     -3.242521   1.000000   1.000000
   15       -2.533533     -2.533573   1.000000   1.000000
   16       -2.036585     -2.036630   1.000000   1.000000
   17       -0.768829     -0.768864   1.000000   1.000000
   18       -0.353484     -0.353529   1.000000   1.000000
   19       -0.088232     -0.088257   1.000000   1.000000
   20        0.107956      0.107923   1.000000   1.000000
   21        0.180215      0.180184   1.000000   1.000000
   22        0.503911      0.503868   1.000000   1.000000
   23        0.790009      0.789968   1.000000   1.000000
   24        0.950385      0.950343   1.000000   1.000000
   25        1.104074      1.104015   1.000000   1.000000
   26        1.621083      1.621045   1.000000   1.000000
   27        2.214628      2.214567   1.000000   1.000000
   28        2.566145      2.566109   1.000000   1.000000
   29        9.193265      9.193266   0.000000   0.000000
   30        9.816109      9.816118   0.000000   0.000000
   31       10.255852     10.255855   0.000000   0.000000
   32       10.592175     10.592186   0.000000   0.000000
   33       10.947808     10.947717   0.000000   0.000000
   34       11.158277     11.158453   0.000000   0.000000
   35       11.389686     11.389715   0.000000   0.000000
   36       12.124784     12.124937   0.000000   0.000000
   37       12.299811     12.300035   0.000000   0.000000
   38       13.537851     13.543871   0.000000   0.000000
   39       13.744082     13.750974   0.000000   0.000000
   40       14.294045     14.321720   0.000000   0.000000
 
  0.1428571E+00  0.1428571E+00  0.0000000E+00  0.5830904E-02
    1      -40.396062    -40.395861   1.000000   1.000000
    2      -40.383325    -40.383124   1.000000   1.000000
    3      -40.377304    -40.377103   1.000000   1.000000
    4      -40.374320    -40.374118   1.000000   1.000000
    5      -17.047900    -17.047950   1.000000   1.000000
    6      -16.517370    -16.517432   1.000000   1.000000
    7      -15.099693    -15.099768   1.000000   1.000000
    8      -15.063958    -15.064035   1.000000   1.000000
    9      -12.913415    -12.913469   1.000000   1.000000
   10      -11.326083    -11.326135   1.000000   1.000000
   11       -7.070108     -7.070135   1.000000   1.000000
   12       -3.899195     -3.899217   1.000000   1.000000
   13       -3.538370     -3.538401   1.000000   1.000000
   14       -3.090623     -3.090655   1.000000   1.000000
   15       -2.872586     -2.872619   1.000000   1.000000
   16       -1.943953     -1.944001   1.000000   1.000000
   17       -1.008873     -1.008901   1.000000   1.000000
   18       -0.419422     -0.419460   1.000000   1.000000
   19        0.078939      0.078908   1.000000   1.000000
   20        0.079923      0.079880   1.000000   1.000000
   21        0.324775      0.324744   1.000000   1.000000
   22        0.661510      0.661460   1.000000   1.000000
   23        0.717411      0.717372   1.000000   1.000000
   24        1.128527      1.128483   1.000000   1.000000
   25        1.155292      1.155231   1.000000   1.000000
   26        1.759407      1.759363   1.000000   1.000000
   27        2.100811      2.100758   1.000000   1.000000
   28        2.600644      2.600607   1.000000   1.000000
   29        8.757100      8.757113   0.000000   0.000000
   30        9.438227      9.438234   0.000000   0.000000
   31        9.999777      9.999776   0.000000   0.000000
   32       10.901432     10.901409   0.000000   0.000000
   33       11.181500     11.181483   0.000000   0.000000
   34       11.774748     11.774618   0.000000   0.000000
   35       11.832214     11.832255   0.000000   0.000000
   36       12.391527     12.391053   0.000000   0.000000
   37       12.667991     12.667792   0.000000   0.000000
   38       12.927321     12.927309   0.000000   0.000000
   39       13.308712     13.307926   0.000000   0.000000
   40       14.648958     14.665432   0.000000   0.000000
 
  0.2857143E+00  0.1428571E+00  0.0000000E+00  0.1166181E-01
    1      -40.393441    -40.393240   1.000000   1.000000
    2      -40.386678    -40.386477   1.000000   1.000000
    3      -40.377143    -40.376942   1.000000   1.000000
    4      -40.373716    -40.373515   1.000000   1.000000
    5      -16.997144    -16.997196   1.000000   1.000000
    6      -16.564057    -16.564118   1.000000   1.000000
    7      -15.127913    -15.127987   1.000000   1.000000
    8      -15.054972    -15.055049   1.000000   1.000000
    9      -12.920093    -12.920147   1.000000   1.000000
   10      -11.323461    -11.323513   1.000000   1.000000
   11       -7.076507     -7.076534   1.000000   1.000000
   12       -3.906411     -3.906430   1.000000   1.000000
   13       -3.429412     -3.429445   1.000000   1.000000
   14       -3.160705     -3.160740   1.000000   1.000000
   15       -2.671379     -2.671415   1.000000   1.000000
   16       -2.002168     -2.002213   1.000000   1.000000
   17       -0.824910     -0.824944   1.000000   1.000000
   18       -0.259166     -0.259215   1.000000   1.000000
   19       -0.072978     -0.073006   1.000000   1.000000
   20        0.006723      0.006695   1.000000   1.000000
   21        0.396554      0.396511   1.000000   1.000000
   22        0.440683      0.440648   1.000000   1.000000
   23        0.667447      0.667410   1.000000   1.000000
   24        1.007545      1.007503   1.000000   1.000000
   25        1.150376      1.150315   1.000000   1.000000
   26        1.631538      1.631500   1.000000   1.000000
   27        2.205879      2.205819   1.000000   1.000000
   28        2.590369      2.590331   1.000000   1.000000
   29        9.215710      9.215714   0.000000   0.000000
   30        9.467780      9.467797   0.000000   0.000000
   31       10.154507     10.154496   0.000000   0.000000
   32       10.708287     10.708316   0.000000   0.000000
   33       11.036935     11.036948   0.000000   0.000000
   34       11.289574     11.289584   0.000000   0.000000
   35       11.594138     11.594196   0.000000   0.000000
   36       12.144803     12.144592   0.000000   0.000000
   37       12.481828     12.481664   0.000000   0.000000
   38       12.985214     12.985095   0.000000   0.000000
   39       13.447805     13.447533   0.000000   0.000000
   40       14.630526     14.591699   0.000000   0.000000
 
  0.4285714E+00  0.1428571E+00  0.0000000E+00  0.1166181E-01
    1      -40.391322    -40.391121   1.000000   1.000000
    2      -40.388862    -40.388661   1.000000   1.000000
    3      -40.377117    -40.376915   1.000000   1.000000
    4      -40.373668    -40.373467   1.000000   1.000000
    5      -16.976449    -16.976502   1.000000   1.000000
    6      -16.577254    -16.577314   1.000000   1.000000
    7      -15.147380    -15.147454   1.000000   1.000000
    8      -15.049513    -15.049590   1.000000   1.000000
    9      -12.927295    -12.927348   1.000000   1.000000
   10      -11.321839    -11.321891   1.000000   1.000000
   11       -7.085171     -7.085197   1.000000   1.000000
   12       -3.897146     -3.897164   1.000000   1.000000
   13       -3.307073     -3.307114   1.000000   1.000000
   14       -3.259616     -3.259648   1.000000   1.000000
   15       -2.489190     -2.489230   1.000000   1.000000
   16       -2.043690     -2.043734   1.000000   1.000000
   17       -0.703772     -0.703809   1.000000   1.000000
   18       -0.439297     -0.439335   1.000000   1.000000
   19       -0.144474     -0.144500   1.000000   1.000000
   20       -0.007827     -0.007857   1.000000   1.000000
   21        0.299105      0.299062   1.000000   1.000000
   22        0.489525      0.489490   1.000000   1.000000
   23        0.784882      0.784844   1.000000   1.000000
   24        0.920251      0.920207   1.000000   1.000000
   25        1.143582      1.143522   1.000000   1.000000
   26        1.599122      1.599085   1.000000   1.000000
   27        2.219653      2.219592   1.000000   1.000000
   28        2.575198      2.575160   1.000000   1.000000
   29        9.254854      9.254868   0.000000   0.000000
   30        9.761159      9.761156   0.000000   0.000000
   31       10.288440     10.288440   0.000000   0.000000
   32       10.477963     10.477951   0.000000   0.000000
   33       10.738156     10.737944   0.000000   0.000000
   34       11.296232     11.296226   0.000000   0.000000
   35       11.618002     11.618057   0.000000   0.000000
   36       12.005002     12.005026   0.000000   0.000000
   37       12.326086     12.325540   0.000000   0.000000
   38       13.321602     13.319838   0.000000   0.000000
   39       13.712206     13.719055   0.000000   0.000000
   40       14.496778     14.456868   0.000000   0.000000
 
 -0.4285714E+00  0.1428571E+00  0.0000000E+00  0.1166181E-01
    1      -40.393998    -40.393797   1.000000   1.000000
    2      -40.385632    -40.385430   1.000000   1.000000
    3      -40.377372    -40.377170   1.000000   1.000000
    4      -40.373988    -40.373786   1.000000   1.000000
    5      -17.008507    -17.008559   1.000000   1.000000
    6      -16.539744    -16.539805   1.000000   1.000000
    7      -15.149569    -15.149643   1.000000   1.000000
    8      -15.045525    -15.045602   1.000000   1.000000
    9      -12.930122    -12.930175   1.000000   1.000000
   10      -11.322098    -11.322150   1.000000   1.000000
   11       -7.089762     -7.089788   1.000000   1.000000
   12       -3.867155     -3.867174   1.000000   1.000000
   13       -3.416810     -3.416850   1.000000   1.000000
   14       -3.172236     -3.172266   1.000000   1.000000
   15       -2.535261     -2.535300   1.000000   1.000000
   16       -1.996566     -1.996611   1.000000   1.000000
   17       -0.845016     -0.845048   1.000000   1.000000
   18       -0.549241     -0.549272   1.000000   1.000000
   19       -0.149015     -0.149046   1.000000   1.000000
   20        0.089605      0.089570   1.000000   1.000000
   21        0.314456      0.314414   1.000000   1.000000
   22        0.499097      0.499061   1.000000   1.000000
   23        0.854656      0.854612   1.000000   1.000000
   24        0.953975      0.953932   1.000000   1.000000
   25        1.179420      1.179361   1.000000   1.000000
   26        1.687887      1.687844   1.000000   1.000000
   27        2.129524      2.129468   1.000000   1.000000
   28        2.565466      2.565430   1.000000   1.000000
   29        9.240396      9.240410   0.000000   0.000000
   30        9.625189      9.625197   0.000000   0.000000
   31       10.207012     10.207006   0.000000   0.000000
   32       10.419769     10.419793   0.000000   0.000000
   33       10.964198     10.964167   0.000000   0.000000
   34       11.211517     11.211522   0.000000   0.000000
   35       12.012743     12.012745   0.000000   0.000000
   36       12.127454     12.127388   0.000000   0.000000
   37       12.498698     12.498464   0.000000   0.000000
   38       13.474536     13.473867   0.000000   0.000000
   39       13.759688     13.758040   0.000000   0.000000
   40       14.254905     14.176325   0.000000   0.000000
 
 -0.2857143E+00  0.1428571E+00  0.0000000E+00  0.1166181E-01
    1      -40.396423    -40.396222   1.000000   1.000000
    2      -40.381972    -40.381771   1.000000   1.000000
    3      -40.377961    -40.377760   1.000000   1.000000
    4      -40.374681    -40.374480   1.000000   1.000000
    5      -17.058578    -17.058628   1.000000   1.000000
    6      -16.490554    -16.490616   1.000000   1.000000
    7      -15.134863    -15.134937   1.000000   1.000000
    8      -15.043941    -15.044018   1.000000   1.000000
    9      -12.926063    -12.926116   1.000000   1.000000
   10      -11.324476    -11.324528   1.000000   1.000000
   11       -7.085964     -7.085991   1.000000   1.000000
   12       -3.838380     -3.838401   1.000000   1.000000
   13       -3.565716     -3.565752   1.000000   1.000000
   14       -3.071349     -3.071378   1.000000   1.000000
   15       -2.740094     -2.740129   1.000000   1.000000
   16       -1.908545     -1.908592   1.000000   1.000000
   17       -0.980024     -0.980051   1.000000   1.000000
   18       -0.731750     -0.731778   1.000000   1.000000
   19       -0.131061     -0.131096   1.000000   1.000000
   20        0.213577      0.213542   1.000000   1.000000
   21        0.337721      0.337681   1.000000   1.000000
   22        0.573819      0.573780   1.000000   1.000000
   23        0.954745      0.954695   1.000000   1.000000
   24        1.084806      1.084751   1.000000   1.000000
   25        1.229600      1.229546   1.000000   1.000000
   26        1.800479      1.800433   1.000000   1.000000
   27        2.008035      2.007987   1.000000   1.000000
   28        2.564144      2.564110   1.000000   1.000000
   29        8.797747      8.797763   0.000000   0.000000
   30        9.559424      9.559440   0.000000   0.000000
   31       10.035292     10.035312   0.000000   0.000000
   32       10.729494     10.729490   0.000000   0.000000
   33       11.285921     11.285719   0.000000   0.000000
   34       11.334422     11.334451   0.000000   0.000000
   35       12.030769     12.030418   0.000000   0.000000
   36       12.629513     12.629493   0.000000   0.000000
   37       12.824561     12.825310   0.000000   0.000000
   38       13.415554     13.421079   0.000000   0.000000
   39       13.754481     13.749137   0.000000   0.000000
   40       14.239384     14.464045   0.000000   0.000000
 
 -0.1428571E+00  0.1428571E+00  0.0000000E+00  0.5830904E-02
    1      -40.397690    -40.397489   1.000000   1.000000
    2      -40.379228    -40.379026   1.000000   1.000000
    3      -40.378627    -40.378425   1.000000   1.000000
    4      -40.375517    -40.375316   1.000000   1.000000
    5      -17.089822    -17.089872   1.000000   1.000000
    6      -16.465848    -16.465911   1.000000   1.000000
    7      -15.111061    -15.111137   1.000000   1.000000
    8      -15.049375    -15.049452   1.000000   1.000000
    9      -12.917743    -12.917796   1.000000   1.000000
   10      -11.327354    -11.327406   1.000000   1.000000
   11       -7.076860     -7.076887   1.000000   1.000000
   12       -3.844075     -3.844100   1.000000   1.000000
   13       -3.638913     -3.638943   1.000000   1.000000
   14       -3.024209     -3.024237   1.000000   1.000000
   15       -2.915706     -2.915738   1.000000   1.000000
   16       -1.871305     -1.871354   1.000000   1.000000
   17       -0.956233     -0.956264   1.000000   1.000000
   18       -0.909168     -0.909189   1.000000   1.000000
   19       -0.110184     -0.110220   1.000000   1.000000
   20        0.147271      0.147239   1.000000   1.000000
   21        0.366212      0.366175   1.000000   1.000000
   22        0.814234      0.814183   1.000000   1.000000
   23        1.045481      1.045425   1.000000   1.000000
   24        1.120527      1.120466   1.000000   1.000000
   25        1.261110      1.261063   1.000000   1.000000
   26        1.873760      1.873711   1.000000   1.000000
   27        1.947175      1.947132   1.000000   1.000000
   28        2.576113      2.576079   1.000000   1.000000
   29        8.401167      8.401190  -0.000000  -0.000000
   30        9.516224      9.516269   0.000000   0.000000
   31        9.875221      9.875138   0.000000   0.000000
   32       11.117872     11.117896   0.000000   0.000000
   33       11.295999     11.294231   0.000000   0.000000
   34       11.594381     11.594311   0.000000   0.000000
   35       12.118078     12.118182   0.000000   0.000000
   36       12.803756     12.804217   0.000000   0.000000
   37       13.198440     13.205086   0.000000   0.000000
   38       13.590045     13.638478   0.000000   0.000000
   39       13.664569     13.710209   0.000000   0.000000
   40       14.350299     14.357546   0.000000   0.000000
 
  0.2857143E+00  0.2857143E+00  0.0000000E+00  0.5830904E-02
    1      -40.390535    -40.390334   1.000000   1.000000
    2      -40.389553    -40.389352   1.000000   1.000000
    3      -40.377480    -40.377279   1.000000   1.000000
    4      -40.373395    -40.373194   1.000000   1.000000
    5      -16.972565    -16.972617   1.000000   1.000000
    6      -16.577846    -16.577906   1.000000   1.000000
    7      -15.168758    -15.168832   1.000000   1.000000
    8      -15.032840    -15.032917   1.000000   1.000000
    9      -12.929214    -12.929268   1.000000   1.000000
   10      -11.321383    -11.321434   1.000000   1.000000
   11       -7.087262     -7.087287   1.000000   1.000000
   12       -3.897178     -3.897195   1.000000   1.000000
   13       -3.319209     -3.319245   1.000000   1.000000
   14       -3.190089     -3.190129   1.000000   1.000000
   15       -2.528602     -2.528640   1.000000   1.000000
   16       -2.021573     -2.021616   1.000000   1.000000
   17       -0.682881     -0.682919   1.000000   1.000000
   18       -0.467246     -0.467281   1.000000   1.000000
   19       -0.248777     -0.248800   1.000000   1.000000
   20        0.123200      0.123166   1.000000   1.000000
   21        0.185885      0.185840   1.000000   1.000000
   22        0.635017      0.634981   1.000000   1.000000
   23        0.649361      0.649324   1.000000   1.000000
   24        0.929272      0.929228   1.000000   1.000000
   25        1.188497      1.188436   1.000000   1.000000
   26        1.585469      1.585433   1.000000   1.000000
   27        2.219990      2.219929   1.000000   1.000000
   28        2.593280      2.593240   1.000000   1.000000
   29        9.406432      9.406427   0.000000   0.000000
   30        9.454951      9.454930   0.000000   0.000000
   31       10.219382     10.219407   0.000000   0.000000
   32       10.508066     10.508010   0.000000   0.000000
   33       10.698130     10.698079   0.000000   0.000000
   34       11.545194     11.545230   0.000000   0.000000
   35       11.710056     11.710068   0.000000   0.000000
   36       11.895036     11.895070   0.000000   0.000000
   37       12.622590     12.622516   0.000000   0.000000
   38       12.802778     12.802531   0.000000   0.000000
   39       13.555476     13.555257   0.000000   0.000000
   40       14.696314     14.706234   0.000000   0.000000
 
  0.4285714E+00  0.2857143E+00  0.0000000E+00  0.1166181E-01
    1      -40.392354    -40.392153   1.000000   1.000000
    2      -40.387069    -40.386868   1.000000   1.000000
    3      -40.378044    -40.377843   1.000000   1.000000
    4      -40.373501    -40.373300   1.000000   1.000000
    5      -16.986432    -16.986484   1.000000   1.000000
    6      -16.549843    -16.549904   1.000000   1.000000
    7      -15.194153    -15.194225   1.000000   1.000000
    8      -15.020565    -15.020643   1.000000   1.000000
    9      -12.939496    -12.939550   1.000000   1.000000
   10      -11.319928    -11.319980   1.000000   1.000000
   11       -7.100073     -7.100099   1.000000   1.000000
   12       -3.868757     -3.868774   1.000000   1.000000
   13       -3.287977     -3.288027   1.000000   1.000000
   14       -3.181978     -3.182007   1.000000   1.000000
   15       -2.421596     -2.421636   1.000000   1.000000
   16       -2.005536     -2.005579   1.000000   1.000000
   17       -0.744119     -0.744152   1.000000   1.000000
   18       -0.603143     -0.603171   1.000000   1.000000
   19       -0.341334     -0.341356   1.000000   1.000000
   20       -0.013612     -0.013652   1.000000   1.000000
   21        0.254545      0.254504   1.000000   1.000000
   22        0.655302      0.655266   1.000000   1.000000
   23        0.827767      0.827727   1.000000   1.000000
   24        0.877141      0.877096   1.000000   1.000000
   25        1.225121      1.225060   1.000000   1.000000
   26        1.638681      1.638641   1.000000   1.000000
   27        2.138793      2.138736   1.000000   1.000000
   28        2.583993      2.583954   1.000000   1.000000
   29        9.425037      9.425038   0.000000   0.000000
   30        9.649043      9.649038   0.000000   0.000000
   31       10.022446     10.022449   0.000000   0.000000
   32       10.429143     10.429185   0.000000   0.000000
   33       10.792187     10.792121   0.000000   0.000000
   34       11.306008     11.305938   0.000000   0.000000
   35       11.851574     11.851564   0.000000   0.000000
   36       12.140453     12.140156   0.000000   0.000000
   37       12.654972     12.652984   0.000000   0.000000
   38       13.201850     13.196048   0.000000   0.000000
   39       13.654073     13.646974   0.000000   0.000000
   40       14.651572     14.456923   0.000000   0.000000
 
 -0.4285714E+00  0.2857143E+00  0.0000000E+00  0.1166181E-01
    1      -40.394641    -40.394440   1.000000   1.000000
    2      -40.383569    -40.383367   1.000000   1.000000
    3      -40.378917    -40.378715   1.000000   1.000000
    4      -40.373848    -40.373646   1.000000   1.000000
    5      -17.022981    -17.023033   1.000000   1.000000
    6      -16.506368    -16.506430   1.000000   1.000000
    7      -15.195085    -15.195157   1.000000   1.000000
    8      -15.017321    -15.017399   1.000000   1.000000
    9      -12.943225    -12.943278   1.000000   1.000000
   10      -11.320300    -11.320352   1.000000   1.000000
   11       -7.104616     -7.104643   1.000000   1.000000
   12       -3.840917     -3.840934   1.000000   1.000000
   13       -3.409277     -3.409324   1.000000   1.000000
   14       -3.083886     -3.083917   1.000000   1.000000
   15       -2.472329     -2.472369   1.000000   1.000000
   16       -1.953387     -1.953431   1.000000   1.000000
   17       -0.867644     -0.867674   1.000000   1.000000
   18       -0.721621     -0.721645   1.000000   1.000000
   19       -0.244464     -0.244494   1.000000   1.000000