Automatically generated mesh
      84
Reciprocal lattice
    0.00000000000000    0.00000000000000    0.00000000000000             1
    0.07692307692308    0.00000000000000   -0.00000000000000            12
    0.15384615384615    0.00000000000000   -0.00000000000000            12
    0.23076923076923    0.00000000000000   -0.00000000000000            12
    0.30769230769231    0.00000000000000   -0.00000000000000            12
    0.38461538461539    0.00000000000000   -0.00000000000000            12
    0.46153846153846   -0.00000000000000   -0.00000000000000            12
    0.07692307692308    0.07692307692308    0.00000000000000            24
    0.15384615384615    0.07692307692308    0.00000000000000            48
    0.23076923076923    0.07692307692308    0.00000000000000            48
    0.30769230769231    0.07692307692308    0.00000000000000            48
    0.38461538461539    0.07692307692308    0.00000000000000            48
    0.46153846153846    0.07692307692308    0.00000000000000            24
    0.15384615384615    0.15384615384615    0.00000000000001            24
    0.23076923076923    0.15384615384615    0.00000000000001            48
    0.30769230769231    0.15384615384615    0.00000000000001            48
    0.38461538461539    0.15384615384615    0.00000000000001            48
    0.23076923076923    0.23076923076923   -0.00000000000000            24
    0.30769230769231    0.23076923076923   -0.00000000000000            48
    0.38461538461539    0.23076923076923   -0.00000000000000            24
    0.30769230769231    0.30769230769231   -0.00000000000000            24
    0.07692307692308    0.07692307692308    0.07692307692308             8
    0.15384615384615    0.07692307692308    0.07692307692308            24
    0.23076923076923    0.07692307692308    0.07692307692308            24
    0.30769230769231    0.07692307692308    0.07692307692308            24
    0.38461538461539    0.07692307692308    0.07692307692308            24
   -0.07692307692308    0.07692307692308    0.07692307692308             6
    0.15384615384615    0.15384615384615    0.07692307692307            24
    0.23076923076923    0.15384615384615    0.07692307692307            48
    0.30769230769231    0.15384615384615    0.07692307692307            48
    0.38461538461539    0.15384615384615    0.07692307692307            24
   -0.15384615384615    0.15384615384615    0.07692307692307            24
    0.23076923076923    0.23076923076923    0.07692307692307            24
    0.30769230769231    0.23076923076923    0.07692307692307            48
   -0.23076923076923    0.23076923076923    0.07692307692307            24
   -0.15384615384615    0.23076923076923    0.07692307692307            24
    0.30769230769231    0.30769230769231    0.07692307692308             8
   -0.30769230769231    0.30769230769231    0.07692307692308            24
   -0.23076923076923    0.30769230769231    0.07692307692308            48
   -0.38461538461539    0.38461538461539    0.07692307692308            24
   -0.30769230769231    0.38461538461539    0.07692307692308            48
   -0.23076923076923    0.38461538461539    0.07692307692308            24
   -0.46153846153846    0.46153846153846    0.07692307692307            24
   -0.38461538461539    0.46153846153846    0.07692307692307            48
   -0.30769230769231    0.46153846153846    0.07692307692307            48
   -0.46153846153846   -0.46153846153846    0.07692307692307            24
   -0.38461538461539   -0.46153846153846    0.07692307692307            48
   -0.30769230769231   -0.46153846153846    0.07692307692307            24
   -0.38461538461539   -0.38461538461539    0.07692307692308            24
    0.15384615384615    0.15384615384615    0.15384615384615             8
    0.23076923076923    0.15384615384615    0.15384615384615            24
    0.30769230769231    0.15384615384615    0.15384615384615            24
   -0.15384615384615    0.15384615384615    0.15384615384615             6
    0.23076923076923    0.23076923076923    0.15384615384615            24
    0.30769230769231    0.23076923076923    0.15384615384615            24
   -0.23076923076923    0.23076923076923    0.15384615384615            24
   -0.30769230769231    0.30769230769231    0.15384615384616            24
   -0.23076923076923    0.30769230769231    0.15384615384616            24
   -0.38461538461539    0.38461538461539    0.15384615384615            24
   -0.30769230769231    0.38461538461539    0.15384615384615            48
   -0.46153846153846    0.46153846153846    0.15384615384615            24
   -0.38461538461539    0.46153846153846    0.15384615384615            48
   -0.30769230769231    0.46153846153846    0.15384615384615            24
   -0.46153846153846   -0.46153846153846    0.15384615384615            24
   -0.38461538461539   -0.46153846153846    0.15384615384615            48
   -0.38461538461539   -0.38461538461539    0.15384615384616             8
    0.23076923076923    0.23076923076923    0.23076923076923             8
   -0.23076923076923    0.23076923076923    0.23076923076923             6
   -0.30769230769231    0.30769230769231    0.23076923076923            24
   -0.38461538461539    0.38461538461539    0.23076923076923            24
   -0.30769230769231    0.38461538461539    0.23076923076923            24
   -0.46153846153846    0.46153846153846    0.23076923076923            24
   -0.38461538461539    0.46153846153846    0.23076923076923            48
   -0.46153846153846   -0.46153846153846    0.23076923076923            24
   -0.38461538461539   -0.46153846153846    0.23076923076923            24
   -0.30769230769231    0.30769230769231    0.30769230769231             6
   -0.38461538461539    0.38461538461539    0.30769230769231            24
   -0.46153846153846    0.46153846153846    0.30769230769231            24
   -0.38461538461539    0.46153846153846    0.30769230769231            24
   -0.46153846153846   -0.46153846153846    0.30769230769230            24
   -0.38461538461539    0.38461538461539    0.38461538461539             6
   -0.46153846153846    0.46153846153846    0.38461538461538            24
   -0.46153846153846   -0.46153846153846    0.38461538461538             8
   -0.46153846153846    0.46153846153846    0.46153846153846             6
Tetrahedra
      2490    0.00007586102261
         4         1         2         2         8
        12         2         2         8         8
         4         2         8         8        22
         4         2         3         8         9
         4         2         8         8         9
        12         8         8         9        22
        12         3         8         9         9
         8         8         9         9        23
         8         8         9        22        23
         4         3         4         9        10
         4         3         9         9        10
        12         9         9        10        23
        12         4         9        10        10
         4         9        10        10        24
         4         9        10        23        24
         4         4         5        10        11
         4         4        10        10        11
         8        10        10        11        24
        12         5        10        11        11
         4        10        11        11        25
         4        10        11        24        25
         4         5         6        11        12
         4         5        11        11        12
         8        11        11        12        25
        12         6        11        12        12
         4        11        12        12        26
         4        11        12        25        26
         4         6         7        12        13
         4         6        12        12        13
         8        12        12        13        26
        16         7        12        13        13
        12        12        13        13        26
         4        12        13        26        26
         4         7         7        12        13
        12         7        12        12        13
         4        12        12        13        25
         4        12        13        25        26
         4         6         7        11        12
         4         7        11        12        12
         8        11        12        12        25
        12         6        11        11        12
         4        11        11        12        24
         4        11        12        24        25
         4         5         6        10        11
         4         6        10        11        11
         8        10        11        11        24
        12         5        10        10        11
         4        10        10        11        23
         4        10        11        23        24
         4         4         5         9        10
         4         5         9        10        10
         8         9        10        10        23
        12         4         9         9        10
         4         9         9        10        22
         4         9        10        22        23
         4         3         4         8         9
         4         4         8         9         9
        16         8         9         9        22
        12         3         8         8         9
         4         8         8         8         9
         4         2         2         3         8
        12         2         3         8         8
         8         2         8         8         8
         8         2         2         2         8
        12         2         2         8        27
        12         2         8         8        27
         8         1         2         2         2
         4         2         2         2         2
         4         2         2         2        27
         4         8         9        14        22
        12         9        14        22        23
         4        14        22        23        28
         4         9        10        15        23
         4         9        14        15        23
         8        14        15        23        28
        12        10        15        23        24
         4        15        23        24        29
         4        15        23        28        29
         4        10        11        16        24
         4        10        15        16        24
         8        15        16        24        29
        12        11        16        24        25
         4        16        24        25        30
         4        16        24        29        30
         4        11        12        17        25
         4        11        16        17        25
         8        16        17        25        30
        12        12        17        25        26
         4        17        25        26        31
         4        17        25        30        31
        16        12        13        17        26
         4        12        17        17        26
         8        17        17        26        31
        12        13        17        26        26
         4        17        26        26        30
        16        17        26        30        31
         4        12        13        16        26
         4        13        16        17        26
         8        16        17        26        30
        12        12        16        25        26
         4        16        25        26        29
         4        16        26        29        30
         4        11        12        15        25
         4        12        15        16        25
         8        15        16        25        29
        12        11        15        24        25
         4        15        24        25        28
         4        15        25        28        29
         4        10        11        14        24
         4        11        14        15        24
        12        14        15        24        28
        12        10        14        23        24
         4        14        23        23        24
        16        14        23        24        28
        16         9        10        14        23
         8         9        14        23        23
        16         9         9        22        23
         4         9         9        23        23
        12         3         8         9        22
         8         3         9         9        22
         8         3         8         8        22
         4         3         8        22        32
         4         3         9        22        32
         4         3         8         8         8
         4         3         8         8        32
         8         8         8        27        32
         4         8         8        32        32
         4         2         2         3        27
        16         2         3         8        27
        12         3         8        27        32
         4         3         8         9        27
         4         3         9        27        32
         4        14        15        18        28
         8        15        18        28        29
         4        18        28        29        33
         4        15        16        19        29
         4        15        18        19        29
         8        18        19        29        33
         8        16        19        29        30
         4        19        29        30        34
         4        19        29        33        34
         4        16        17        20        30
         4        16        19        20        30
         8        19        20        30        34
        12        17        20        30        31
        12        20        30        31        34
         4        20        30        34        34
         4        17        17        19        31
        12        17        19        20        31
        12        19        20        31        34
         8        17        19        30        31
         4        19        30        31        33
         4        19        31        33        34
         4        16        17        18        30
         4        17        18        19        30
        12        18        19        30        33
         8        16        18        29        30
         4        18        29        29        30
        12        18        29        30        33
         4        15        15        16        29
         8        15        16        18        29
         8        15        18        29        29
         8        15        15        28        29
        16        15        24        28        29
         4        15        24        29        29
        12        10        14        15        28
         4        10        15        15        28
         8        10        15        24        28
        12        10        14        23        28
         4        10        10        23        28
         4        10        10        24        28
         4         4         9        14        23
         4         4        10        14        23
         4         4        10        10        23
         4         4         9         9        23
         4         4         9        23        35
         4         4        10        23        35
         4         3         9         9         9
         4         4         9         9         9
         4         4         9         9        35
         8         3         9         9        32
        12         9         9        32        36
         4         9         9        35        36
        16         3         8         9        32
         8         8         9        32        32
         4         9        32        32        35
         8         9        32        35        36
         4         3         4         8        32
         4         4         8         9        32
         8         4         9        32        35
        12         3         4         9        32
         4         4         9        10        32
         4         4        10        32        35
         4        18        19        21        33
         8        19        21        33        34
         4        21        33        34        37
        16        19        20        21        34
         4        19        21        21        34
        12        21        21        34        37
         8        20        21        34        34
         4        21        34        34        34
        16        21        34        34        37
         4        19        19        20        34
        12        19        21        34        34
         8        19        19        33        34
         8        19        30        33        34
         4        19        30        34        34
        12        16        18        19        33
         4        16        19        19        33
         8        16        19        30        33
        12        16        18        29        33
         4        16        25        29        33
         4        16        25        30        33
         4        11        15        18        29
         4        11        16        18        29
         8        11        16        25        29
         8        11        15        24        29
         4        11        11        24        29
         4        11        11        25        29
         4         5        10        15        24
         4         5        11        15        24
         4         5        11        11        24
         4         5        10        10        24
         4         5        10        24        38
         4         5        11        24        38
         4         4        10        10        10
         4         5        10        10        10
         4         5        10        10        38
         4         4        10        10        35
         4        10        10        35        39
         4        10        10        38        39
         4         4         9        14        35
         4         4        10        14        35
         8        10        14        35        39
        12         9        14        35        36
        12        14        35        36        39
         4        14        35        39        39
         4         9         9        10        36
        12         9        10        14        36
        12        10        14        36        39
         8         9        10        35        36
         4        10        35        36        38
         4        10        36        38        39
         4         4         5         9        35
         4         5         9        10        35
         8         5        10        35        38
        12         4         5        10        35
         4         5        10        11        35
         4         5        11        35        38
         8        20        21        21        37
        12        20        21        34        37
         4        20        31        34        37
         4        17        19        21        34
         4        17        20        21        34
         8        17        20        31        34
         8        17        19        30        34
         4        17        26        30        34
         4        17        26        31        34
         4        12        16        19        30
         4        12        17        19        30
         8        12        17        26        30
         8        12        16        25        30
         4        12        12        25        30
         4        12        12        26        30
         4         6        11        16        25
         4         6        12        16        25
         4         6        12        12        25
         4         6        11        11        25
         4         6        11        25        40
         4         6        12        25        40
         4         5        11        11        11
         4         6        11        11        11
         4         6        11        11        40
         4         5        11        11        38
         4        11        11        38        41
         4        11        11        40        41
         4         5        10        15        38
         4         5        11        15        38
         8        11        15        38        41
         8        10        15        38        39
         4        15        38        39        42
         4        15        38        41        42
         8        10        14        15        39
         4        10        15        15        39
         8        15        15        39        42
         8        14        15        39        39
         4        15        39        39        41
         8        15        39        41        42
         4        10        11        14        39
         4        11        14        15        39
         8        11        15        39        41
         8        10        11        38        39
         4        11        38        39        40
         4        11        39        40        41
         4         5         6        10        38
         4         6        10        11        38
         8         6        11        38        40
        12         5         6        11        38
         4         6        11        12        38
         4         6        12        38        40
         4        13        17        20        31
         8        13        17        26        31
         4        13        13        26        31
         4         7        12        17        26
         4         7        13        17        26
         4         7        13        13        26
         4         7        12        12        26
         4         7        12        26        43
         4         7        13        26        43
         4         6        12        12        12
         4         7        12        12        12
         4         7        12        12        43
         4         6        12        12        40
         4        12        12        40        44
         4        12        12        43        44
         4         6        11        16        40
         4         6        12        16        40
         8        12        16        40        44
         8        11        16        40        41
         4        16        40        41        45
         4        16        40        44        45
         4        11        15        18        41
         4        11        16        18        41
         8        16        18        41        45
        12        15        18        41        42
        12        18        41        42        45
         4        18        41        45        45
         4        15        15        16        42
        12        15        16        18        42
        12        16        18        42        45
         8        15        16        41        42
         4        16        41        42        44
         4        16        42        44        45
         4        11        12        15        41
         4        12        15        16        41
         8        12        16        41        44
         8        11        12        40        41
         4        12        40        41        43
         4        12        41        43        44
         4         6         7        11        40
         4         7        11        12        40
         8         7        12        40        43
        12         6         7        12        40
         4         7        12        13        40
         4         7        13        40        43
         4         7        13        13        13
         8         7        13        13        43
         4        13        13        43        46
         4         7        12        17        43
         4         7        13        17        43
         8        13        17        43        46
         8        12        17        43        44
         4        17        43        44        47
         4        17        43        46        47
         4        12        16        19        44
         4        12        17        19        44
         8        17        19        44        47
         8        16        19        44        45
         4        19        44        45        48
         4        19        44        47        48
         8        16        18        19        45
         4        16        19        19        45
         8        19        19        45        48
         8        18        19        45        45
         4        19        45        45        47
         8        19        45        47        48
         4        16        17        18        45
         4        17        18        19        45
         8        17        19        45        47
         8        16        17        44        45
         4        17        44        45        46
         4        17        45        46        47
         4        12        13        16        44
         4        13        16        17        44
        12        13        17        44        46
         8        12        13        43        44
         4        13        43        43        44
        12        13        43        44        46
         4         7         7        12        43
        16         7        12        13        43
         8         7        13        43        43
        12         7         7        13        43
         4         7        12        43        43
         4        13        17        20        46
         8        17        20        46        47
         4        20        46        47        49
         4        17        19        21        47
         4        17        20        21        47
         8        20        21        47        49
        12        19        21        47        48
        12        21        47        48        49
         4        21        47        49        49
         4        19        19        20        48
        12        19        20        21        48
        16        20        21        48        49
         8        19        20        47        48
         4        20        47        47        48
        12        20        47        48        49
         4        17        17        19        47
         8        17        19        20        47
         8        17        20        47        47
         8        17        17        46        47
         8        17        44        46        47
         4        17        44        47        47
        12        12        13        17        46
         4        12        17        17        46
         8        12        17        44        46
        12        12        13        43        46
         4        12        40        43        46
         4        12        40        44        46
         4         6         7        13        43
         4         6        12        13        43
         8         6        12        40        43
        12         6         7        12        43
         4         6        11        12        43
         4         6        11        40        43
         8        20        21        21        49
         8        21        21        49        49
         8        21        48        49        49
        12        19        20        21        49
         4        19        21        21        49
         8        19        21        48        49
        12        19        20        47        49
         4        19        45        47        49
         4        19        45        48        49
         4        16        17        20        47
         4        16        19        20        47
         8        16        19        45        47
         8        16        17        44        47
         4        16        41        44        47
         4        16        41        45        47
         4        11        12        17        44
         4        11        16        17        44
         8        11        16        41        44
         8        11        12        40        44
         4        11        38        40        44
         4        11        38        41        44
         4         5         6        12        40
         4         5        11        12        40
         8         5        11        38        40
        12         5         6        11        40
         4         5        10        11        40
         4         5        10        38        40
         4        18        19        21        48
         8        18        19        45        48
         4        18        42        45        48
         4        15        16        19        45
         4        15        18        19        45
         8        15        18        42        45
         8        15        16        41        45
         4        15        39        41        45
         4        15        39        42        45
         4        10        11        16        41
         4        10        15        16        41
         8        10        15        39        41
         8        10        11        38        41
         4        10        35        38        41
         4        10        35        39        41
         4         4         5        11        38
         4         4        10        11        38
         8         4        10        35        38
        12         4         5        10        38