       N       E                     dE             d eps       ncg     rms          rms(c)
DAV:   1     0.231669387451E+00    0.23167E+00   -0.72762E+02  2712   0.267E+02
DAV:   2    -0.156880878863E+01   -0.18005E+01   -0.17829E+01  3944   0.347E+01
DAV:   3    -0.159626462814E+01   -0.27456E-01   -0.27409E-01  3072   0.305E+00
DAV:   4    -0.159642743821E+01   -0.16281E-03   -0.16231E-03  4064   0.241E-01
DAV:   5    -0.159642779835E+01   -0.36015E-06   -0.36026E-06  3096   0.938E-03    0.545E+00
RMM:   6    -0.182747301189E+01   -0.23105E+00   -0.52405E-02  3247   0.168E+00    0.258E+00
RMM:   7    -0.189752072398E+01   -0.70048E-01   -0.15758E-02  2866   0.972E-01    0.157E-01
RMM:   8    -0.189856072477E+01   -0.10400E-02   -0.43795E-03  3189   0.559E-01    0.930E-02
RMM:   9    -0.189888018571E+01   -0.31946E-03   -0.16875E-03  3752   0.326E-01    0.345E-02
RMM:  10    -0.189917629500E+01   -0.29611E-03   -0.13792E-03  3502   0.282E-01    0.288E-02
RMM:  11    -0.189922558901E+01   -0.49294E-04   -0.19997E-04  3811   0.116E-01    0.232E-02
RMM:  12    -0.189925019847E+01   -0.24609E-04   -0.13975E-04  3603   0.885E-02    0.797E-03
RMM:  13    -0.189925838300E+01   -0.81845E-05   -0.29667E-05  3474   0.447E-02
   1 F= -.18992584E+01 E0= -.18992584E+01  d E =0.000000E+00  mag=    -0.0000
