    3    3    1    2
  0.9185001E+01  0.3590786E-09  0.3294299E-09  0.3294299E-09  0.5000000E-15
  1.000000000000000E-004
  CAR 
 unknown system                          
     12    433     12
 
  0.0000000E+00  0.0000000E+00  0.0000000E+00  0.6313131E-03
    1      -42.451756    -42.448223   1.000000   1.000000
    2      -42.221780    -42.218191   1.000000   1.000000
    3      -14.468796    -14.469804   1.000000   1.000000
    4        0.674203      0.672945   1.000000   1.000000
    5        0.849113      0.848171   1.000000   1.000000
    6        0.918003      0.916936   1.000000   1.000000
    7        5.165825      5.166229   0.000000   0.000000
    8       11.180581     11.181394   0.000000   0.000000
    9       12.358474     12.360246   0.000000   0.000000
   10       13.089051     13.090136   0.000000   0.000000
   11       18.042469     18.042742   0.000000   0.000000
   12       18.496095     18.496878   0.000000   0.000000
 
  0.9090909E-01 -0.2570491E-17  0.3685673E-14  0.1262626E-02
    1      -42.446636    -42.443102   1.000000   1.000000
    2      -42.225969    -42.222382   1.000000   1.000000
    3      -14.456819    -14.457830   1.000000   1.000000
    4        0.407804      0.406659   1.000000   1.000000
    5        0.820880      0.819945   1.000000   1.000000
    6        0.893477      0.892425   1.000000   1.000000
    7        5.436140      5.436443   0.000000   0.000000
    8       11.200188     11.200977   0.000000   0.000000
    9       12.469021     12.470788   0.000000   0.000000
   10       13.155650     13.156731   0.000000   0.000000
   11       17.851013     17.851111   0.000000   0.000000
   12       18.010871     18.011318   0.000000   0.000000
 
  0.1818182E+00  0.2199673E-17  0.4102725E-14  0.1262626E-02
    1      -42.431863    -42.428324   1.000000   1.000000
    2      -42.238431    -42.234846   1.000000   1.000000
    3      -14.424537    -14.425562   1.000000   1.000000
    4       -0.211436     -0.212374   1.000000   1.000000
    5        0.746841      0.745922   1.000000   1.000000
    6        0.842751      0.841721   1.000000   1.000000
    7        6.087359      6.087498   0.000000   0.000000
    8       11.178489     11.179186   0.000000   0.000000
    9       12.749216     12.750943   0.000000   0.000000
   10       13.264735     13.265772   0.000000   0.000000
   11       17.174548     17.174643   0.000000   0.000000
   12       17.455702     17.456725   0.000000   0.000000
 
  0.2727273E+00  0.8058539E-17 -0.2843478E-14  0.1262626E-02
    1      -42.408968    -42.405425   1.000000   1.000000
    2      -42.258399    -42.254819   1.000000   1.000000
    3      -14.381079    -14.382124   1.000000   1.000000
    4       -0.882554     -0.883325   1.000000   1.000000
    5        0.653369      0.652470   1.000000   1.000000
    6        0.782054      0.781051   1.000000   1.000000
    7        6.906825      6.906850   0.000000   0.000000
    8       10.958777     10.959338   0.000000   0.000000
    9       13.037537     13.039143   0.000000   0.000000
   10       13.233134     13.234030   0.000000   0.000000
   11       16.978039     16.979779   0.000000   0.000000
   12       17.078364     17.078515   0.000000   0.000000
 
  0.3636364E+00 -0.1647154E-16  0.8988490E-15  0.1262626E-02
    1      -42.380088    -42.376537   1.000000   1.000000
    2      -42.284651    -42.281077   1.000000   1.000000
    3      -14.339836    -14.340900   1.000000   1.000000
    4       -1.414333     -1.414997   1.000000   1.000000
    5        0.570694      0.569810   1.000000   1.000000
    6        0.729164      0.728184   1.000000   1.000000
    7        7.793719      7.793670   0.000000   0.000000
    8       10.463734     10.464179   0.000000   0.000000
    9       13.060300     13.061039   0.000000   0.000000
   10       13.158915     13.160348   0.000000   0.000000
   11       16.974162     16.975632   0.000000   0.000000
   12       17.461675     17.461997   0.000000   0.000000
 
  0.4545455E+00 -0.3619576E-17  0.1273125E-14  0.1262626E-02
    1      -42.347975    -42.344416   1.000000   1.000000
    2      -42.315192    -42.311625   1.000000   1.000000
    3      -14.314629    -14.315706   1.000000   1.000000
    4       -1.703572     -1.704183   1.000000   1.000000
    5        0.522913      0.522039   1.000000   1.000000
    6        0.698827      0.697859   1.000000   1.000000
    7        8.649778      8.649579   0.000000   0.000000
    8        9.783845      9.784334   0.000000   0.000000
    9       12.919216     12.919871   0.000000   0.000000
   10       13.150238     13.151568   0.000000   0.000000
   11       17.195758     17.197677   0.000000   0.000000
   12       17.871058     17.871526   0.000000   0.000000
 
 -0.3034606E-17  0.8333333E-01 -0.4751359E-14  0.2525253E-02
    1      -42.447164    -42.443630   1.000000   1.000000
    2      -42.225000    -42.221412   1.000000   1.000000
    3      -14.454419    -14.455431   1.000000   1.000000
    4        0.599857      0.598747   1.000000   1.000000
    5        0.686713      0.685687   1.000000   1.000000
    6        0.864838      0.863812   1.000000   1.000000
    7        5.355031      5.355380   0.000000   0.000000
    8       11.287583     11.288377   0.000000   0.000000
    9       12.399867     12.401576   0.000000   0.000000
   10       13.080590     13.081663   0.000000   0.000000
   11       17.293662     17.293759   0.000000   0.000000
   12       18.178525     18.179102   0.000000   0.000000
 
  0.9090909E-01  0.8333333E-01 -0.1058903E-14  0.2525253E-02
    1      -42.446052    -42.442518   1.000000   1.000000
    2      -42.225855    -42.222268   1.000000   1.000000
    3      -14.451414    -14.452428   1.000000   1.000000
    4        0.513597      0.512440   1.000000   1.000000
    5        0.713344      0.712415   1.000000   1.000000
    6        0.822677      0.821649   1.000000   1.000000
    7        5.433872      5.434194   0.000000   0.000000
    8       11.318601     11.319385   0.000000   0.000000
    9       12.407133     12.408850   0.000000   0.000000
   10       13.189626     13.190706   0.000000   0.000000
   11       16.460946     16.461245   0.000000   0.000000
   12       18.738580     18.739260   0.000000   0.000000
 
  0.1818182E+00  0.8333333E-01 -0.6521441E-15  0.2525253E-02
    1      -42.435233    -42.431696   1.000000   1.000000
    2      -42.234866    -42.231280   1.000000   1.000000
    3      -14.426673    -14.427698   1.000000   1.000000
    4       -0.001148     -0.002141   1.000000   1.000000
    5        0.682759      0.681853   1.000000   1.000000
    6        0.764270      0.763270   1.000000   1.000000
    7        5.936068      5.936246   0.000000   0.000000
    8       11.336231     11.336922   0.000000   0.000000
    9       12.597734     12.599386   0.000000   0.000000
   10       13.414952     13.416145   0.000000   0.000000
   11       15.724800     15.725180   0.000000   0.000000
   12       18.906509     18.907365   0.000000   0.000000
 
  0.2727273E+00  0.8333333E-01  0.3065937E-14  0.2525253E-02
    1      -42.415837    -42.412295   1.000000   1.000000
    2      -42.251519    -42.247937   1.000000   1.000000
    3      -14.387166    -14.388208   1.000000   1.000000
    4       -0.651852     -0.652676   1.000000   1.000000
    5        0.599866      0.598978   1.000000   1.000000
    6        0.703922      0.702956   1.000000   1.000000
    7        6.662316      6.662368   0.000000   0.000000
    8       11.170590     11.171151   0.000000   0.000000
    9       12.848577     12.850053   0.000000   0.000000
   10       13.522981     13.524229   0.000000   0.000000
   11       15.572722     15.573335   0.000000   0.000000
   12       18.556324     18.557153   0.000000   0.000000
 
  0.3636364E+00  0.8333333E-01 -0.3924185E-14  0.2525253E-02
    1      -42.389761    -42.386213   1.000000   1.000000
    2      -42.274788    -42.271211   1.000000   1.000000
    3      -14.344699    -14.345761   1.000000   1.000000
    4       -1.224473     -1.225176   1.000000   1.000000
    5        0.514646      0.513783   1.000000   1.000000
    6        0.646188      0.645240   1.000000   1.000000
    7        7.486962      7.486925   0.000000   0.000000
    8       10.727182     10.727620   0.000000   0.000000
    9       12.991931     12.993093   0.000000   0.000000
   10       13.400678     13.401916   0.000000   0.000000
   11       16.088823     16.089662   0.000000   0.000000
   12       18.270081     18.270893   0.000000   0.000000
 
  0.4545455E+00  0.8333333E-01 -0.3489826E-14  0.2525253E-02
    1      -42.359512    -42.355955   1.000000   1.000000
    2      -42.303095    -42.299525   1.000000   1.000000
    3      -14.313224    -14.314301   1.000000   1.000000
    4       -1.592040     -1.592673   1.000000   1.000000
    5        0.445524      0.444680   1.000000   1.000000
    6        0.617704      0.616764   1.000000   1.000000
    7        8.317778      8.317627   0.000000   0.000000
    8       10.088599     10.089026   0.000000   0.000000
    9       12.996025     12.996855   0.000000   0.000000
   10       13.258587     13.259831   0.000000   0.000000
   11       16.890368     16.891631   0.000000   0.000000
   12       17.992304     17.993533   0.000000   0.000000
 
 -0.4545455E+00  0.8333333E-01  0.3184998E-14  0.2525253E-02
    1      -42.334601    -42.331039   1.000000   1.000000
    2      -42.327456    -42.323891   1.000000   1.000000
    3      -14.303754    -14.304835   1.000000   1.000000
    4       -1.689680     -1.690295   1.000000   1.000000
    5        0.406767      0.405929   1.000000   1.000000
    6        0.632191      0.631246   1.000000   1.000000
    7        8.721416      8.721052   0.000000   0.000000
    8        9.732814      9.733425   0.000000   0.000000
    9       12.940687     12.941829   0.000000   0.000000
   10       13.263288     13.264545   0.000000   0.000000
   11       17.162101     17.164189   0.000000   0.000000
   12       17.848920     17.849931   0.000000   0.000000
 
 -0.3636364E+00  0.8333333E-01  0.3619356E-14  0.2525253E-02
    1      -42.366253    -42.362698   1.000000   1.000000
    2      -42.296851    -42.293279   1.000000   1.000000
    3      -14.319822    -14.320895   1.000000   1.000000
    4       -1.501584     -1.502231   1.000000   1.000000
    5        0.410650      0.409806   1.000000   1.000000
    6        0.683961      0.683000   1.000000   1.000000
    7        8.071058      8.070901   0.000000   0.000000
    8       10.297052     10.297532   0.000000   0.000000
    9       12.893287     12.894273   0.000000   0.000000
   10       13.434443     13.435661   0.000000   0.000000
   11       16.380303     16.381685   0.000000   0.000000
   12       18.193547     18.194487   0.000000   0.000000
 
 -0.2727273E+00  0.8333333E-01 -0.3345296E-14  0.2525253E-02
    1      -42.395925    -42.392378   1.000000   1.000000
    2      -42.269501    -42.265924   1.000000   1.000000
    3      -14.355502    -14.356559   1.000000   1.000000
    4       -1.058837     -1.059565   1.000000   1.000000
    5        0.459402      0.458539   1.000000   1.000000
    6        0.755539      0.754555   1.000000   1.000000
    7        7.228508      7.228456   0.000000   0.000000
    8       10.882567     10.883106   0.000000   0.000000
    9       12.847929     12.849191   0.000000   0.000000
   10       13.588105     13.589468   0.000000   0.000000
   11       15.782944     15.783923   0.000000   0.000000
   12       18.276448     18.277259   0.000000   0.000000
 
 -0.1818182E+00  0.8333333E-01  0.3137641E-15  0.2525253E-02
    1      -42.420765    -42.417224   1.000000   1.000000
    2      -42.247504    -42.243921   1.000000   1.000000
    3      -14.398423    -14.399460   1.000000   1.000000
    4       -0.444657     -0.445519   1.000000   1.000000
    5        0.542062      0.541168   1.000000   1.000000
    6        0.823354      0.822347   1.000000   1.000000
    7        6.424165      6.424225   0.000000   0.000000
    8       11.214617     11.215277   0.000000   0.000000
    9       12.757809     12.759162   0.000000   0.000000
   10       13.405557     13.406952   0.000000   0.000000
   11       15.971588     15.972244   0.000000   0.000000
   12       18.260237     18.261187   0.000000   0.000000
 
 -0.9090909E-01  0.8333333E-01  0.7481227E-15  0.2525253E-02
    1      -42.438448    -42.434912   1.000000   1.000000
    2      -42.232368    -42.228782   1.000000   1.000000
    3      -14.435001    -14.436021   1.000000   1.000000
    4        0.186773      0.185748   1.000000   1.000000
    5        0.634326      0.633382   1.000000   1.000000
    6        0.864047      0.863026   1.000000   1.000000
    7        5.746903      5.747115   0.000000   0.000000
    8       11.294655     11.295413   0.000000   0.000000
    9       12.572631     12.574243   0.000000   0.000000
   10       13.149331     13.150502   0.000000   0.000000
   11       16.788833     16.789422   0.000000   0.000000
   12       18.245777     18.246816   0.000000   0.000000
 
 -0.4581098E-17  0.1666667E+00  0.4711416E-14  0.2525253E-02
    1      -42.433831    -42.430293   1.000000   1.000000
    2      -42.234854    -42.231268   1.000000   1.000000
    3      -14.414593    -14.415622   1.000000   1.000000
    4        0.087949      0.087175   1.000000   1.000000
    5        0.569459      0.568277   1.000000   1.000000
    6        0.767294      0.766310   1.000000   1.000000
    7        5.854362      5.854610   0.000000   0.000000
    8       11.516043     11.516683   0.000000   0.000000
    9       12.381443     12.382887   0.000000   0.000000
   10       13.090580     13.091687   0.000000   0.000000
   11       16.321524     16.321586   0.000000   0.000000
   12       17.407146     17.407999   0.000000   0.000000
 
  0.9090909E-01  0.1666667E+00 -0.2265971E-14  0.2525253E-02
    1      -42.436655    -42.433117   1.000000   1.000000
    2      -42.232219    -42.228633   1.000000   1.000000
    3      -14.419650    -14.420676   1.000000   1.000000
    4        0.252680      0.251911   1.000000   1.000000
    5        0.555799      0.554593   1.000000   1.000000
    6        0.696816      0.695836   1.000000   1.000000
    7        5.739171      5.739443   0.000000   0.000000
    8       11.561622     11.562288   0.000000   0.000000
    9       12.434438     12.436035   0.000000   0.000000
   10       13.189355     13.190425   0.000000   0.000000
   11       15.314136     15.314427   0.000000   0.000000
   12       18.730204     18.732251   0.000000   0.000000
 
  0.1818182E+00  0.1666667E+00 -0.1843016E-14  0.2525253E-02
    1      -42.430529    -42.426991   1.000000   1.000000
    2      -42.237132    -42.233546   1.000000   1.000000
    3      -14.404277    -14.405313   1.000000   1.000000
    4        0.121324      0.120392   1.000000   1.000000
    5        0.412474      0.411538   1.000000   1.000000
    6        0.587485      0.586544   1.000000   1.000000
    7        5.965456      5.965638   0.000000   0.000000
    8       11.666034     11.666650   0.000000   0.000000
    9       12.606023     12.607576   0.000000   0.000000
   10       13.507458     13.508614   0.000000   0.000000
   11       14.488490     14.488708   0.000000   0.000000
   12       19.929567     19.931406   0.000000   0.000000
 
  0.2727273E+00  0.1666667E+00  0.1835611E-14  0.2525253E-02
    1      -42.416007    -42.412464   1.000000   1.000000
    2      -42.249369    -42.245786   1.000000   1.000000
    3      -14.372564    -14.373614   1.000000   1.000000
    4       -0.408040     -0.408908   1.000000   1.000000
    5        0.375903      0.375076   1.000000   1.000000
    6        0.496578      0.495665   1.000000   1.000000
    7        6.435326      6.435389   0.000000   0.000000
    8       11.619344     11.619861   0.000000   0.000000
    9       12.849917     12.851298   0.000000   0.000000
   10       13.711768     13.712707   0.000000   0.000000
   11       14.354134     14.354795   0.000000   0.000000
   12       20.342759     20.364809   0.000000   0.000000
 
  0.3636364E+00  0.1666667E+00 -0.1586280E-14  0.2525253E-02
    1      -42.394570    -42.391022   1.000000   1.000000
    2      -42.268188    -42.264610   1.000000   1.000000
    3      -14.333790    -14.334858   1.000000   1.000000
    4       -0.958015     -0.958771   1.000000   1.000000
    5        0.298153      0.297362   1.000000   1.000000
    6        0.440079      0.439191   1.000000   1.000000
    7        7.055815      7.055776   0.000000   0.000000
    8       11.255982     11.256379   0.000000   0.000000
    9       13.022073     13.023150   0.000000   0.000000
   10       13.584458     13.585342   0.000000   0.000000
   11       15.107290     15.108326   0.000000   0.000000
   12       19.767673     19.765955   0.000000   0.000000
 
  0.4545455E+00  0.1666667E+00 -0.4722438E-14  0.2525253E-02
    1      -42.368288    -42.364733   1.000000   1.000000
    2      -42.292339    -42.288766   1.000000   1.000000
    3      -14.300231    -14.301313   1.000000   1.000000
    4       -1.366833     -1.367511   1.000000   1.000000
    5        0.205216      0.204454   1.000000   1.000000
    6        0.424022      0.423140   1.000000   1.000000
    7        7.749949      7.749811   0.000000   0.000000
    8       10.669515     10.669868   0.000000   0.000000
    9       13.096871     13.097694   0.000000   0.000000
   10       13.490490     13.491495   0.000000   0.000000
   11       16.096361     16.097547   0.000000   0.000000
   12       18.891398     18.892937   0.000000   0.000000
 
 -0.4545455E+00  0.1666667E+00 -0.5195669E-14  0.2525253E-02
    1      -42.339565    -42.336003   1.000000   1.000000
    2      -42.320054    -42.316487   1.000000   1.000000
    3      -14.283396    -14.284486   1.000000   1.000000
    4       -1.550080     -1.550723   1.000000   1.000000
    5        0.122686      0.121938   1.000000   1.000000
    6        0.461812      0.460922   1.000000   1.000000
    7        8.338273      8.337967   0.000000   0.000000
    8       10.107460     10.107938   0.000000   0.000000
    9       13.090711     13.091357   0.000000   0.000000
   10       13.469086     13.470174   0.000000   0.000000
   11       17.109441     17.110798   0.000000   0.000000
   12       17.745934     17.747319   0.000000   0.000000
 
 -0.3636364E+00  0.1666667E+00  0.2407479E-14  0.2525253E-02
    1      -42.349409    -42.345850   1.000000   1.000000
    2      -42.310689    -42.307121   1.000000   1.000000
    3      -14.289385    -14.290471   1.000000   1.000000
    4       -1.477102     -1.477752   1.000000   1.000000
    5        0.079546      0.078793   1.000000   1.000000
    6        0.544168      0.543256   1.000000   1.000000
    7        8.289329      8.288982   0.000000   0.000000
    8       10.127164     10.127740   0.000000   0.000000
    9       12.949350     12.950089   0.000000   0.000000
   10       13.691649     13.692612   0.000000   0.000000
   11       16.357823     16.359364   0.000000   0.000000
   12       18.097212     18.098032   0.000000   0.000000
 
 -0.2727273E+00  0.1666667E+00 -0.1030575E-14  0.2525253E-02
    1      -42.377825    -42.374272   1.000000   1.000000
    2      -42.284078    -42.280504   1.000000   1.000000
    3      -14.315961    -14.317035   1.000000   1.000000
    4       -1.168483     -1.169178   1.000000   1.000000
    5        0.098188      0.097404   1.000000   1.000000
    6        0.645789      0.644848   1.000000   1.000000
    7        7.650886      7.650702   0.000000   0.000000
    8       10.682289     10.682847   0.000000   0.000000
    9       12.720758     12.721586   0.000000   0.000000
   10       14.159282     14.160257   0.000000   0.000000
   11       15.121782     15.123135   0.000000   0.000000
   12       18.667314     18.667927   0.000000   0.000000
 
 -0.1818182E+00  0.1666667E+00  0.2723344E-14  0.2525253E-02
    1      -42.402917    -42.399372   1.000000   1.000000
    2      -42.261644    -42.258064   1.000000   1.000000
    3      -14.353831    -14.354888   1.000000   1.000000
    4       -0.703370     -0.704128   1.000000   1.000000
    5        0.192805      0.191950   1.000000   1.000000
    6        0.734254      0.733286   1.000000   1.000000
    7        6.928442      6.928409   0.000000   0.000000
    8       11.228463     11.229086   0.000000   0.000000
    9       12.468039     12.468946   0.000000   0.000000
   10       14.027778     14.029305   0.000000   0.000000
   11       14.972690     14.973393   0.000000   0.000000
   12       18.474407     18.476559   0.000000   0.000000
 
 -0.9090909E-01  0.1666667E+00 -0.4521623E-15  0.2525253E-02
    1      -42.422185    -42.418645   1.000000   1.000000
    2      -42.244882    -42.241298   1.000000   1.000000
    3      -14.390374    -14.391413   1.000000   1.000000
    4       -0.232362     -0.233149   1.000000   1.000000
    5        0.372710      0.371704   1.000000   1.000000
    6        0.779571      0.778588   1.000000   1.000000
    7        6.291574      6.291693   0.000000   0.000000
    8       11.501778     11.502465   0.000000   0.000000
    9       12.352095     12.353128   0.000000   0.000000
   10       13.354973     13.356328   0.000000   0.000000
   11       15.947519     15.948256   0.000000   0.000000
   12       17.638969     17.640511   0.000000   0.000000
 
  0.1694152E-16  0.2500000E+00 -0.7226988E-16  0.2525253E-02
    1      -42.413078    -42.409535   1.000000   1.000000
    2      -42.250876    -42.247294   1.000000   1.000000
    3      -14.357973    -14.359027   1.000000   1.000000
    4       -0.563874     -0.564489   1.000000   1.000000
    5        0.456585      0.455433   1.000000   1.000000
    6        0.645380      0.644435   1.000000   1.000000
    7        6.562186      6.562365   0.000000   0.000000
    8       11.589239     11.589540   0.000000   0.000000
    9       12.123716     12.124797   0.000000   0.000000
   10       13.076396     13.077524   0.000000   0.000000
   11       15.862239     15.862758   0.000000   0.000000
   12       17.063311     17.064231   0.000000   0.000000
 
  0.9090909E-01  0.2500000E+00  0.3614546E-14  0.2525253E-02
    1      -42.419586    -42.416045   1.000000   1.000000
    2      -42.244859    -42.241276   1.000000   1.000000
    3      -14.368639    -14.369688   1.000000   1.000000
    4       -0.353599     -0.354234   1.000000   1.000000
    5        0.486856      0.485734   1.000000   1.000000
    6        0.571190      0.570203   1.000000   1.000000
    7        6.292626      6.292839   0.000000   0.000000
    8       11.549591     11.550097   0.000000   0.000000
    9       12.446199     12.447583   0.000000   0.000000
   10       13.200660     13.201696   0.000000   0.000000
   11       14.766343     14.766438   0.000000   0.000000
   12       18.361358     18.362509   0.000000   0.000000
 
  0.1818182E+00  0.2500000E+00  0.4014210E-14  0.2525253E-02
    1      -42.418390    -42.414848   1.000000   1.000000
    2      -42.245312    -42.241729   1.000000   1.000000
    3      -14.362251    -14.363306   1.000000   1.000000
    4       -0.201013     -0.201658   1.000000   1.000000
    5        0.300696      0.299569   1.000000   1.000000
    6        0.423779      0.422888   1.000000   1.000000
    7        6.184821      6.184987   0.000000   0.000000
    8       11.773002     11.773473   0.000000   0.000000
    9       12.705552     12.706939   0.000000   0.000000
   10       13.542130     13.543335   0.000000   0.000000
   11       13.967836     13.968029   0.000000   0.000000
   12       19.782864     19.783993   0.000000   0.000000
 
  0.2727273E+00  0.2500000E+00 -0.2942365E-14  0.2525253E-02
    1      -42.409683    -42.406139   1.000000   1.000000
    2      -42.252213    -42.248631   1.000000   1.000000
    3      -14.340461    -14.341526   1.000000   1.000000
    4       -0.272389     -0.273144   1.000000   1.000000
    5        0.053373      0.052466   1.000000   1.000000
    6        0.295363      0.294513   1.000000   1.000000
    7        6.248058      6.248142   0.000000   0.000000
    8       12.051286     12.051712   0.000000   0.000000
    9       12.995582     12.996879   0.000000   0.000000
   10       13.467188     13.467441   0.000000   0.000000
   11       14.057980     14.059372   0.000000   0.000000
   12       20.555161     20.553238   0.000000   0.000000
 
  0.3636364E+00  0.2500000E+00  0.7676392E-15  0.2525253E-02
    1      -42.394365    -42.390817   1.000000   1.000000
    2      -42.265352    -42.261773   1.000000   1.000000
    3      -14.309617    -14.310697   1.000000   1.000000
    4       -0.673010     -0.673806   1.000000   1.000000
    5       -0.025574     -0.026304   1.000000   1.000000
    6        0.215371      0.214544   1.000000   1.000000
    7        6.521571      6.521564   0.000000   0.000000
    8       11.967405     11.967727   0.000000   0.000000
    9       13.136265     13.137138   0.000000   0.000000
   10       13.501264     13.501926   0.000000   0.000000
   11       14.726145     14.727667   0.000000   0.000000
   12       20.301670     20.302456   0.000000   0.000000
 
  0.4545455E+00  0.2500000E+00  0.1149915E-14  0.2525253E-02
    1      -42.373933    -42.370379   1.000000   1.000000
    2      -42.283776    -42.280201   1.000000   1.000000
    3      -14.279072    -14.280165   1.000000   1.000000
    4       -1.058951     -1.059693   1.000000   1.000000
    5       -0.122629     -0.123296   1.000000   1.000000
    6        0.197036      0.196217   1.000000   1.000000
    7        7.005971      7.005874   0.000000   0.000000
    8       11.468782     11.469033   0.000000   0.000000
    9       13.222301     13.222997   0.000000   0.000000
   10       13.640191     13.641008   0.000000   0.000000
   11       15.577682     15.579245   0.000000   0.000000
   12       19.989637     19.995858   0.000000   0.000000
 
 -0.4545455E+00  0.2500000E+00  0.7877071E-15  0.2525253E-02
    1      -42.350322    -42.346763   1.000000   1.000000
    2      -42.306245    -42.302675   1.000000   1.000000
    3      -14.259055    -14.260157   1.000000   1.000000
    4       -1.297479     -1.298176   1.000000   1.000000
    5       -0.228244     -0.228885   1.000000   1.000000
    6        0.244105      0.243277   1.000000   1.000000
    7        7.615236      7.615035   0.000000   0.000000
    8       10.805890     10.806183   0.000000   0.000000
    9       13.264168     13.264785   0.000000   0.000000
   10       13.656773     13.657610   0.000000   0.000000
   11       16.517941     16.519462   0.000000   0.000000
   12       18.585733     18.587430   0.000000   0.000000
 
 -0.3636364E+00  0.2500000E+00 -0.2304532E-14  0.2525253E-02
    1      -42.331214    -42.327650   1.000000   1.000000
    2      -42.325449    -42.321884   1.000000   1.000000
    3      -14.256663    -14.257765   1.000000   1.000000
    4       -1.346952     -1.347624   1.000000   1.000000
    5       -0.288905     -0.289561   1.000000   1.000000
    6        0.346198      0.345344   1.000000   1.000000
    7        8.114705      8.114353   0.000000   0.000000
    8       10.269829     10.270326   0.000000   0.000000
    9       13.142875     13.143508   0.000000   0.000000
   10       13.728079     13.728831   0.000000   0.000000
   11       17.081470     17.083213   0.000000   0.000000
   12       17.445447     17.446628   0.000000   0.000000
 
 -0.2727273E+00  0.2500000E+00  0.1306037E-14  0.2525253E-02
    1      -42.356376    -42.352818   1.000000   1.000000
    2      -42.301578    -42.298007   1.000000   1.000000
    3      -14.272659    -14.273753   1.000000   1.000000
    4       -1.228036     -1.228689   1.000000   1.000000
    5       -0.250095     -0.250823   1.000000   1.000000
    6        0.474895      0.474008   1.000000   1.000000
    7        8.060248      8.059912   0.000000   0.000000
    8       10.329916     10.330550   0.000000   0.000000
    9       12.822608     12.823253   0.000000   0.000000
   10       13.897789     13.898463   0.000000   0.000000
   11       15.863350     15.864996   0.000000   0.000000
   12       18.131090     18.131923   0.000000   0.000000
 
 -0.1818182E+00  0.2500000E+00 -0.2071935E-14  0.2525253E-02
    1      -42.379833    -42.376282   1.000000   1.000000
    2      -42.280233    -42.276657   1.000000   1.000000
    3      -14.301385    -14.302465   1.000000   1.000000
    4       -1.016633     -1.017257   1.000000   1.000000
    5       -0.071544     -0.072411   1.000000   1.000000
    6        0.590489      0.589569   1.000000   1.000000
    7        7.549903      7.549775   0.000000   0.000000
    8       10.894789     10.895442   0.000000   0.000000
    9       12.378777     12.379403   0.000000   0.000000
   10       13.804689     13.805596   0.000000   0.000000
   11       15.409446     15.410794   0.000000   0.000000
   12       18.151891     18.153667   0.000000   0.000000
 
 -0.9090909E-01  0.2500000E+00  0.5438804E-14  0.2525253E-02
    1      -42.399379    -42.395832   1.000000   1.000000
    2      -42.262944    -42.259364   1.000000   1.000000
    3      -14.333150    -14.334215   1.000000   1.000000
    4       -0.788188     -0.788793   1.000000   1.000000
    5        0.214339      0.213305   1.000000   1.000000
    6        0.654056      0.653116   1.000000   1.000000
    7        6.997286      6.997341   0.000000   0.000000
    8       11.530576     11.531339   0.000000   0.000000
    9       11.945230     11.945861   0.000000   0.000000
   10       13.340334     13.341475   0.000000   0.000000
   11       15.926241     15.927295   0.000000   0.000000
   12       17.246316     17.247052   0.000000   0.000000
 
 -0.1065031E-16  0.3333333E+00 -0.4791302E-14  0.2525253E-02
    1      -42.386869    -42.383319   1.000000   1.000000
    2      -42.272333    -42.268755   1.000000   1.000000