 running on   12 total cores
 distrk:  each k-point on   12 cores,    1 groups
 distr:  one band on    6 cores,    2 groups
 using from now: INCAR     
 vasp.6.1.2 22Jul20 (build Mar 20 2021 11:25:07) complex                        
  
 POSCAR found type information on POSCAR LiO 
 POSCAR found :  2 types and       3 ions
 scaLAPACK will be used
 -----------------------------------------------------------------------------
|                                                                             |
|               ----> ADVICE to this user running VASP <----                  |
|                                                                             |
|     You have a (more or less) 'small supercell' and for smaller cells       |
|     it is recommended to use the reciprocal-space projection scheme!        |
|     The real-space optimization is not efficient for small cells and it     |
|     is also less accurate ...                                               |
|     Therefore, set LREAL=.FALSE. in the INCAR file.                         |
|                                                                             |
 -----------------------------------------------------------------------------

 LDA part: xc-table for Pade appr. of Perdew
 generate k-points for:   11   12   12
 POSCAR, INCAR and KPOINTS ok, starting setup
 FFT: planning ...
 WAVECAR not read
 entering main loop
       N       E                     dE             d eps       ncg     rms          rms(c)
DAV:   1     0.454179635628E+02    0.45418E+02   -0.55601E+03 20836   0.101E+03
DAV:   2    -0.940232507432E+01   -0.54820E+02   -0.52705E+02 25124   0.224E+02
DAV:   3    -0.152055969660E+02   -0.58033E+01   -0.57623E+01 39320   0.530E+01
DAV:   4    -0.152580179747E+02   -0.52421E-01   -0.52410E-01 24032   0.657E+00
DAV:   5    -0.152584456188E+02   -0.42764E-03   -0.42764E-03 29236   0.477E-01    0.116E+01
RMM:   6    -0.141357758767E+02    0.11227E+01   -0.37225E+00 22839   0.126E+01    0.507E+00
RMM:   7    -0.142230263898E+02   -0.87251E-01   -0.14856E-01 25493   0.317E+00    0.201E+00
RMM:   8    -0.142194628825E+02    0.35635E-02   -0.60434E-02 29175   0.244E+00    0.115E+00
RMM:   9    -0.142324421790E+02   -0.12979E-01   -0.32121E-02 29899   0.203E+00    0.262E-01
RMM:  10    -0.142332990943E+02   -0.85692E-03   -0.98331E-03 34629   0.740E-01    0.152E-01
RMM:  11    -0.142344439615E+02   -0.11449E-02   -0.61172E-03 32578   0.611E-01    0.192E-01
WARNING in EDDRMM: call to ZHEGV failed, returncode =   6  3      5
WARNING in EDDRMM: call to ZHEGV failed, returncode =   6  3      5
RMM:  12    -0.142341752464E+02    0.26872E-03   -0.18310E-03 33774   0.335E-01    0.845E-02
WARNING in EDDRMM: call to ZHEGV failed, returncode =   6  3      4
RMM:  13    -0.142341795041E+02   -0.42577E-05   -0.87318E-04 33670   0.228E-01    0.207E-02
RMM:  14    -0.142342269506E+02   -0.47447E-04   -0.39047E-04 33578   0.128E-01    0.254E-02
WARNING in EDDRMM: call to ZHEGV failed, returncode =   6  3      5
RMM:  15    -0.142342502079E+02   -0.23257E-04   -0.14062E-04 30428   0.817E-02    0.372E-02
RMM:  16    -0.142342469993E+02    0.32087E-05   -0.63928E-05 28341   0.582E-02
   1 F= -.14234247E+02 E0= -.14234247E+02  d E =0.000000E+00  mag=    -0.0000
