    9    9    1    2
  0.1129649E+02  0.5054180E-09  0.4939614E-09  0.5116751E-09  0.5000000E-15
  1.000000000000000E-004
  CAR 
 unknown system                          
     51    197     34
 
  0.0000000E+00  0.0000000E+00  0.0000000E+00  0.2551020E-02
    1      -44.386061    -44.385766   1.000000   1.000000
    2      -25.243786    -25.244047   1.000000   1.000000
    3      -24.166788    -24.166629   1.000000   1.000000
    4      -23.889137    -23.888916   1.000000   1.000000
    5      -23.320988    -23.320460   1.000000   1.000000
    6      -14.861743    -14.861695   1.000000   1.000000
    7      -14.065599    -14.065169   1.000000   1.000000
    8      -13.826388    -13.825948   1.000000   1.000000
    9      -13.030810    -13.030741   1.000000   1.000000
   10       -7.989829     -7.989825   1.000000   1.000000
   11       -7.555193     -7.555140   1.000000   1.000000
   12       -7.489379     -7.489271   1.000000   1.000000
   13       -6.946929     -6.946747   1.000000   1.000000
   14       -6.336138     -6.335851   1.000000   1.000000
   15       -6.122739     -6.122727   1.000000   1.000000
   16       -5.875893     -5.875717   1.000000   1.000000
   17       -5.774782     -5.774447   1.000000   1.000000
   18       -3.759659     -3.759405   1.000000   1.000000
   19       -3.574117     -3.573571   1.000000   1.000000
   20       -3.349905     -3.349436   1.000000   1.000000
   21       -3.201766     -3.201685   1.000000   1.000000
   22       -1.805401     -1.805259   1.000000   1.000000
   23       -1.660807     -1.660559   1.000000   1.000000
   24       -1.077095     -1.076943   1.000000   1.000000
   25       -0.251562     -0.250957   1.000000   1.000000
   26        1.395716      1.396619   0.000000   0.000000
   27        1.564767      1.564918   0.000000   0.000000
   28        1.629210      1.629497   0.000000   0.000000
   29        1.903630      1.903642   0.000000   0.000000
   30        6.733897      6.734051   0.000000   0.000000
   31        6.946241      6.946649   0.000000   0.000000
   32        8.187608      8.187771   0.000000   0.000000
   33        8.487369      8.487107   0.000000   0.000000
   34        8.867020      8.866833   0.000000   0.000000
 
  0.1250000E+00  0.5217552E-18 -0.2625569E-14  0.5102041E-02
    1      -44.386050    -44.385756   1.000000   1.000000
    2      -25.241176    -25.241438   1.000000   1.000000
    3      -24.168651    -24.168490   1.000000   1.000000
    4      -23.890073    -23.889852   1.000000   1.000000
    5      -23.321652    -23.321125   1.000000   1.000000
    6      -14.907425    -14.907365   1.000000   1.000000
    7      -14.036942    -14.036518   1.000000   1.000000
    8      -13.810032    -13.809595   1.000000   1.000000
    9      -13.026819    -13.026750   1.000000   1.000000
   10       -7.958681     -7.958675   1.000000   1.000000
   11       -7.559822     -7.559757   1.000000   1.000000
   12       -7.422055     -7.421966   1.000000   1.000000
   13       -6.949848     -6.949663   1.000000   1.000000
   14       -6.380303     -6.380042   1.000000   1.000000
   15       -6.202232     -6.202187   1.000000   1.000000
   16       -5.848477     -5.848310   1.000000   1.000000
   17       -5.773810     -5.773474   1.000000   1.000000
   18       -3.758316     -3.758059   1.000000   1.000000
   19       -3.570831     -3.570288   1.000000   1.000000
   20       -3.349249     -3.348784   1.000000   1.000000
   21       -3.199094     -3.199008   1.000000   1.000000
   22       -1.802082     -1.801937   1.000000   1.000000
   23       -1.635571     -1.635327   1.000000   1.000000
   24       -1.082910     -1.082758   1.000000   1.000000
   25       -0.280747     -0.280144   1.000000   1.000000
   26        1.391495      1.392406   0.000000   0.000000
   27        1.560417      1.560571   0.000000   0.000000
   28        1.629847      1.630129   0.000000   0.000000
   29        1.899220      1.899224   0.000000   0.000000
   30        6.934245      6.934444   0.000000   0.000000
   31        7.032446      7.032911   0.000000   0.000000
   32        7.369332      7.369310   0.000000   0.000000
   33        8.518081      8.517925   0.000000   0.000000
   34        9.533282      9.533367   0.000000   0.000000
 
  0.2500000E+00  0.1043510E-17 -0.5251138E-14  0.5102041E-02
    1      -44.386008    -44.385713   1.000000   1.000000
    2      -25.235028    -25.235294   1.000000   1.000000
    3      -24.173025    -24.172862   1.000000   1.000000
    4      -23.892389    -23.892165   1.000000   1.000000
    5      -23.323213    -23.322688   1.000000   1.000000
    6      -15.014462    -15.014381   1.000000   1.000000
    7      -13.964998    -13.964589   1.000000   1.000000
    8      -13.767990    -13.767553   1.000000   1.000000
    9      -13.021116    -13.021050   1.000000   1.000000
   10       -7.919482     -7.919466   1.000000   1.000000
   11       -7.590300     -7.590226   1.000000   1.000000
   12       -7.206595     -7.206534   1.000000   1.000000
   13       -6.936440     -6.936248   1.000000   1.000000
   14       -6.501660     -6.501453   1.000000   1.000000
   15       -6.340969     -6.340875   1.000000   1.000000
   16       -5.842549     -5.842395   1.000000   1.000000
   17       -5.771214     -5.770858   1.000000   1.000000
   18       -3.754707     -3.754442   1.000000   1.000000
   19       -3.562993     -3.562461   1.000000   1.000000
   20       -3.347633     -3.347177   1.000000   1.000000
   21       -3.192591     -3.192494   1.000000   1.000000
   22       -1.788696     -1.788542   1.000000   1.000000
   23       -1.562982     -1.562751   1.000000   1.000000
   24       -1.094107     -1.093956   1.000000   1.000000
   25       -0.349413     -0.348813   1.000000   1.000000
   26        1.382201      1.383131   0.000000   0.000000
   27        1.551332      1.551476   0.000000   0.000000
   28        1.630236      1.630527   0.000000   0.000000
   29        1.889313      1.889296   0.000000   0.000000
   30        6.168967      6.169181   0.000000   0.000000
   31        7.386995      7.387294   0.000000   0.000000
   32        7.483381      7.483515   0.000000   0.000000
   33        8.701397      8.701816   0.000000   0.000000
   34        9.951781      9.954144   0.000000   0.000000
 
  0.3750000E+00  0.2457838E-16  0.6711624E-14  0.5102041E-02
    1      -44.385962    -44.385667   1.000000   1.000000
    2      -25.228806    -25.229075   1.000000   1.000000
    3      -24.177390    -24.177225   1.000000   1.000000
    4      -23.894639    -23.894413   1.000000   1.000000
    5      -23.324739    -23.324216   1.000000   1.000000
    6      -15.116896    -15.116801   1.000000   1.000000
    7      -13.889203    -13.888806   1.000000   1.000000
    8      -13.721816    -13.721370   1.000000   1.000000
    9      -13.021976    -13.021917   1.000000   1.000000
   10       -7.901881     -7.901860   1.000000   1.000000
   11       -7.615092     -7.615018   1.000000   1.000000
   12       -7.053173     -7.053081   1.000000   1.000000
   13       -6.820915     -6.820765   1.000000   1.000000
   14       -6.637966     -6.637812   1.000000   1.000000
   15       -6.449727     -6.449578   1.000000   1.000000
   16       -5.872877     -5.872791   1.000000   1.000000
   17       -5.772229     -5.771807   1.000000   1.000000
   18       -3.750694     -3.750421   1.000000   1.000000
   19       -3.555284     -3.554764   1.000000   1.000000
   20       -3.345960     -3.345511   1.000000   1.000000
   21       -3.186061     -3.185952   1.000000   1.000000
   22       -1.769078     -1.768912   1.000000   1.000000
   23       -1.476168     -1.475957   1.000000   1.000000
   24       -1.101488     -1.101339   1.000000   1.000000
   25       -0.415420     -0.414818   1.000000   1.000000
   26        1.374480      1.375431   0.000000   0.000000
   27        1.543121      1.543241   0.000000   0.000000
   28        1.629568      1.629882   0.000000   0.000000
   29        1.880147      1.880109   0.000000   0.000000
   30        5.342770      5.342956   0.000000   0.000000
   31        7.808719      7.809080   0.000000   0.000000
   32        7.976948      7.977099   0.000000   0.000000
   33        8.734796      8.734540   0.000000   0.000000
   34       10.040583     10.037794   0.000000   0.000000
 
  0.5000000E+00  0.3269190E-16  0.4070083E-14  0.2551020E-02
    1      -44.385944    -44.385649   1.000000   1.000000
    2      -25.226275    -25.226545   1.000000   1.000000
    3      -24.179184    -24.179017   1.000000   1.000000
    4      -23.895458    -23.895232   1.000000   1.000000
    5      -23.325466    -23.324943   1.000000   1.000000
    6      -15.158131    -15.158031   1.000000   1.000000
    7      -13.856567    -13.856176   1.000000   1.000000
    8      -13.701005    -13.700553   1.000000   1.000000
    9      -13.024700    -13.024645   1.000000   1.000000
   10       -7.896298     -7.896275   1.000000   1.000000
   11       -7.622047     -7.621975   1.000000   1.000000
   12       -7.033733     -7.033620   1.000000   1.000000
   13       -6.748340     -6.748135   1.000000   1.000000
   14       -6.671992     -6.671958   1.000000   1.000000
   15       -6.490056     -6.489860   1.000000   1.000000
   16       -5.894638     -5.894578   1.000000   1.000000
   17       -5.771756     -5.771312   1.000000   1.000000
   18       -3.748965     -3.748689   1.000000   1.000000
   19       -3.552120     -3.551605   1.000000   1.000000
   20       -3.345249     -3.344803   1.000000   1.000000
   21       -3.183341     -3.183227   1.000000   1.000000
   22       -1.759447     -1.759275   1.000000   1.000000
   23       -1.436671     -1.436472   1.000000   1.000000
   24       -1.103583     -1.103435   1.000000   1.000000
   25       -0.441885     -0.441279   1.000000   1.000000
   26        1.371822      1.372783   0.000000   0.000000
   27        1.539847      1.539953   0.000000   0.000000
   28        1.629073      1.629401   0.000000   0.000000
   29        1.876636      1.876590   0.000000   0.000000
   30        5.036424      5.036607   0.000000   0.000000
   31        8.064023      8.064491   0.000000   0.000000
   32        8.191478      8.191688   0.000000   0.000000
   33        8.609284      8.608984   0.000000   0.000000
   34       10.071623     10.084372   0.000000   0.000000
 
 -0.1370299E-17  0.1428571E+00  0.4652763E-14  0.5102041E-02
    1      -44.386056    -44.385762   1.000000   1.000000
    2      -25.225698    -25.225971   1.000000   1.000000
    3      -24.164116    -24.163962   1.000000   1.000000
    4      -23.905764    -23.905521   1.000000   1.000000
    5      -23.334485    -23.333963   1.000000   1.000000
    6      -14.839653    -14.839619   1.000000   1.000000
    7      -14.057409    -14.056980   1.000000   1.000000
    8      -13.853356    -13.852885   1.000000   1.000000
    9      -13.047077    -13.047024   1.000000   1.000000
   10       -7.943492     -7.943497   1.000000   1.000000
   11       -7.509837     -7.509777   1.000000   1.000000
   12       -7.429808     -7.429723   1.000000   1.000000
   13       -6.852875     -6.852693   1.000000   1.000000
   14       -6.368004     -6.367684   1.000000   1.000000
   15       -6.137179     -6.137189   1.000000   1.000000
   16       -5.860062     -5.859879   1.000000   1.000000
   17       -5.822771     -5.822447   1.000000   1.000000
   18       -3.802744     -3.802351   1.000000   1.000000
   19       -3.591258     -3.590856   1.000000   1.000000
   20       -3.475948     -3.475518   1.000000   1.000000
   21       -3.284184     -3.284043   1.000000   1.000000
   22       -1.737182     -1.737027   1.000000   1.000000
   23       -1.590208     -1.589999   1.000000   1.000000
   24       -0.984338     -0.984178   1.000000   1.000000
   25       -0.313979     -0.313378   1.000000   1.000000
   26        1.353254      1.354152   0.000000   0.000000
   27        1.485924      1.486404   0.000000   0.000000
   28        1.603662      1.603601   0.000000   0.000000
   29        1.841634      1.841691   0.000000   0.000000
   30        6.769646      6.769817   0.000000   0.000000
   31        6.930421      6.930818   0.000000   0.000000
   32        8.027875      8.028020   0.000000   0.000000
   33        8.432931      8.432695   0.000000   0.000000
   34        9.168660      9.169117   0.000000   0.000000
 
  0.1250000E+00  0.1428571E+00  0.2032690E-14  0.5102041E-02
    1      -44.386053    -44.385758   1.000000   1.000000
    2      -25.224787    -25.225060   1.000000   1.000000
    3      -24.165081    -24.164925   1.000000   1.000000
    4      -23.904887    -23.904645   1.000000   1.000000
    5      -23.335658    -23.335136   1.000000   1.000000
    6      -14.853146    -14.853108   1.000000   1.000000
    7      -14.040512    -14.040120   1.000000   1.000000
    8      -13.869020    -13.868522   1.000000   1.000000
    9      -13.036169    -13.036109   1.000000   1.000000
   10       -7.928329     -7.928335   1.000000   1.000000
   11       -7.506140     -7.506077   1.000000   1.000000
   12       -7.409789     -7.409711   1.000000   1.000000
   13       -6.885757     -6.885568   1.000000   1.000000
   14       -6.355285     -6.354965   1.000000   1.000000
   15       -6.139974     -6.139973   1.000000   1.000000
   16       -5.878462     -5.878275   1.000000   1.000000
   17       -5.814087     -5.813781   1.000000   1.000000
   18       -3.795673     -3.795278   1.000000   1.000000
   19       -3.593948     -3.593562   1.000000   1.000000
   20       -3.477925     -3.477482   1.000000   1.000000
   21       -3.283337     -3.283194   1.000000   1.000000
   22       -1.726020     -1.725863   1.000000   1.000000
   23       -1.580522     -1.580304   1.000000   1.000000
   24       -0.992200     -0.992050   1.000000   1.000000
   25       -0.319456     -0.318850   1.000000   1.000000
   26        1.349001      1.349880   0.000000   0.000000
   27        1.481192      1.481676   0.000000   0.000000
   28        1.608432      1.608378   0.000000   0.000000
   29        1.838634      1.838686   0.000000   0.000000
   30        6.739321      6.739465   0.000000   0.000000
   31        6.981740      6.982156   0.000000   0.000000
   32        7.791980      7.792096   0.000000   0.000000
   33        8.504294      8.504115   0.000000   0.000000
   34        9.345626      9.345572   0.000000   0.000000
 
  0.2500000E+00  0.1428571E+00 -0.5917793E-15  0.5102041E-02
    1      -44.385994    -44.385700   1.000000   1.000000
    2      -25.219662    -25.219938   1.000000   1.000000
    3      -24.168617    -24.168458   1.000000   1.000000
    4      -23.906082    -23.905839   1.000000   1.000000
    5      -23.337486    -23.336966   1.000000   1.000000
    6      -14.941042    -14.940982   1.000000   1.000000
    7      -13.983014    -13.982677   1.000000   1.000000
    8      -13.843237    -13.842704   1.000000   1.000000
    9      -13.025013    -13.024952   1.000000   1.000000
   10       -7.870407     -7.870408   1.000000   1.000000
   11       -7.530916     -7.530859   1.000000   1.000000
   12       -7.247337     -7.247270   1.000000   1.000000
   13       -6.915128     -6.914922   1.000000   1.000000
   14       -6.432186     -6.431933   1.000000   1.000000
   15       -6.243542     -6.243476   1.000000   1.000000
   16       -5.869134     -5.868914   1.000000   1.000000
   17       -5.814199     -5.813931   1.000000   1.000000
   18       -3.788269     -3.787866   1.000000   1.000000
   19       -3.595208     -3.594850   1.000000   1.000000
   20       -3.473705     -3.473248   1.000000   1.000000
   21       -3.277751     -3.277603   1.000000   1.000000
   22       -1.704406     -1.704243   1.000000   1.000000
   23       -1.531172     -1.530957   1.000000   1.000000
   24       -1.003418     -1.003275   1.000000   1.000000
   25       -0.373327     -0.372721   1.000000   1.000000
   26        1.339389      1.340256   0.000000   0.000000
   27        1.474042      1.474550   0.000000   0.000000
   28        1.609005      1.608944   0.000000   0.000000
   29        1.830303      1.830341   0.000000   0.000000
   30        6.630210      6.630444   0.000000   0.000000
   31        6.980680      6.980836   0.000000   0.000000
   32        7.395546      7.395819   0.000000   0.000000
   33        8.668601      8.668526   0.000000   0.000000
   34        9.986605      9.993395   0.000000   0.000000
 
  0.3750000E+00  0.1428571E+00 -0.3205085E-14  0.5102041E-02
    1      -44.385949    -44.385654   1.000000   1.000000
    2      -25.213404    -25.213683   1.000000   1.000000
    3      -24.172732    -24.172571   1.000000   1.000000
    4      -23.908651    -23.908406   1.000000   1.000000
    5      -23.339001    -23.338483   1.000000   1.000000
    6      -15.048484    -15.048404   1.000000   1.000000
    7      -13.914254    -13.913951   1.000000   1.000000
    8      -13.788376    -13.787818   1.000000   1.000000
    9      -13.025383    -13.025330   1.000000   1.000000
   10       -7.838729     -7.838722   1.000000   1.000000
   11       -7.564872     -7.564819   1.000000   1.000000
   12       -7.052898     -7.052828   1.000000   1.000000
   13       -6.854759     -6.854559   1.000000   1.000000
   14       -6.561015     -6.560814   1.000000   1.000000
   15       -6.360037     -6.359938   1.000000   1.000000
   16       -5.874096     -5.873939   1.000000   1.000000
   17       -5.831554     -5.831208   1.000000   1.000000
   18       -3.784755     -3.784342   1.000000   1.000000
   19       -3.593921     -3.593588   1.000000   1.000000
   20       -3.465871     -3.465406   1.000000   1.000000
   21       -3.270751     -3.270595   1.000000   1.000000
   22       -1.681925     -1.681751   1.000000   1.000000
   23       -1.454778     -1.454583   1.000000   1.000000
   24       -1.006517     -1.006378   1.000000   1.000000
   25       -0.442789     -0.442178   1.000000   1.000000
   26        1.332463      1.333336   0.000000   0.000000
   27        1.466782      1.467309   0.000000   0.000000
   28        1.604903      1.604833   0.000000   0.000000
   29        1.820279      1.820301   0.000000   0.000000
   30        5.678294      5.678480   0.000000   0.000000
   31        7.419258      7.419454   0.000000   0.000000
   32        7.867070      7.867370   0.000000   0.000000
   33        8.752895      8.752642   0.000000   0.000000
   34       10.191363     10.177315   0.000000   0.000000
 
  0.5000000E+00  0.1428571E+00 -0.5813307E-14  0.5102041E-02
    1      -44.385947    -44.385653   1.000000   1.000000
    2      -25.209787    -25.210068   1.000000   1.000000
    3      -24.175007    -24.174845   1.000000   1.000000
    4      -23.911187    -23.910940   1.000000   1.000000
    5      -23.339286    -23.338770   1.000000   1.000000
    6      -15.113658    -15.113567   1.000000   1.000000
    7      -13.870562    -13.870249   1.000000   1.000000
    8      -13.742439    -13.741886   1.000000   1.000000
    9      -13.035047    -13.035006   1.000000   1.000000
   10       -7.833278     -7.833267   1.000000   1.000000
   11       -7.589119     -7.589066   1.000000   1.000000
   12       -6.990615     -6.990511   1.000000   1.000000
   13       -6.735978     -6.735777   1.000000   1.000000
   14       -6.629861     -6.629732   1.000000   1.000000
   15       -6.446028     -6.445911   1.000000   1.000000
   16       -5.904619     -5.904453   1.000000   1.000000
   17       -5.820089     -5.819741   1.000000   1.000000
   18       -3.786869     -3.786449   1.000000   1.000000
   19       -3.590916     -3.590589   1.000000   1.000000
   20       -3.459377     -3.458916   1.000000   1.000000
   21       -3.266714     -3.266554   1.000000   1.000000
   22       -1.673525     -1.673347   1.000000   1.000000
   23       -1.400863     -1.400691   1.000000   1.000000
   24       -1.000499     -1.000356   1.000000   1.000000
   25       -0.488474     -0.487855   1.000000   1.000000
   26        1.334307      1.335212   0.000000   0.000000
   27        1.460291      1.460812   0.000000   0.000000
   28        1.598127      1.598045   0.000000   0.000000
   29        1.812286      1.812301   0.000000   0.000000
   30        5.162403      5.162584   0.000000   0.000000
   31        7.938507      7.938753   0.000000   0.000000
   32        8.089962      8.090325   0.000000   0.000000
   33        8.633732      8.633861   0.000000   0.000000
   34       10.244302     10.251631   0.000000   0.000000
 
 -0.3750000E+00  0.1428571E+00  0.2126536E-14  0.5102041E-02
    1      -44.385960    -44.385666   1.000000   1.000000
    2      -25.210724    -25.211005   1.000000   1.000000
    3      -24.174028    -24.173866   1.000000   1.000000
    4      -23.912071    -23.911823   1.000000   1.000000
    5      -23.338081    -23.337564   1.000000   1.000000
    6      -15.101670    -15.101581   1.000000   1.000000
    7      -13.886022    -13.885659   1.000000   1.000000
    8      -13.731387    -13.730879   1.000000   1.000000
    9      -13.042308    -13.042272   1.000000   1.000000
   10       -7.846179     -7.846167   1.000000   1.000000
   11       -7.596780     -7.596721   1.000000   1.000000
   12       -6.960375     -6.960292   1.000000   1.000000
   13       -6.746516     -6.746324   1.000000   1.000000
   14       -6.639673     -6.639514   1.000000   1.000000
   15       -6.461141     -6.461039   1.000000   1.000000
   16       -5.900757     -5.900517   1.000000   1.000000
   17       -5.802277     -5.801995   1.000000   1.000000
   18       -3.793371     -3.792954   1.000000   1.000000
   19       -3.588244     -3.587902   1.000000   1.000000
   20       -3.457953     -3.457504   1.000000   1.000000
   21       -3.267972     -3.267814   1.000000   1.000000
   22       -1.686963     -1.686793   1.000000   1.000000
   23       -1.413820     -1.413650   1.000000   1.000000
   24       -0.993451     -0.993297   1.000000   1.000000
   25       -0.485319     -0.484704   1.000000   1.000000
   26        1.341541      1.342485   0.000000   0.000000
   27        1.460345      1.460844   0.000000   0.000000
   28        1.593047      1.592947   0.000000   0.000000
   29        1.812601      1.812621   0.000000   0.000000
   30        5.232749      5.232928   0.000000   0.000000
   31        7.815688      7.816060   0.000000   0.000000
   32        8.213425      8.213649   0.000000   0.000000
   33        8.677978      8.678577   0.000000   0.000000
   34       10.288598     10.248100   0.000000   0.000000
 
 -0.2500000E+00  0.1428571E+00 -0.4691829E-15  0.5102041E-02
    1      -44.385997    -44.385702   1.000000   1.000000
    2      -25.215840    -25.216118   1.000000   1.000000
    3      -24.170521    -24.170362   1.000000   1.000000
    4      -23.910907    -23.910661   1.000000   1.000000
    5      -23.336200    -23.335681   1.000000   1.000000
    6      -15.018643    -15.018567   1.000000   1.000000
    7      -13.952746    -13.952339   1.000000   1.000000
    8      -13.758098    -13.757628   1.000000   1.000000
    9      -13.045959    -13.045920   1.000000   1.000000
   10       -7.866910     -7.866900   1.000000   1.000000
   11       -7.580737     -7.580673   1.000000   1.000000
   12       -7.065142     -7.065093   1.000000   1.000000
   13       -6.817615     -6.817418   1.000000   1.000000
   14       -6.568758     -6.568522   1.000000   1.000000
   15       -6.389920     -6.389867   1.000000   1.000000
   16       -5.868643     -5.868299   1.000000   1.000000
   17       -5.790818     -5.790633   1.000000   1.000000
   18       -3.800902     -3.800494   1.000000   1.000000
   19       -3.587388     -3.587017   1.000000   1.000000
   20       -3.462045     -3.461609   1.000000   1.000000
   21       -3.273486     -3.273334   1.000000   1.000000
   22       -1.712688     -1.712529   1.000000   1.000000
   23       -1.484834     -1.484649   1.000000   1.000000
   24       -0.988779     -0.988613   1.000000   1.000000
   25       -0.433403     -0.432801   1.000000   1.000000
   26        1.347991      1.348941   0.000000   0.000000
   27        1.470345      1.470837   0.000000   0.000000
   28        1.592533      1.592426   0.000000   0.000000
   29        1.822867      1.822902   0.000000   0.000000
   30        5.860442      5.860636   0.000000   0.000000
   31        7.373873      7.374181   0.000000   0.000000
   32        7.928110      7.928314   0.000000   0.000000
   33        8.706403      8.706196   0.000000   0.000000
   34       10.163913     10.195034   0.000000   0.000000
 
 -0.1250000E+00  0.1428571E+00 -0.3105160E-14  0.5102041E-02
    1      -44.386038    -44.385744   1.000000   1.000000
    2      -25.221987    -25.222262   1.000000   1.000000
    3      -24.166369    -24.166213   1.000000   1.000000
    4      -23.908269    -23.908025   1.000000   1.000000
    5      -23.334631    -23.334110   1.000000   1.000000
    6      -14.909671    -14.909618   1.000000   1.000000
    7      -14.023301    -14.022871   1.000000   1.000000
    8      -13.808097    -13.807638   1.000000   1.000000
    9      -13.049250    -13.049205   1.000000   1.000000
   10       -7.899767     -7.899767   1.000000   1.000000
   11       -7.542913     -7.542851   1.000000   1.000000
   12       -7.301743     -7.301667   1.000000   1.000000
   13       -6.837184     -6.836998   1.000000   1.000000
   14       -6.451397     -6.451124   1.000000   1.000000
   15       -6.254539     -6.254512   1.000000   1.000000
   16       -5.843288     -5.842915   1.000000   1.000000
   17       -5.804754     -5.804612   1.000000   1.000000
   18       -3.804978     -3.804580   1.000000   1.000000
   19       -3.588652     -3.588257   1.000000   1.000000
   20       -3.469330     -3.468903   1.000000   1.000000
   21       -3.280079     -3.279934   1.000000   1.000000
   22       -1.732887     -1.732733   1.000000   1.000000
   23       -1.557865     -1.557665   1.000000   1.000000
   24       -0.984946     -0.984778   1.000000   1.000000
   25       -0.361661     -0.361065   1.000000   1.000000
   26        1.352027      1.352952   0.000000   0.000000
   27        1.482113      1.482603   0.000000   0.000000
   28        1.596971      1.596882   0.000000   0.000000
   29        1.835545      1.835595   0.000000   0.000000
   30        6.810851      6.811229   0.000000   0.000000
   31        7.014631      7.014791   0.000000   0.000000
   32        7.428975      7.429100   0.000000   0.000000
   33        8.522606      8.522311   0.000000   0.000000
   34        9.869282      9.868808   0.000000   0.000000
 
 -0.4557617E-17  0.2857143E+00 -0.5296276E-14  0.5102041E-02
    1      -44.386052    -44.385758   1.000000   1.000000
    2      -25.182631    -25.182933   1.000000   1.000000
    3      -24.163806    -24.163656   1.000000   1.000000
    4      -23.939310    -23.939020   1.000000   1.000000
    5      -23.365531    -23.365023   1.000000   1.000000
    6      -14.784645    -14.784654   1.000000   1.000000
    7      -14.045860    -14.045454   1.000000   1.000000
    8      -13.911401    -13.910826   1.000000   1.000000
    9      -13.084987    -13.084974   1.000000   1.000000
   10       -7.834396     -7.834419   1.000000   1.000000
   11       -7.445873     -7.445836   1.000000   1.000000
   12       -7.213710     -7.213653   1.000000   1.000000
   13       -6.664527     -6.664299   1.000000   1.000000
   14       -6.455365     -6.455014   1.000000   1.000000
   15       -6.173991     -6.174017   1.000000   1.000000
   16       -5.889737     -5.889587   1.000000   1.000000
   17       -5.785313     -5.784996   1.000000   1.000000
   18       -4.070854     -4.070244   1.000000   1.000000
   19       -3.843621     -3.843366   1.000000   1.000000
   20       -3.539397     -3.539258   1.000000   1.000000
   21       -3.385514     -3.385107   1.000000   1.000000
   22       -1.637865     -1.637695   1.000000   1.000000
   23       -1.302573     -1.302466   1.000000   1.000000
   24       -0.831760     -0.831504   1.000000   1.000000
   25       -0.390912     -0.390380   1.000000   1.000000
   26        1.035837      1.036524  -0.047013  -0.047409
   27        1.368324      1.368928   0.000000   0.000000
   28        1.590528      1.590528   0.000000   0.000000
   29        1.738265      1.738406   0.000000   0.000000
   30        6.821533      6.821863   0.000000   0.000000
   31        6.930269      6.930517   0.000000   0.000000
   32        7.776934      7.777055   0.000000   0.000000
   33        8.392035      8.391792   0.000000   0.000000
   34        9.717970      9.718386   0.000000   0.000000
 
  0.1250000E+00  0.2857143E+00  0.6661951E-14  0.5102041E-02
    1      -44.386049    -44.385755   1.000000   1.000000
    2      -25.182784    -25.183087   1.000000   1.000000
    3      -24.163660    -24.163510   1.000000   1.000000
    4      -23.937804    -23.937515   1.000000   1.000000
    5      -23.367084    -23.366575   1.000000   1.000000
    6      -14.775041    -14.775055   1.000000   1.000000
    7      -14.059322    -14.058965   1.000000   1.000000
    8      -13.924582    -13.923963   1.000000   1.000000
    9      -13.070872    -13.070847   1.000000   1.000000
   10       -7.848261     -7.848283   1.000000   1.000000
   11       -7.438977     -7.438929   1.000000   1.000000
   12       -7.209730     -7.209697   1.000000   1.000000
   13       -6.722292     -6.722076   1.000000   1.000000
   14       -6.402013     -6.401572   1.000000   1.000000
   15       -6.124857     -6.124930   1.000000   1.000000
   16       -5.896095     -5.896077   1.000000   1.000000
   17       -5.806670     -5.806240   1.000000   1.000000
   18       -4.078268     -4.077662   1.000000   1.000000
   19       -3.835091     -3.834839   1.000000   1.000000
   20       -3.538143     -3.537996   1.000000   1.000000
   21       -3.388910     -3.388502   1.000000   1.000000