 running on   12 total cores
 distrk:  each k-point on   12 cores,    1 groups
 distr:  one band on    6 cores,    2 groups
 using from now: INCAR     
 vasp.6.1.2 22Jul20 (build Mar 20 2021 11:25:07) complex                        
  
 POSCAR found type information on POSCAR LiO 
 POSCAR found :  2 types and       9 ions
 scaLAPACK will be used
 LDA part: xc-table for Pade appr. of Perdew
 generate k-points for:    8    7    7
 POSCAR, INCAR and KPOINTS ok, starting setup
 FFT: planning ...
 WAVECAR not read
 entering main loop
       N       E                     dE             d eps       ncg     rms          rms(c)
DAV:   1     0.359623444060E+03    0.35962E+03   -0.28045E+04 26800   0.147E+03
DAV:   2    -0.174658082522E+02   -0.37709E+03   -0.36325E+03 34992   0.348E+02
DAV:   3    -0.429801168687E+02   -0.25514E+02   -0.25191E+02 39670   0.911E+01
DAV:   4    -0.438858992910E+02   -0.90578E+00   -0.90186E+00 43928   0.127E+01
DAV:   5    -0.439577972018E+02   -0.71898E-01   -0.71893E-01 35482   0.175E+00    0.145E+01
RMM:   6    -0.443125537054E+02   -0.35476E+00   -0.30202E+00 30679   0.890E+00    0.105E+01
RMM:   7    -0.438918487160E+02    0.42070E+00   -0.11156E+00 29701   0.572E+00    0.592E+00
RMM:   8    -0.437287238854E+02    0.16312E+00   -0.49097E-01 30581   0.396E+00    0.435E+00
RMM:   9    -0.436112889836E+02    0.11743E+00   -0.19310E-01 31641   0.247E+00    0.248E+00
RMM:  10    -0.436043195490E+02    0.69694E-02   -0.68300E-02 32574   0.149E+00    0.118E+00
RMM:  11    -0.435988514621E+02    0.54681E-02   -0.16489E-02 35469   0.750E-01    0.635E-01
RMM:  12    -0.435985013448E+02    0.35012E-03   -0.65836E-03 36797   0.494E-01    0.344E-01
RMM:  13    -0.435980608365E+02    0.44051E-03   -0.30383E-03 38855   0.336E-01    0.997E-02
WARNING in EDDRMM: call to ZHEGV failed, returncode =   6  3      6
RMM:  14    -0.435983685147E+02   -0.30768E-03   -0.11924E-03 46080   0.179E-01    0.426E-02
WARNING in EDDRMM: call to ZHEGV failed, returncode =   8  4     16
WARNING in EDDRMM: call to ZHEGV failed, returncode =   8  4     14
RMM:  15    -0.435984920933E+02   -0.12358E-03   -0.54777E-04 46526   0.112E-01    0.220E-02
WARNING in EDDRMM: call to ZHEGV failed, returncode =   6  3      9
RMM:  16    -0.435985281758E+02   -0.36083E-04   -0.27143E-04 44383   0.736E-02    0.120E-02
WARNING in EDDRMM: call to ZHEGV failed, returncode =   6  3     11
RMM:  17    -0.435985381895E+02   -0.10014E-04   -0.11475E-04 35898   0.497E-02    0.691E-03
WARNING in EDDRMM: call to ZHEGV failed, returncode =   6  3     12
WARNING in EDDRMM: call to ZHEGV failed, returncode =   8  4      8
RMM:  18    -0.435985440085E+02   -0.58191E-05   -0.49483E-05 32487   0.418E-02
   1 F= -.43598544E+02 E0= -.43598544E+02  d E =0.000000E+00  mag=     0.0006
 -----------------------------------------------------------------------------
|                                                                             |
|           W    W    AA    RRRRR   N    N  II  N    N   GGGG   !!!           |
|           W    W   A  A   R    R  NN   N  II  NN   N  G    G  !!!           |
|           W    W  A    A  R    R  N N  N  II  N N  N  G       !!!           |
|           W WW W  AAAAAA  RRRRR   N  N N  II  N  N N  G  GGG   !            |
|           WW  WW  A    A  R   R   N   NN  II  N   NN  G    G                |
|           W    W  A    A  R    R  N    N  II  N    N   GGGG   !!!           |
|                                                                             |
|     Tetrahedron method does not include variations of the Fermi             |
|     occupations, so forces and stress will be inaccurate. We suggest        |
|     using a different smearing scheme ISMEAR = 1 or 2 for metals in         |
|     relaxations.                                                            |
|                                                                             |
 -----------------------------------------------------------------------------

