    4    4    1    2
  0.1139605E+02  0.3670076E-09  0.3670076E-09  0.3907812E-09  0.5000000E-15
  1.000000000000000E-004
  CAR 
 unknown system                          
     14     70     12
 
  0.0000000E+00  0.0000000E+00  0.0000000E+00  0.1250000E-02
    1      -43.342260    -43.341730   1.000000   1.000000
    2      -43.023776    -43.023233   1.000000   1.000000
    3      -42.893417    -42.893068   1.000000   1.000000
    4      -10.193768    -10.193792   1.000000   1.000000
    5       -0.248875     -0.248911   1.000000   1.000000
    6        1.058561      1.058518   1.000000   1.000000
    7        1.058587      1.058544   1.000000   1.000000
    8        2.240845      2.240962   0.000000   0.000000
    9        8.454623      8.454691   0.000000   0.000000
   10        8.454696      8.454762   0.000000   0.000000
   11        9.358374      9.358359   0.000000   0.000000
   12       13.300275     13.300040   0.000000   0.000000
 
  0.1000000E+00  0.5389279E-17  0.0000000E+00  0.7500000E-02
    1      -43.335168    -43.334638   1.000000   1.000000
    2      -43.030601    -43.030057   1.000000   1.000000
    3      -42.893451    -42.893102   1.000000   1.000000
    4      -10.183422    -10.183448   1.000000   1.000000
    5       -0.184498     -0.184535   1.000000   1.000000
    6        0.666978      0.666968   1.000000   1.000000
    7        0.942384      0.942344   1.000000   1.000000
    8        2.615573      2.615667  -0.000000  -0.000000
    9        8.474598      8.474771   0.000000   0.000000
   10        8.730286      8.730353   0.000000   0.000000
   11        9.246081      9.246072   0.000000   0.000000
   12       13.110437     13.110348   0.000000   0.000000
 
  0.2000000E+00  0.1077856E-16  0.0000000E+00  0.7500000E-02
    1      -43.314914    -43.314383   1.000000   1.000000
    2      -43.050062    -43.049520   1.000000   1.000000
    3      -42.893528    -42.893179   1.000000   1.000000
    4      -10.156191    -10.156221   1.000000   1.000000
    5       -0.007777     -0.007815   1.000000   1.000000
    6        0.025749      0.025767   1.000000   1.000000
    7        0.665999      0.665965   1.000000   1.000000
    8        3.266683      3.266752   0.000000   0.000000
    9        8.295647      8.295799   0.000000   0.000000
   10        8.954887      8.954878   0.000000   0.000000
   11        9.406087      9.406135   0.000000   0.000000
   12       12.844737     12.818220   0.000000   0.000000
 
  0.3000000E+00 -0.4732854E-16  0.0000000E+00  0.7500000E-02
    1      -43.284628    -43.284095   1.000000   1.000000
    2      -43.079289    -43.078748   1.000000   1.000000
    3      -42.893595    -42.893247   1.000000   1.000000
    4      -10.122365    -10.122397   1.000000   1.000000
    5       -0.530016     -0.529977   1.000000   1.000000
    6        0.229777      0.229738   1.000000   1.000000
    7        0.366877      0.366851   1.000000   1.000000
    8        3.990562      3.990650   0.000000   0.000000
    9        7.641926      7.642090   0.000000   0.000000
   10        8.589423      8.589477   0.000000   0.000000
   11       10.076714     10.076763   0.000000   0.000000
   12       13.026397     13.274347   0.000000   0.000000
 
  0.4000000E+00 -0.1418368E-16  0.0000000E+00  0.7500000E-02
    1      -43.251516    -43.250981   1.000000   1.000000
    2      -43.111588    -43.111048   1.000000   1.000000
    3      -42.893700    -42.893352   1.000000   1.000000
    4      -10.094923    -10.094964   1.000000   1.000000
    5       -0.894956     -0.894907   1.000000   1.000000
    6        0.150636      0.150612   1.000000   1.000000
    7        0.441004      0.440959   1.000000   1.000000
    8        4.797459      4.797540   0.000000   0.000000
    9        6.700485      6.700634   0.000000   0.000000
   10        8.277488      8.277461   0.000000   0.000000
   11       10.395981     10.395952   0.000000   0.000000
   12       12.442004     12.440439   0.000000   0.000000
 
  0.5000000E+00  0.1438256E-16  0.0000000E+00  0.3750000E-02
    1      -43.233789    -43.233254   1.000000   1.000000
    2      -43.129076    -43.128537   1.000000   1.000000
    3      -42.893781    -42.893433   1.000000   1.000000
    4      -10.084426    -10.084469   1.000000   1.000000
    5       -1.021442     -1.021388   1.000000   1.000000
    6        0.072988      0.072967   1.000000   1.000000
    7        0.527107      0.527064   1.000000   1.000000
    8        5.605111      5.605225   0.000000   0.000000
    9        5.881281      5.874548   0.000000   0.000000
   10        8.151916      8.151911   0.000000   0.000000
   11       10.461893     10.461883   0.000000   0.000000
   12       12.149435     12.149458   0.000000   0.000000
 
  0.1000000E+00  0.1000000E+00  0.0000000E+00  0.7500000E-02
    1      -43.321466    -43.320934   1.000000   1.000000
    2      -43.043698    -43.043156   1.000000   1.000000
    3      -42.893483    -42.893135   1.000000   1.000000
    4      -10.164564    -10.164594   1.000000   1.000000
    5       -0.063803     -0.063841   1.000000   1.000000
    6        0.207545      0.207557   1.000000   1.000000
    7        0.730579      0.730544   1.000000   1.000000
    8        3.090207      3.090281   0.000000   0.000000
    9        8.446592      8.446679   0.000000   0.000000
   10        9.049767      9.049758   0.000000   0.000000
   11        9.130187      9.130421   0.000000   0.000000
   12       12.903536     12.874421   0.000000   0.000000
 
  0.2000000E+00  0.1000000E+00  0.0000000E+00  0.1500000E-01
    1      -43.295995    -43.295463   1.000000   1.000000
    2      -43.068303    -43.067761   1.000000   1.000000
    3      -42.893591    -42.893242   1.000000   1.000000
    4      -10.134232    -10.134266   1.000000   1.000000
    5       -0.320736     -0.320707   1.000000   1.000000
    6        0.144422      0.144383   1.000000   1.000000
    7        0.415362      0.415339   1.000000   1.000000
    8        3.747670      3.747740   0.000000   0.000000
    9        8.081555      8.081659   0.000000   0.000000
   10        8.750730      8.750725   0.000000   0.000000
   11        9.593246      9.593333   0.000000   0.000000
   12       13.019710     13.046898   0.000000   0.000000
 
  0.3000000E+00  0.1000000E+00  0.0000000E+00  0.1500000E-01
    1      -43.263217    -43.262683   1.000000   1.000000
    2      -43.100128    -43.099588   1.000000   1.000000
    3      -42.893711    -42.893362   1.000000   1.000000
    4      -10.103756    -10.103795   1.000000   1.000000
    5       -0.735908     -0.735867   1.000000   1.000000
    6        0.137210      0.137193   1.000000   1.000000
    7        0.371746      0.371704   1.000000   1.000000
    8        4.505799      4.505872   0.000000   0.000000
    9        7.276893      7.277026   0.000000   0.000000
   10        8.463598      8.463586   0.000000   0.000000
   11        9.877938      9.879463   0.000000   0.000000
   12       12.315489     12.314931   0.000000   0.000000
 
  0.4000000E+00  0.1000000E+00  0.0000000E+00  0.1500000E-01
    1      -43.233868    -43.233333   1.000000   1.000000
    2      -43.128880    -43.128341   1.000000   1.000000
    3      -42.893795    -42.893447   1.000000   1.000000
    4      -10.084916    -10.084959   1.000000   1.000000
    5       -0.959622     -0.959573   1.000000   1.000000
    6       -0.019849     -0.019862   1.000000   1.000000
    7        0.523834      0.523791   1.000000   1.000000
    8        5.361809      5.361882   0.000000   0.000000
    9        6.310122      6.310205   0.000000   0.000000
   10        8.286156      8.286146   0.000000   0.000000
   11        9.969473      9.969848   0.000000   0.000000
   12       11.687873     11.687614   0.000000   0.000000
 
  0.2000000E+00  0.2000000E+00  0.0000000E+00  0.7500000E-02
    1      -43.267329    -43.266795   1.000000   1.000000
    2      -43.096080    -43.095540   1.000000   1.000000
    3      -42.893723    -42.893374   1.000000   1.000000
    4      -10.107249    -10.107287   1.000000   1.000000
    5       -0.630883     -0.630847   1.000000   1.000000
    6        0.073954      0.073945   1.000000   1.000000
    7        0.344868      0.344828   1.000000   1.000000
    8        4.426382      4.426449   0.000000   0.000000
    9        7.701597      7.701686   0.000000   0.000000
   10        8.588578      8.588583   0.000000   0.000000
   11        9.357897      9.358945   0.000000   0.000000
   12       12.088857     12.089720   0.000000   0.000000
 
  0.3000000E+00  0.2000000E+00  0.0000000E+00  0.1500000E-01
    1      -43.234055    -43.233520   1.000000   1.000000
    2      -43.128525    -43.127986   1.000000   1.000000
    3      -42.893833    -42.893485   1.000000   1.000000
    4      -10.085621    -10.085663   1.000000   1.000000
    5       -0.826215     -0.826173   1.000000   1.000000
    6       -0.201865     -0.201862   1.000000   1.000000
    7        0.518571      0.518528   1.000000   1.000000
    8        5.226651      5.226668   0.000000   0.000000
    9        6.996929      6.997005   0.000000   0.000000
   10        8.559237      8.559191   0.000000   0.000000
   11        9.118575      9.115988   0.000000   0.000000
   12       11.010824     11.010014   0.000000   0.000000
 
  0.4000000E+00  0.2000000E+00  0.0000000E+00  0.7500000E-02
    1      -43.213570    -43.213034   1.000000   1.000000
    2      -43.148751    -43.148212   1.000000   1.000000
    3      -42.893915    -42.893567   1.000000   1.000000
    4      -10.077447    -10.077489   1.000000   1.000000
    5       -0.890335     -0.890292   1.000000   1.000000
    6       -0.306974     -0.306967   1.000000   1.000000
    7        0.588006      0.587964   1.000000   1.000000
    8        6.039441      6.035392   0.000000   0.000000
    9        6.209675      6.209762   0.000000   0.000000
   10        8.591993      8.591983   0.000000   0.000000
   11        9.044007      9.044482   0.000000   0.000000
   12       10.582547     10.582532   0.000000   0.000000
 
  0.3000000E+00  0.3000000E+00  0.0000000E+00  0.7500000E-02
    1      -43.201181    -43.200645   1.000000   1.000000
    2      -43.160969    -43.160430   1.000000   1.000000
    3      -42.893983    -42.893635   1.000000   1.000000
    4      -10.074798    -10.074843   1.000000   1.000000
    5       -0.772010     -0.771974   1.000000   1.000000
    6       -0.512328     -0.512305   1.000000   1.000000
    7        0.611722      0.611680   1.000000   1.000000
    8        6.007278      6.006494   0.000000   0.000000
    9        6.655524      6.655463   0.000000   0.000000
   10        8.459088      8.459448   0.000000   0.000000
   11        8.957682      8.957672   0.000000   0.000000
   12        9.909096      9.909084   0.000000   0.000000
 
  0.0000000E+00  0.0000000E+00  0.1250000E+00  0.2500000E-02
    1      -43.341996    -43.341465   1.000000   1.000000
    2      -43.023814    -43.023271   1.000000   1.000000
    3      -42.893711    -42.893363   1.000000   1.000000
    4      -10.201062    -10.201088   1.000000   1.000000
    5       -0.509784     -0.509797   1.000000   1.000000
    6        1.086237      1.086196   1.000000   1.000000
    7        1.086264      1.086220   1.000000   1.000000
    8        2.684492      2.684593  -0.000000  -0.000000
    9        8.547566      8.547634   0.000000   0.000000
   10        8.547631      8.547705   0.000000   0.000000
   11        9.151286      9.151426   0.000000   0.000000
   12       12.940064     12.940356   0.000000   0.000000
 
  0.1000000E+00  0.5389279E-17  0.1250000E+00  0.1500000E-01
    1      -43.334889    -43.334358   1.000000   1.000000
    2      -43.030576    -43.030033   1.000000   1.000000
    3      -42.893682    -42.893333   1.000000   1.000000
    4      -10.191260    -10.191287   1.000000   1.000000
    5       -0.449255     -0.449267   1.000000   1.000000
    6        0.784340      0.784313   1.000000   1.000000
    7        0.971766      0.971727   1.000000   1.000000
    8        2.957041      2.957123  -0.000000  -0.000000
    9        8.552320      8.552599   0.000000   0.000000
   10        8.819512      8.819577   0.000000   0.000000
   11        9.065929      9.065829   0.000000   0.000000
   12       12.763307     12.760475   0.000000   0.000000
 
  0.2000000E+00  0.1077856E-16  0.1250000E+00  0.1500000E-01
    1      -43.314636    -43.314105   1.000000   1.000000
    2      -43.050049    -43.049507   1.000000   1.000000
    3      -42.893671    -42.893323   1.000000   1.000000
    4      -10.165708    -10.165740   1.000000   1.000000
    5       -0.334087     -0.334088   1.000000   1.000000
    6        0.289316      0.289305   1.000000   1.000000
    7        0.698994      0.698961   1.000000   1.000000
    8        3.470152      3.470222   0.000000   0.000000
    9        8.160793      8.160885   0.000000   0.000000
   10        9.040033      9.040012   0.000000   0.000000
   11        9.473977      9.474020   0.000000   0.000000
   12       12.353003     12.356760   0.000000   0.000000
 
  0.3000000E+00 -0.4732854E-16  0.1250000E+00  0.1500000E-01
    1      -43.284462    -43.283929   1.000000   1.000000
    2      -43.079273    -43.078732   1.000000   1.000000
    3      -42.893671    -42.893322   1.000000   1.000000
    4      -10.134148    -10.134186   1.000000   1.000000
    5       -0.516721     -0.516688   1.000000   1.000000
    6        0.223992      0.223964   1.000000   1.000000
    7        0.403207      0.403179   1.000000   1.000000
    8        4.021472      4.021538   0.000000   0.000000
    9        7.298667      7.298750   0.000000   0.000000
   10        9.037705      9.037536   0.000000   0.000000
   11       10.055725     10.055729   0.000000   0.000000
   12       12.047021     12.048310   0.000000   0.000000
 
  0.4000000E+00 -0.1418368E-16  0.1250000E+00  0.1500000E-01
    1      -43.251434    -43.250899   1.000000   1.000000
    2      -43.111499    -43.110960   1.000000   1.000000
    3      -42.893687    -42.893339   1.000000   1.000000
    4      -10.108548    -10.108591   1.000000   1.000000
    5       -0.816951     -0.816903   1.000000   1.000000
    6        0.189088      0.189065   1.000000   1.000000
    7        0.431974      0.431939   1.000000   1.000000
    8        4.594035      4.594097   0.000000   0.000000
    9        6.349843      6.349939   0.000000   0.000000
   10        9.037102      9.034085   0.000000   0.000000
   11       10.243246     10.243217   0.000000   0.000000
   12       11.608140     11.608192   0.000000   0.000000
 
  0.5000000E+00  0.1438256E-16  0.1250000E+00  0.7500000E-02
    1      -43.233681    -43.233146   1.000000   1.000000
    2      -43.128956    -43.128417   1.000000   1.000000
    3      -42.893704    -42.893355   1.000000   1.000000
    4      -10.098785    -10.098830   1.000000   1.000000
    5       -0.930808     -0.930756   1.000000   1.000000
    6        0.112151      0.112129   1.000000   1.000000
    7        0.532456      0.532420   1.000000   1.000000
    8        5.022881      5.022976   0.000000   0.000000
    9        5.762378      5.762500   0.000000   0.000000
   10        9.083687      9.066543   0.000000   0.000000
   11       10.257566     10.257524   0.000000   0.000000
   12       11.373813     11.373677   0.000000   0.000000
 
  0.1000000E+00  0.1000000E+00  0.1250000E+00  0.1500000E-01
    1      -43.321195    -43.320663   1.000000   1.000000
    2      -43.043713    -43.043170   1.000000   1.000000
    3      -42.893670    -42.893322   1.000000   1.000000
    4      -10.173618    -10.173648   1.000000   1.000000
    5       -0.355923     -0.355931   1.000000   1.000000
    6        0.416857      0.416847   1.000000   1.000000
    7        0.763844      0.763810   1.000000   1.000000
    8        3.330218      3.330289   0.000000   0.000000
    9        8.522435      8.522522   0.000000   0.000000
   10        8.728936      8.728898   0.000000   0.000000
   11        9.382273      9.381962   0.000000   0.000000
   12       12.353028     12.350005   0.000000   0.000000
 
  0.2000000E+00  0.1000000E+00  0.1250000E+00  0.3000000E-01
    1      -43.295763    -43.295231   1.000000   1.000000
    2      -43.068266    -43.067724   1.000000   1.000000
    3      -42.893667    -42.893318   1.000000   1.000000
    4      -10.145156    -10.145190   1.000000   1.000000
    5       -0.386618     -0.386596   1.000000   1.000000
    6        0.193074      0.193050   1.000000   1.000000
    7        0.454897      0.454873   1.000000   1.000000
    8        3.838030      3.838097   0.000000   0.000000
    9        7.899432      7.899510   0.000000   0.000000
   10        8.704164      8.704117   0.000000   0.000000
   11        9.883016      9.882607   0.000000   0.000000
   12       12.010459     12.011820   0.000000   0.000000
 
  0.3000000E+00  0.1000000E+00  0.1250000E+00  0.3000000E-01
    1      -43.263065    -43.262531   1.000000   1.000000
    2      -43.100069    -43.099529   1.000000   1.000000
    3      -42.893700    -42.893352   1.000000   1.000000
    4      -10.116764    -10.116803   1.000000   1.000000
    5       -0.677028     -0.676988   1.000000   1.000000
    6        0.176813      0.176796   1.000000   1.000000
    7        0.364025      0.363992   1.000000   1.000000
    8        4.387591      4.387653   0.000000   0.000000
    9        6.936882      6.936965   0.000000   0.000000
   10        8.821905      8.821491   0.000000   0.000000
   11        9.989811      9.989631   0.000000   0.000000
   12       11.748208     11.749367   0.000000   0.000000
 
  0.4000000E+00  0.1000000E+00  0.1250000E+00  0.3000000E-01
    1      -43.233818    -43.233282   1.000000   1.000000
    2      -43.128763    -43.128224   1.000000   1.000000
    3      -42.893743    -42.893395   1.000000   1.000000
    4      -10.099234    -10.099280   1.000000   1.000000
    5       -0.873217     -0.873169   1.000000   1.000000
    6        0.023532      0.023518   1.000000   1.000000
    7        0.532728      0.532691   1.000000   1.000000
    8        4.944536      4.944593   0.000000   0.000000
    9        6.073717      6.073816   0.000000   0.000000
   10        9.061925      9.056956   0.000000   0.000000
   11        9.727556      9.727235   0.000000   0.000000
   12       11.496477     11.497756   0.000000   0.000000
 
  0.2000000E+00  0.2000000E+00  0.1250000E+00  0.1500000E-01
    1      -43.267122    -43.266588   1.000000   1.000000
    2      -43.096057    -43.095516   1.000000   1.000000
    3      -42.893712    -42.893364   1.000000   1.000000
    4      -10.120045    -10.120085   1.000000   1.000000
    5       -0.587798     -0.587763   1.000000   1.000000
    6        0.122794      0.122785   1.000000   1.000000
    7        0.340340      0.340307   1.000000   1.000000
    8        4.327822      4.327882   0.000000   0.000000
    9        7.511998      7.512074   0.000000   0.000000
   10        8.281052      8.281018   0.000000   0.000000
   11        9.992432      9.989551   0.000000   0.000000
   12       11.585022     11.585404   0.000000   0.000000
 
  0.3000000E+00  0.2000000E+00  0.1250000E+00  0.3000000E-01
    1      -43.233969    -43.233433   1.000000   1.000000
    2      -43.128501    -43.127962   1.000000   1.000000
    3      -42.893781    -42.893433   1.000000   1.000000
    4      -10.099962    -10.100005   1.000000   1.000000
    5       -0.749935     -0.749895   1.000000   1.000000
    6       -0.146231     -0.146228   1.000000   1.000000
    7        0.530720      0.530683   1.000000   1.000000
    8        4.877749      4.877823   0.000000   0.000000
    9        6.657824      6.657904   0.000000   0.000000
   10        8.490130      8.489724   0.000000   0.000000
   11        9.738650      9.737286   0.000000   0.000000
   12       11.106328     11.106592   0.000000   0.000000
 
  0.4000000E+00  0.2000000E+00  0.1250000E+00  0.1500000E-01
    1      -43.213496    -43.212960   1.000000   1.000000
    2      -43.148671    -43.148132   1.000000   1.000000
    3      -42.893807    -42.893459   1.000000   1.000000
    4      -10.092351    -10.092396   1.000000   1.000000
    5       -0.805289     -0.805246   1.000000   1.000000
    6       -0.249309     -0.249302   1.000000   1.000000
    7        0.612908      0.612871   1.000000   1.000000
    8        5.297944      5.298019   0.000000   0.000000
    9        6.079621      6.079707   0.000000   0.000000
   10        8.832879      8.832790   0.000000   0.000000
   11        9.385125      9.376514   0.000000   0.000000
   12       10.923210     10.924119   0.000000   0.000000
 
  0.3000000E+00  0.3000000E+00  0.1250000E+00  0.1500000E-01
    1      -43.201119    -43.200582   1.000000   1.000000
    2      -43.160895    -43.160357   1.000000   1.000000
    3      -42.893847    -42.893499   1.000000   1.000000
    4      -10.089875    -10.089920   1.000000   1.000000
    5       -0.693006     -0.692971   1.000000   1.000000
    6       -0.443141     -0.443120   1.000000   1.000000
    7        0.642212      0.642173   1.000000   1.000000
    8        5.444264      5.444317   0.000000   0.000000
    9        6.155745      6.155796   0.000000   0.000000
   10        8.471096      8.470589   0.000000   0.000000
   11        9.723762      9.721722   0.000000   0.000000
   12       10.333289     10.333077   0.000000   0.000000
 
  0.0000000E+00  0.0000000E+00  0.2500000E+00  0.2500000E-02
    1      -43.341158    -43.340627   1.000000   1.000000
    2      -43.023776    -43.023233   1.000000   1.000000
    3      -42.894236    -42.893888   1.000000   1.000000
    4      -10.218375    -10.218403   1.000000   1.000000
    5       -0.956973     -0.956960   1.000000   1.000000
    6        1.154737      1.154696   1.000000   1.000000
    7        1.154763      1.154719   1.000000   1.000000
    8        3.637103      3.637181   0.000000   0.000000
    9        8.645581      8.645662   0.000000   0.000000
   10        8.797323      8.797393   0.000000   0.000000
   11        8.797390      8.797464   0.000000   0.000000
   12       12.228164     12.228119   0.000000   0.000000
 
  0.1000000E+00  0.5389279E-17  0.2500000E+00  0.1500000E-01
    1      -43.334106    -43.333575   1.000000   1.000000
    2      -43.030549    -43.030006   1.000000   1.000000
    3      -42.894147    -42.893799   1.000000   1.000000
    4      -10.210158    -10.210188   1.000000   1.000000
    5       -0.875297     -0.875285   1.000000   1.000000
    6        0.935596      0.935566   1.000000   1.000000
    7        1.044602      1.044562   1.000000   1.000000
    8        3.749207      3.749275   0.000000   0.000000
    9        8.514842      8.514915   0.000000   0.000000
   10        8.921798      8.921774   0.000000   0.000000
   11        9.063472      9.063533   0.000000   0.000000
   12       11.957236     11.960863   0.000000   0.000000
 
  0.2000000E+00  0.1077856E-16  0.2500000E+00  0.1500000E-01
    1      -43.313992    -43.313460   1.000000   1.000000
    2      -43.049960    -43.049418   1.000000   1.000000
    3      -42.893971    -42.893623   1.000000   1.000000
    4      -10.188629    -10.188663   1.000000   1.000000
    5       -0.660110     -0.660097   1.000000   1.000000
    6        0.492247      0.492238   1.000000   1.000000
    7        0.781083      0.781050   1.000000   1.000000
    8        3.930144      3.930198   0.000000   0.000000
    9        7.979166      7.979246   0.000000   0.000000
   10        9.217022      9.217086   0.000000   0.000000
   11        9.659922      9.659960   0.000000   0.000000
   12       11.283906     11.283105   0.000000   0.000000
 
  0.3000000E+00 -0.4732854E-16  0.2500000E+00  0.1500000E-01
    1      -43.284015    -43.283482   1.000000   1.000000
    2      -43.079178    -43.078636   1.000000   1.000000
    3      -42.893810    -42.893461   1.000000   1.000000
    4      -10.162362    -10.162402   1.000000   1.000000
    5       -0.486278     -0.486251   1.000000   1.000000
    6        0.222804      0.222797   1.000000   1.000000
    7        0.493938      0.493911   1.000000   1.000000
    8        3.995835      3.995881   0.000000   0.000000
    9        7.132811      7.132904   0.000000   0.000000
   10        9.486446      9.486435   0.000000   0.000000
   11        9.933542      9.933524   0.000000   0.000000
   12       11.062391     11.062533   0.000000   0.000000
 
  0.4000000E+00 -0.1418368E-16  0.2500000E+00  0.1500000E-01
    1      -43.251177    -43.250642   1.000000   1.000000
    2      -43.111330    -43.110790   1.000000   1.000000
    3      -42.893652    -42.893304   1.000000   1.000000
    4      -10.141200    -10.141244   1.000000   1.000000
    5       -0.595034     -0.594991   1.000000   1.000000
    6        0.285347      0.285324   1.000000   1.000000
    7        0.396843      0.396825   1.000000   1.000000
    8        3.901870      3.901911   0.000000   0.000000
    9        6.436808      6.436914   0.000000   0.000000
   10        9.811110      9.811069   0.000000   0.000000
   11        9.849575      9.849525   0.000000   0.000000
   12       10.821006     10.821126   0.000000   0.000000
 
  0.5000000E+00  0.1438256E-16  0.2500000E+00  0.7500000E-02
    1      -43.233552    -43.233016   1.000000   1.000000
    2      -43.128653    -43.128113   1.000000   1.000000
    3      -42.893583    -42.893235   1.000000   1.000000
    4      -10.133139    -10.133186   1.000000   1.000000
    5       -0.676036     -0.675988   1.000000   1.000000
    6        0.210268      0.210246   1.000000   1.000000
    7        0.545668      0.545645   1.000000   1.000000
    8        3.810110      3.810151   0.000000   0.000000
    9        6.191690      6.191801   0.000000   0.000000
   10        9.735491      9.735444   0.000000   0.000000
   11       10.292962     10.292874   0.000000   0.000000
   12       10.399459     10.399460   0.000000   0.000000
 
  0.1000000E+00  0.1000000E+00  0.2500000E+00  0.1500000E-01
    1      -43.320532    -43.320000   1.000000   1.000000
    2      -43.043687    -43.043144   1.000000   1.000000
    3      -42.894055    -42.893706   1.000000   1.000000
    4      -10.195334    -10.195367   1.000000   1.000000
    5       -0.725534     -0.725521   1.000000   1.000000
    6        0.622241      0.622225   1.000000   1.000000
    7        0.846690      0.846657   1.000000   1.000000
    8        3.889573      3.889630   0.000000   0.000000
    9        8.374966      8.375029   0.000000   0.000000
   10        8.738883      8.738958   0.000000   0.000000
   11        9.662962      9.662899   0.000000   0.000000
   12       11.214154     11.214118   0.000000   0.000000
 
  0.2000000E+00  0.1000000E+00  0.2500000E+00  0.3000000E-01
    1      -43.295218    -43.294685   1.000000   1.000000
    2      -43.068188    -43.067646   1.000000   1.000000
    3      -42.893852    -42.893504   1.000000   1.000000
    4      -10.171486    -10.171523   1.000000   1.000000
    5       -0.512889     -0.512871   1.000000   1.000000
    6        0.289768      0.289762   1.000000   1.000000
    7        0.552814      0.552790   1.000000   1.000000
    8        4.003959      4.004006   0.000000   0.000000
    9        7.715316      7.715393   0.000000   0.000000
   10        8.627241      8.627116   0.000000   0.000000
   11       10.321050     10.321187   0.000000   0.000000
   12       11.045383     11.045551   0.000000   0.000000
 
  0.3000000E+00  0.1000000E+00  0.2500000E+00  0.3000000E-01
    1      -43.262718    -43.262184   1.000000   1.000000
    2      -43.099953    -43.099412   1.000000   1.000000
    3      -42.893708    -42.893360   1.000000   1.000000
    4      -10.147993    -10.148035   1.000000   1.000000
    5       -0.509105     -0.509069   1.000000   1.000000
    6        0.264181      0.264167   1.000000   1.000000
    7        0.341140      0.341121   1.000000   1.000000
    8        3.998960      3.999000   0.000000   0.000000
    9        6.752690      6.752775   0.000000   0.000000
   10        8.832965      8.832881   0.000000   0.000000
   11       10.486164     10.486114   0.000000   0.000000
   12       11.180110     11.179423   0.000000   0.000000
 
  0.4000000E+00  0.1000000E+00  0.2500000E+00  0.3000000E-01
    1      -43.233627    -43.233092   1.000000   1.000000
    2      -43.128528    -43.127989   1.000000   1.000000
    3      -42.893592    -42.893244   1.000000   1.000000
    4      -10.133538    -10.133584   1.000000   1.000000
    5       -0.629952     -0.629907   1.000000   1.000000
    6        0.135302      0.135288   1.000000   1.000000
    7        0.546095      0.546071   1.000000   1.000000
    8        3.914456      3.914498   0.000000   0.000000
    9        6.169598      6.169690   0.000000   0.000000
   10        9.070427      9.070398   0.000000   0.000000
   11       10.451377     10.451399   0.000000   0.000000
   12       11.057055     11.057166   0.000000   0.000000
 
  0.2000000E+00  0.2000000E+00  0.2500000E+00  0.1500000E-01
    1      -43.266715    -43.266181   1.000000   1.000000
    2      -43.095938    -43.095397   1.000000   1.000000
    3      -42.893704    -42.893356   1.000000   1.000000
    4      -10.150667    -10.150708   1.000000   1.000000
    5       -0.462644     -0.462614   1.000000   1.000000
    6        0.247597      0.247587   1.000000   1.000000
    7        0.309710      0.309695   1.000000   1.000000
    8        4.053227      4.053259   0.000000   0.000000
    9        7.041481      7.041542   0.000000   0.000000
   10        8.278646      8.278701   0.000000   0.000000
   11       10.819659     10.819991   0.000000   0.000000
   12       11.118019     11.118520   0.000000   0.000000
 
  0.3000000E+00  0.2000000E+00  0.2500000E+00  0.3000000E-01
    1      -43.233753    -43.233217   1.000000   1.000000
    2      -43.128374    -43.127835   1.000000   1.000000