 running on    8 total cores
 distrk:  each k-point on    8 cores,    1 groups
 distr:  one band on    1 cores,    8 groups
 using from now: INCAR     
 vasp.6.1.2 22Jul20 (build Mar 20 2021 11:25:07) complex                        
  
 POSCAR found type information on POSCAR LiP O 
 POSCAR found :  3 types and      16 ions
 scaLAPACK will be used
 -----------------------------------------------------------------------------
|                                                                             |
|           W    W    AA    RRRRR   N    N  II  N    N   GGGG   !!!           |
|           W    W   A  A   R    R  NN   N  II  NN   N  G    G  !!!           |
|           W    W  A    A  R    R  N N  N  II  N N  N  G       !!!           |
|           W WW W  AAAAAA  RRRRR   N  N N  II  N  N N  G  GGG   !            |
|           WW  WW  A    A  R   R   N   NN  II  N   NN  G    G                |
|           W    W  A    A  R    R  N    N  II  N    N   GGGG   !!!           |
|                                                                             |
|     The value NCORE = 6 specified in the INCAR file was overwritten,        |
|     because it was not compatible with the 8 processes available:           |
|     NCORE = 1                                                               |
|     was used instead, please check that this makes sense for your           |
|     machine.                                                                |
|                                                                             |
 -----------------------------------------------------------------------------

 -----------------------------------------------------------------------------
|                                                                             |
|           W    W    AA    RRRRR   N    N  II  N    N   GGGG   !!!           |
|           W    W   A  A   R    R  NN   N  II  NN   N  G    G  !!!           |
|           W    W  A    A  R    R  N N  N  II  N N  N  G       !!!           |
|           W WW W  AAAAAA  RRRRR   N  N N  II  N  N N  G  GGG   !            |
|           WW  WW  A    A  R   R   N   NN  II  N   NN  G    G                |
|           W    W  A    A  R    R  N    N  II  N    N   GGGG   !!!           |
|                                                                             |
|     For optimal performance we recommend to set                             |
|       NCORE = 4 - approx SQRT(number of cores).                             |
|     NCORE specifies how many cores store one orbital (NPAR=cpu/NCORE).      |
|     This setting can greatly improve the performance of VASP for DFT.       |
|     The default, NCORE=1 might be grossly inefficient on modern             |
|     multi-core architectures or massively parallel machines. Do your        |
|     own testing!!!!                                                         |
|     Unfortunately you need to use the default for GW and RPA                |
|     calculations (for HF NCORE is supported but not extensively tested      |
|     yet).                                                                   |
|                                                                             |
 -----------------------------------------------------------------------------

 LDA part: xc-table for Pade appr. of Perdew
 generate k-points for:    7    6    5
 POSCAR, INCAR and KPOINTS ok, starting setup
 FFT: planning ...
 WAVECAR not read
 entering main loop
       N       E                     dE             d eps       ncg     rms          rms(c)
DAV:   1     0.601221271727E+03    0.60122E+03   -0.36454E+04 14784   0.142E+03
DAV:   2    -0.454147129186E+02   -0.64664E+03   -0.61114E+03 16968   0.373E+02
DAV:   3    -0.103244421054E+03   -0.57830E+02   -0.57497E+02 20520   0.104E+02
DAV:   4    -0.108629718449E+03   -0.53853E+01   -0.53525E+01 25160   0.263E+01
DAV:   5    -0.109104530204E+03   -0.47481E+00   -0.47465E+00 20800   0.542E+00    0.372E+01
RMM:   6    -0.992769028967E+02    0.98276E+01   -0.38160E+01 16111   0.219E+01    0.148E+01
RMM:   7    -0.100329199398E+03   -0.10523E+01   -0.38436E+00 21250   0.752E+00    0.792E+00
RMM:   8    -0.100531679133E+03   -0.20248E+00   -0.86976E-01 23566   0.390E+00    0.398E+00
RMM:   9    -0.100604980428E+03   -0.73301E-01   -0.31605E-01 23881   0.280E+00    0.778E-01
RMM:  10    -0.100633041396E+03   -0.28061E-01   -0.22067E-01 27443   0.160E+00    0.351E-01
RMM:  11    -0.100646916001E+03   -0.13875E-01   -0.96603E-02 28146   0.981E-01    0.277E-01
RMM:  12    -0.100652889135E+03   -0.59731E-02   -0.38485E-02 28656   0.605E-01    0.166E-01
RMM:  13    -0.100654962350E+03   -0.20732E-02   -0.14603E-02 27851   0.405E-01    0.792E-02
RMM:  14    -0.100655887329E+03   -0.92498E-03   -0.74723E-03 28425   0.280E-01    0.302E-02
RMM:  15    -0.100656244663E+03   -0.35733E-03   -0.32135E-03 27878   0.174E-01    0.269E-02
RMM:  16    -0.100656392172E+03   -0.14751E-03   -0.14057E-03 27493   0.115E-01    0.167E-02
RMM:  17    -0.100656460927E+03   -0.68755E-04   -0.58423E-04 26813   0.792E-02    0.125E-02
RMM:  18    -0.100656490104E+03   -0.29177E-04   -0.28211E-04 26057   0.520E-02    0.124E-02
RMM:  19    -0.100656505348E+03   -0.15244E-04   -0.11153E-04 23702   0.367E-02    0.232E-02
RMM:  20    -0.100656504669E+03    0.67923E-06   -0.48801E-05 22617   0.292E-02
   1 F= -.10065650E+03 E0= -.10065650E+03  d E =0.000000E+00  mag=    -0.0000
