    4    4    1    2
  0.1146133E+02  0.3310363E-09  0.3310363E-09  0.5004986E-09  0.5000000E-15
  1.000000000000000E-004
  CAR 
 unknown system                          
     18    234     14
 
  0.0000000E+00  0.0000000E+00  0.0000000E+00  0.1180638E-02
    1      -43.395037    -43.394766   1.000000   1.000000
    2      -21.732415    -21.732411   1.000000   1.000000
    3      -17.376977    -17.376979   1.000000   1.000000
    4       -6.806402     -6.806402   1.000000   1.000000
    5       -5.176771     -5.176767   1.000000   1.000000
    6       -5.114141     -5.114137   1.000000   1.000000
    7       -3.725476     -3.725480   1.000000   1.000000
    8        0.570024      0.570020   1.000000   1.000000
    9        0.638832      0.638826   1.000000   1.000000
   10        6.190258      6.190256   0.000000   0.000000
   11        6.248378      6.248351   0.000000   0.000000
   12        6.548009      6.548009   0.000000   0.000000
   13       10.013204     10.013164   0.000000   0.000000
   14       11.363787     11.361708   0.000000   0.000000
 
  0.9090909E-01  0.2278221E-17  0.1473303E-16  0.4722550E-02
    1      -43.394594    -43.394323   1.000000   1.000000
    2      -21.716788    -21.716784   1.000000   1.000000
    3      -17.368134    -17.368136   1.000000   1.000000
    4       -6.767728     -6.767729   1.000000   1.000000
    5       -5.271889     -5.271885   1.000000   1.000000
    6       -5.145845     -5.145841   1.000000   1.000000
    7       -3.730263     -3.730266   1.000000   1.000000
    8        0.459567      0.459562   1.000000   1.000000
    9        0.555310      0.555304   1.000000   1.000000
   10        6.080858      6.080858   0.000000   0.000000
   11        6.325201      6.325201   0.000000   0.000000
   12        6.700490      6.700478   0.000000   0.000000
   13       10.216907     10.216872   0.000000   0.000000
   14       11.407378     11.405669   0.000000   0.000000
 
  0.1818182E+00  0.2635434E-16  0.7700929E-17  0.4722550E-02
    1      -43.393478    -43.393207   1.000000   1.000000
    2      -21.674413    -21.674412   1.000000   1.000000
    3      -17.344530    -17.344531   1.000000   1.000000
    4       -6.664519     -6.664519   1.000000   1.000000
    5       -5.534980     -5.534977   1.000000   1.000000
    6       -5.203394     -5.203390   1.000000   1.000000
    7       -3.745611     -3.745614   1.000000   1.000000
    8        0.084111      0.084105   1.000000   1.000000
    9        0.432633      0.432628   1.000000   1.000000
   10        5.833647      5.833647   0.000000   0.000000
   11        6.313250      6.313249   0.000000   0.000000
   12        7.265867      7.265597   0.000000   0.000000
   13       10.742678     10.742596   0.000000   0.000000
   14       11.530312     11.534105   0.000000   0.000000
 
  0.2727273E+00  0.1112033E-16  0.2382867E-17  0.4722550E-02
    1      -43.392061    -43.391790   1.000000   1.000000
    2      -21.618174    -21.618172   1.000000   1.000000
    3      -17.313552    -17.313553   1.000000   1.000000
    4       -6.546060     -6.546060   1.000000   1.000000
    5       -5.827805     -5.827802   1.000000   1.000000
    6       -5.272911     -5.272907   1.000000   1.000000
    7       -3.774848     -3.774851   1.000000   1.000000
    8       -0.377856     -0.377865   1.000000   1.000000
    9        0.285531      0.285525   1.000000   1.000000
   10        5.444566      5.444566   0.000000   0.000000
   11        6.335594      6.335594   0.000000   0.000000
   12        7.983188      7.982527   0.000000   0.000000
   13       11.274536     11.271795   0.000000   0.000000
   14       11.751246     11.749141   0.000000   0.000000
 
  0.3636364E+00  0.3311476E-16  0.5104477E-16  0.4722550E-02
    1      -43.390782    -43.390511   1.000000   1.000000
    2      -21.565691    -21.565688   1.000000   1.000000
    3      -17.284945    -17.284946   1.000000   1.000000
    4       -6.523719     -6.523717   1.000000   1.000000
    5       -5.970216     -5.970217   1.000000   1.000000
    6       -5.335273     -5.335269   1.000000   1.000000
    7       -3.817900     -3.817902   1.000000   1.000000
    8       -0.770914     -0.770923   1.000000   1.000000
    9        0.156927      0.156921   1.000000   1.000000
   10        5.075529      5.075528   0.000000   0.000000
   11        6.356862      6.356862   0.000000   0.000000
   12        8.524893      8.524870   0.000000   0.000000
   13       11.481250     11.481090   0.000000   0.000000
   14       11.857443     11.854419   0.000000   0.000000
 
  0.4545455E+00  0.1919260E-16  0.4459901E-16  0.4722550E-02
    1      -43.389990    -43.389719   1.000000   1.000000
    2      -21.533985    -21.533981   1.000000   1.000000
    3      -17.267825    -17.267826   1.000000   1.000000
    4       -6.591944     -6.591941   1.000000   1.000000
    5       -5.952682     -5.952685   1.000000   1.000000
    6       -5.372096     -5.372091   1.000000   1.000000
    7       -3.855221     -3.855222   1.000000   1.000000
    8       -0.991437     -0.991446   1.000000   1.000000
    9        0.083641      0.083634   1.000000   1.000000
   10        4.855338      4.855338   0.000000   0.000000
   11        6.366996      6.366996   0.000000   0.000000
   12        8.736100      8.736086   0.000000   0.000000
   13       11.494966     11.494980   0.000000   0.000000
   14       12.040614     12.040585   0.000000   0.000000
 
  0.9090909E-01  0.9090909E-01  0.4593590E-17  0.2361275E-02
    1      -43.394560    -43.394289   1.000000   1.000000
    2      -21.714851    -21.714847   1.000000   1.000000
    3      -17.369698    -17.369699   1.000000   1.000000
    4       -6.748437     -6.748438   1.000000   1.000000
    5       -5.222875     -5.222871   1.000000   1.000000
    6       -5.210037     -5.210033   1.000000   1.000000
    7       -3.754004     -3.754007   1.000000   1.000000
    8        0.400566      0.400562   1.000000   1.000000
    9        0.633955      0.633949   1.000000   1.000000
   10        6.029799      6.029801   0.000000   0.000000
   11        6.453662      6.453661   0.000000   0.000000
   12        6.669047      6.669020   0.000000   0.000000
   13       10.169429     10.169388   0.000000   0.000000
   14       11.348789     11.346928   0.000000   0.000000
 
  0.1818182E+00  0.9090909E-01  0.1067369E-16  0.4722550E-02
    1      -43.393759    -43.393488   1.000000   1.000000
    2      -21.684148    -21.684144   1.000000   1.000000
    3      -17.354885    -17.354886   1.000000   1.000000
    4       -6.658326     -6.658327   1.000000   1.000000
    5       -5.436252     -5.436248   1.000000   1.000000
    6       -5.232845     -5.232841   1.000000   1.000000
    7       -3.786911     -3.786914   1.000000   1.000000
    8        0.153517      0.153512   1.000000   1.000000
    9        0.553492      0.553486   1.000000   1.000000
   10        5.934613      5.934613   0.000000   0.000000
   11        6.336295      6.336295   0.000000   0.000000
   12        7.117520      7.117378   0.000000   0.000000
   13       10.505555     10.505485   0.000000   0.000000
   14       11.389074     11.388400   0.000000   0.000000
 
  0.2727273E+00  0.9090909E-01  0.5104477E-16  0.4722550E-02
    1      -43.392486    -43.392215   1.000000   1.000000
    2      -21.633867    -21.633865   1.000000   1.000000
    3      -17.328461    -17.328462   1.000000   1.000000
    4       -6.528309     -6.528310   1.000000   1.000000
    5       -5.722670     -5.722667   1.000000   1.000000
    6       -5.297430     -5.297427   1.000000   1.000000
    7       -3.827135     -3.827137   1.000000   1.000000
    8       -0.216609     -0.216615   1.000000   1.000000
    9        0.383453      0.383447   1.000000   1.000000
   10        5.623350      5.623350   0.000000   0.000000
   11        6.303456      6.303456   0.000000   0.000000
   12        7.803563      7.802982   0.000000   0.000000
   13       11.002526     11.001446   0.000000   0.000000
   14       11.582416     11.582821   0.000000   0.000000
 
  0.3636364E+00  0.9090909E-01  0.6636413E-16  0.4722550E-02
    1      -43.391122    -43.390851   1.000000   1.000000
    2      -21.579451    -21.579449   1.000000   1.000000
    3      -17.298597    -17.298598   1.000000   1.000000
    4       -6.450297     -6.450296   1.000000   1.000000
    5       -5.928408     -5.928408   1.000000   1.000000
    6       -5.372303     -5.372299   1.000000   1.000000
    7       -3.873845     -3.873847   1.000000   1.000000
    8       -0.595334     -0.595341   1.000000   1.000000
    9        0.202325      0.202319   1.000000   1.000000
   10        5.233518      5.233517   0.000000   0.000000
   11        6.293558      6.293558   0.000000   0.000000
   12        8.504133      8.504084   0.000000   0.000000
   13       11.311169     11.308516   0.000000   0.000000
   14       11.777670     11.779848   0.000000   0.000000
 
  0.4545455E+00  0.9090909E-01  0.2134738E-16  0.4722550E-02
    1      -43.390103    -43.389832   1.000000   1.000000
    2      -21.538389    -21.538384   1.000000   1.000000
    3      -17.274765    -17.274766   1.000000   1.000000
    4       -6.513803     -6.513799   1.000000   1.000000
    5       -5.940758     -5.940761   1.000000   1.000000
    6       -5.424437     -5.424433   1.000000   1.000000
    7       -3.912724     -3.912726   1.000000   1.000000
    8       -0.869587     -0.869596   1.000000   1.000000
    9        0.062376      0.062369   1.000000   1.000000
   10        4.935723      4.935722   0.000000   0.000000
   11        6.272164      6.272163   0.000000   0.000000
   12        8.918471      8.918450   0.000000   0.000000
   13       11.521807     11.521697   0.000000   0.000000
   14       11.822988     11.822413   0.000000   0.000000
 
 -0.4545455E+00  0.9090909E-01 -0.1540186E-16  0.4722550E-02
    1      -43.389772    -43.389501   1.000000   1.000000
    2      -21.524583    -21.524579   1.000000   1.000000
    3      -17.264698    -17.264699   1.000000   1.000000
    4       -6.573500     -6.573497   1.000000   1.000000
    5       -5.913926     -5.913929   1.000000   1.000000
    6       -5.439762     -5.439759   1.000000   1.000000
    7       -3.910147     -3.910149   1.000000   1.000000
    8       -0.970921     -0.970929   1.000000   1.000000
    9       -0.002719     -0.002725   1.000000   1.000000
   10        4.829461      4.829461   0.000000   0.000000
   11        6.248976      6.248975   0.000000   0.000000
   12        9.028403      9.028388   0.000000   0.000000
   13       11.551916     11.551844   0.000000   0.000000
   14       12.040118     12.037972   0.000000   0.000000
 
 -0.3636364E+00  0.9090909E-01 -0.7969834E-17  0.4722550E-02
    1      -43.390195    -43.389924   1.000000   1.000000
    2      -21.542520    -21.542516   1.000000   1.000000
    3      -17.271619    -17.271620   1.000000   1.000000
    4       -6.554624     -6.554621   1.000000   1.000000
    5       -5.921131     -5.921132   1.000000   1.000000
    6       -5.423884     -5.423879   1.000000   1.000000
    7       -3.853266     -3.853268   1.000000   1.000000
    8       -0.877112     -0.877122   1.000000   1.000000
    9        0.024679      0.024674   1.000000   1.000000
   10        4.943687      4.943687   0.000000   0.000000
   11        6.232864      6.232863   0.000000   0.000000
   12        8.925819      8.925807   0.000000   0.000000
   13       11.561335     11.561737   0.000000   0.000000
   14       11.999396     11.999363   0.000000   0.000000
 
 -0.2727273E+00  0.9090909E-01  0.1717153E-16  0.4722550E-02
    1      -43.391252    -43.390981   1.000000   1.000000
    2      -21.586117    -21.586114   1.000000   1.000000
    3      -17.293313    -17.293314   1.000000   1.000000
    4       -6.541444     -6.541444   1.000000   1.000000
    5       -5.867032     -5.867031   1.000000   1.000000
    6       -5.370793     -5.370788   1.000000   1.000000
    7       -3.781539     -3.781542   1.000000   1.000000
    8       -0.602458     -0.602467   1.000000   1.000000
    9        0.138950      0.138945   1.000000   1.000000
   10        5.236863      5.236863   0.000000   0.000000
   11        6.221144      6.221143   0.000000   0.000000
   12        8.505384      8.505235   0.000000   0.000000
   13       11.544245     11.543672   0.000000   0.000000
   14       11.952147     11.942563   0.000000   0.000000
 
 -0.1818182E+00  0.9090909E-01 -0.8873581E-17  0.4722550E-02
    1      -43.392616    -43.392345   1.000000   1.000000
    2      -21.640927    -21.640925   1.000000   1.000000
    3      -17.322842    -17.322843   1.000000   1.000000
    4       -6.616964     -6.616964   1.000000   1.000000
    5       -5.670267     -5.670264   1.000000   1.000000
    6       -5.284597     -5.284593   1.000000   1.000000
    7       -3.735390     -3.735392   1.000000   1.000000
    8       -0.205888     -0.205896   1.000000   1.000000
    9        0.302226      0.302221   1.000000   1.000000
   10        5.618139      5.618139   0.000000   0.000000
   11        6.205732      6.205730   0.000000   0.000000
   12        7.805840      7.805177   0.000000   0.000000
   13       11.176975     11.176227   0.000000   0.000000
   14       11.771832     11.772624   0.000000   0.000000
 
 -0.9090909E-01  0.9090909E-01 -0.5673232E-16  0.2361275E-02
    1      -43.393873    -43.393602   1.000000   1.000000
    2      -21.689437    -21.689432   1.000000   1.000000
    3      -17.350730    -17.350731   1.000000   1.000000
    4       -6.715057     -6.715058   1.000000   1.000000
    5       -5.433165     -5.433162   1.000000   1.000000
    6       -5.192642     -5.192638   1.000000   1.000000
    7       -3.721450     -3.721454   1.000000   1.000000
    8        0.203985      0.203977   1.000000   1.000000
    9        0.451096      0.451092   1.000000   1.000000
   10        5.973120      5.973120   0.000000   0.000000
   11        6.192379      6.192377   0.000000   0.000000
   12        7.120733      7.120568   0.000000   0.000000
   13       10.611954     10.611908   0.000000   0.000000
   14       11.555653     11.555066   0.000000   0.000000
 
  0.1818182E+00  0.1818182E+00 -0.1179784E-17  0.2361275E-02
    1      -43.393333    -43.393062   1.000000   1.000000
    2      -21.667100    -21.667099   1.000000   1.000000
    3      -17.350740    -17.350741   1.000000   1.000000
    4       -6.588412     -6.588412   1.000000   1.000000
    5       -5.487386     -5.487382   1.000000   1.000000
    6       -5.297989     -5.297985   1.000000   1.000000
    7       -3.845575     -3.845578   1.000000   1.000000
    8       -0.024286     -0.024290   1.000000   1.000000
    9        0.623558      0.623551   1.000000   1.000000
   10        5.957697      5.957697   0.000000   0.000000
   11        6.202447      6.202445   0.000000   0.000000
   12        7.361779      7.361559   0.000000   0.000000
   13       10.557858     10.557851   0.000000   0.000000
   14       11.396373     11.396055   0.000000   0.000000
 
  0.2727273E+00  0.1818182E+00  0.4459901E-16  0.4722550E-02
    1      -43.392377    -43.392106   1.000000   1.000000
    2      -21.628303    -21.628302   1.000000   1.000000
    3      -17.333410    -17.333412   1.000000   1.000000
    4       -6.476044     -6.476045   1.000000   1.000000
    5       -5.669201     -5.669197   1.000000   1.000000
    6       -5.367520     -5.367516   1.000000   1.000000
    7       -3.913632     -3.913633   1.000000   1.000000
    8       -0.301000     -0.301005   1.000000   1.000000
    9        0.536271      0.536265   1.000000   1.000000
   10        5.755280      5.755280   0.000000   0.000000
   11        6.121718      6.121716   0.000000   0.000000
   12        7.906623      7.906071   0.000000   0.000000
   13       10.798933     10.798905   0.000000   0.000000
   14       11.610198     11.610476   0.000000   0.000000
 
  0.3636364E+00  0.1818182E+00  0.1593967E-16  0.4722550E-02
    1      -43.391186    -43.390915   1.000000   1.000000
    2      -21.579742    -21.579740   1.000000   1.000000
    3      -17.308403    -17.308404   1.000000   1.000000
    4       -6.388487     -6.388486   1.000000   1.000000
    5       -5.818930     -5.818929   1.000000   1.000000
    6       -5.470218     -5.470214   1.000000   1.000000
    7       -3.987425     -3.987427   1.000000   1.000000
    8       -0.573701     -0.573707   1.000000   1.000000
    9        0.323280      0.323273   1.000000   1.000000
   10        5.392212      5.392210   0.000000   0.000000
   11        6.086422      6.086420   0.000000   0.000000
   12        8.666780      8.666708   0.000000   0.000000
   13       11.008124     11.007298   0.000000   0.000000
   14       11.956586     11.891691   0.000000   0.000000
 
  0.4545455E+00  0.1818182E+00  0.1219776E-16  0.4722550E-02
    1      -43.390091    -43.389820   1.000000   1.000000
    2      -21.536542    -21.536538   1.000000   1.000000
    3      -17.283381    -17.283382   1.000000   1.000000
    4       -6.401948     -6.401944   1.000000   1.000000
    5       -5.868946     -5.868947   1.000000   1.000000
    6       -5.536933     -5.536930   1.000000   1.000000
    7       -4.052968     -4.052970   1.000000   1.000000
    8       -0.766652     -0.766658   1.000000   1.000000
    9        0.069666      0.069659   1.000000   1.000000
   10        5.060850      5.060848   0.000000   0.000000
   11        6.037368      6.037366   0.000000   0.000000
   12        9.363151      9.363167   0.000000   0.000000
   13       11.268011     11.269146   0.000000   0.000000
   14       11.787800     11.819625   0.000000   0.000000
 
 -0.4545455E+00  0.1818182E+00 -0.7969834E-17  0.4722550E-02
    1      -43.389498    -43.389227   1.000000   1.000000
    2      -21.513137    -21.513133   1.000000   1.000000
    3      -17.266388    -17.266389   1.000000   1.000000
    4       -6.459367     -6.459363   1.000000   1.000000
    5       -5.888619     -5.888620   1.000000   1.000000
    6       -5.539457     -5.539455   1.000000   1.000000
    7       -4.067644     -4.067647   1.000000   1.000000
    8       -0.842571     -0.842579   1.000000   1.000000
    9       -0.136965     -0.136971   1.000000   1.000000
   10        4.868643      4.868642   0.000000   0.000000
   11        6.004493      6.004489   0.000000   0.000000
   12        9.667911      9.667836   0.000000   0.000000
   13       11.634673     11.635330   0.000000   0.000000
   14       11.827535     11.829241   0.000000   0.000000
 
 -0.3636364E+00  0.1818182E+00 -0.4593590E-17  0.4722550E-02
    1      -43.389595    -43.389324   1.000000   1.000000
    2      -21.517352    -21.517349   1.000000   1.000000
    3      -17.262968    -17.262969   1.000000   1.000000
    4       -6.495772     -6.495770   1.000000   1.000000
    5       -5.861112     -5.861111   1.000000   1.000000
    6       -5.566757     -5.566755   1.000000   1.000000
    7       -3.993859     -3.993861   1.000000   1.000000
    8       -0.814875     -0.814884   1.000000   1.000000
    9       -0.213234     -0.213239   1.000000   1.000000
   10        4.865466      4.865466   0.000000   0.000000
   11        6.010653      6.010650   0.000000   0.000000
   12        9.633163      9.633158   0.000000   0.000000
   13       11.608592     11.608841   0.000000   0.000000
   14       12.064781     12.094541   0.000000   0.000000
 
 -0.2727273E+00  0.1818182E+00  0.2122374E-16  0.4722550E-02
    1      -43.390304    -43.390033   1.000000   1.000000
    2      -21.547541    -21.547538   1.000000   1.000000
    3      -17.274224    -17.274225   1.000000   1.000000
    4       -6.515672     -6.515670   1.000000   1.000000
    5       -5.798055     -5.798054   1.000000   1.000000
    6       -5.575392     -5.575388   1.000000   1.000000
    7       -3.871012     -3.871015   1.000000   1.000000
    8       -0.708716     -0.708726   1.000000   1.000000
    9       -0.114338     -0.114343   1.000000   1.000000
   10        5.037067      5.037065   0.000000   0.000000
   11        6.054595      6.054592   0.000000   0.000000
   12        9.256384      9.256369   0.000000   0.000000
   13       11.576764     11.571170   0.000000   0.000000
   14       12.219272     12.199518   0.000000   0.000000
 
 -0.1818182E+00  0.1818182E+00 -0.6453619E-16  0.2361275E-02
    1      -43.391420    -43.391149   1.000000   1.000000
    2      -21.593698    -21.593695   1.000000   1.000000
    3      -17.296572    -17.296573   1.000000   1.000000
    4       -6.553454     -6.553453   1.000000   1.000000
    5       -5.762398     -5.762396   1.000000   1.000000
    6       -5.444261     -5.444256   1.000000   1.000000
    7       -3.774058     -3.774061   1.000000   1.000000
    8       -0.503583     -0.503592   1.000000   1.000000
    9        0.096391      0.096387   1.000000   1.000000
   10        5.318927      5.318927   0.000000   0.000000
   11        6.120809      6.120807   0.000000   0.000000
   12        8.556308      8.555043   0.000000   0.000000
   13       11.648400     11.644125   0.000000   0.000000
   14       12.071771     12.091670   0.000000   0.000000
 
  0.2727273E+00  0.2727273E+00  0.2134738E-16  0.2361275E-02
    1      -43.391786    -43.391515   1.000000   1.000000
    2      -21.603118    -21.603116   1.000000   1.000000
    3      -17.327029    -17.327031   1.000000   1.000000
    4       -6.410005     -6.410006   1.000000   1.000000
    5       -5.720529     -5.720527   1.000000   1.000000
    6       -5.410395     -5.410392   1.000000   1.000000
    7       -4.018016     -4.018019   1.000000   1.000000
    8       -0.524961     -0.524966   1.000000   1.000000
    9        0.616132      0.616126   1.000000   1.000000
   10        5.795532      5.795531   0.000000   0.000000
   11        5.877686      5.877683   0.000000   0.000000
   12        8.232095      8.231629   0.000000   0.000000
   13       10.710408     10.711153   0.000000   0.000000
   14       11.843430     11.846158   0.000000   0.000000
 
  0.3636364E+00  0.2727273E+00  0.1467739E-16  0.4722550E-02
    1      -43.390885    -43.390614   1.000000   1.000000
    2      -21.566074    -21.566073   1.000000   1.000000
    3      -17.311240    -17.311241   1.000000   1.000000
    4       -6.383035     -6.383033   1.000000   1.000000
    5       -5.722900     -5.722899   1.000000   1.000000
    6       -5.504892     -5.504888   1.000000   1.000000
    7       -4.131603     -4.131605   1.000000   1.000000
    8       -0.742736     -0.742740   1.000000   1.000000
    9        0.521971      0.521964   1.000000   1.000000
   10        5.518761      5.518758   0.000000   0.000000
   11        5.825215      5.825212   0.000000   0.000000
   12        8.824361      8.824110   0.000000   0.000000
   13       10.751381     10.751724   0.000000   0.000000
   14       12.198908     12.180717   0.000000   0.000000
 
  0.4545455E+00  0.2727273E+00  0.1200604E-18  0.4722550E-02
    1      -43.389970    -43.389699   1.000000   1.000000
    2      -21.528823    -21.528822   1.000000   1.000000
    3      -17.291012    -17.291013   1.000000   1.000000
    4       -6.383803     -6.383799   1.000000   1.000000
    5       -5.745210     -5.745209   1.000000   1.000000
    6       -5.560133     -5.560133   1.000000   1.000000
    7       -4.238204     -4.238207   1.000000   1.000000
    8       -0.867096     -0.867100   1.000000   1.000000
    9        0.271593      0.271586   1.000000   1.000000
   10        5.212706      5.212703   0.000000   0.000000
   11        5.766087      5.766082   0.000000   0.000000
   12        9.658556      9.658104   0.000000   0.000000
   13       10.872323     10.873103   0.000000   0.000000
   14       12.604549     12.431805   0.000000   0.000000
 
 -0.4545455E+00  0.2727273E+00 -0.7700929E-17  0.4722550E-02
    1      -43.389314    -43.389043   1.000000   1.000000
    2      -21.503288    -21.503285   1.000000   1.000000
    3      -17.272563    -17.272564   1.000000   1.000000
    4       -6.346480     -6.346477   1.000000   1.000000
    5       -5.944032     -5.944029   1.000000   1.000000
    6       -5.475519     -5.475520   1.000000   1.000000
    7       -4.286109     -4.286112   1.000000   1.000000
    8       -0.854092     -0.854097   1.000000   1.000000
    9       -0.058101     -0.058108   1.000000   1.000000
   10        4.978425      4.978421   0.000000   0.000000
   11        5.735222      5.735216   0.000000   0.000000
   12       10.385324     10.385386   0.000000   0.000000
   13       11.159531     11.161147   0.000000   0.000000
   14       12.261477     12.252905   0.000000   0.000000
 
 -0.3636364E+00  0.2727273E+00 -0.1710460E-17  0.4722550E-02
    1      -43.389159    -43.388888   1.000000   1.000000
    2      -21.498026    -21.498022   1.000000   1.000000
    3      -17.261907    -17.261909   1.000000   1.000000
    4       -6.336674     -6.336671   1.000000   1.000000
    5       -6.020654     -6.020650   1.000000   1.000000
    6       -5.500044     -5.500045   1.000000   1.000000
    7       -4.207817     -4.207820   1.000000   1.000000
    8       -0.705145     -0.705150   1.000000   1.000000
    9       -0.374408     -0.374416   1.000000   1.000000
   10        4.869009      4.869009   0.000000   0.000000
   11        5.777612      5.777606   0.000000   0.000000
   12       10.446534     10.445669   0.000000   0.000000
   13       11.725178     11.616626   0.000000   0.000000
   14       11.979841     12.037556   0.000000   0.000000
 
 -0.2727273E+00  0.2727273E+00 -0.4776713E-16  0.2361275E-02
    1      -43.389515    -43.389243   1.000000   1.000000
    2      -21.514566    -21.514562   1.000000   1.000000
    3      -17.262474    -17.262475   1.000000   1.000000
    4       -6.441758     -6.441755   1.000000   1.000000
    5       -5.847405     -5.847402   1.000000   1.000000
    6       -5.629239     -5.629240   1.000000   1.000000
    7       -4.035327     -4.035330   1.000000   1.000000
    8       -0.644035     -0.644045   1.000000   1.000000
    9       -0.405626     -0.405631   1.000000   1.000000
   10        4.897833      4.897832   0.000000   0.000000
   11        5.894004      5.893999   0.000000   0.000000
   12       10.009987     10.009987   0.000000   0.000000
   13       11.494262     11.480609   0.000000   0.000000
   14       12.282303     12.279812   0.000000   0.000000
 
  0.3636364E+00  0.3636364E+00  0.1352528E-15  0.2361275E-02
    1      -43.390347    -43.390076   1.000000   1.000000
    2      -21.542837    -21.542833   1.000000   1.000000
    3      -17.306355    -17.306357   1.000000   1.000000
    4       -6.440360     -6.440357   1.000000   1.000000
    5       -5.607393     -5.607394   1.000000   1.000000
    6       -5.511080     -5.511077   1.000000   1.000000
    7       -4.289688     -4.289690   1.000000   1.000000
    8       -0.936252     -0.936256   1.000000   1.000000
    9        0.615734      0.615727   1.000000   1.000000
   10        5.553236      5.553230   0.000000   0.000000
   11        5.583494      5.583489   0.000000   0.000000
   12        9.039166      9.039238   0.000000   0.000000
   13       10.695098     10.696157   0.000000   0.000000
   14       12.592117     12.525484   0.000000   0.000000
 
  0.4545455E+00  0.3636364E+00  0.1592665E-15  0.4722550E-02
    1      -43.389762    -43.389491   1.000000   1.000000
    2      -21.517490    -21.517486   1.000000   1.000000
    3      -17.295259    -17.295260   1.000000   1.000000
    4       -6.478329     -6.478325   1.000000   1.000000
    5       -5.616708     -5.616705   1.000000   1.000000
    6       -5.438833     -5.438834   1.000000   1.000000
    7       -4.440170     -4.440173   1.000000   1.000000
    8       -1.045749     -1.045752   1.000000   1.000000
    9        0.515222      0.515216   1.000000   1.000000
   10        5.347664      5.347659   0.000000   0.000000
   11        5.531138      5.531132   0.000000   0.000000
   12        9.507989      9.507753   0.000000   0.000000
   13       10.856915     10.857505   0.000000   0.000000
   14       12.304859     12.280413   0.000000   0.000000
 
 -0.4545455E+00  0.3636364E+00  0.6159840E-16  0.4722550E-02
    1      -43.389237    -43.388966   1.000000   1.000000
    2      -21.497997    -21.497993   1.000000   1.000000
    3      -17.281139    -17.281140   1.000000   1.000000
    4       -6.425241     -6.425238   1.000000   1.000000
    5       -5.826844     -5.826841   1.000000   1.000000
    6       -5.315161     -5.315161   1.000000   1.000000
    7       -4.516799     -4.516803   1.000000   1.000000
    8       -1.024506     -1.024509   1.000000   1.000000
    9        0.241966      0.241958   1.000000   1.000000
   10        5.144661      5.144656   0.000000   0.000000
   11        5.508894      5.508886   0.000000   0.000000
   12       10.294800     10.294423   0.000000   0.000000
   13       11.115821     11.115578   0.000000   0.000000
   14       11.926378     11.911277   0.000000   0.000000
 
 -0.3636364E+00  0.3636364E+00 -0.1845562E-16  0.2361275E-02
    1      -43.389024    -43.388753   1.000000   1.000000
    2      -21.490707    -21.490703   1.000000   1.000000
    3      -17.268714    -17.268715   1.000000   1.000000
    4       -6.269718     -6.269714   1.000000   1.000000
    5       -6.082009     -6.082006   1.000000   1.000000
    6       -5.353122     -5.353122   1.000000   1.000000
    7       -4.421309     -4.421314   1.000000   1.000000
    8       -0.875346     -0.875350   1.000000   1.000000
    9       -0.113056     -0.113064   1.000000   1.000000
   10        4.968215      4.968211   0.000000   0.000000
   11        5.593926      5.593919   0.000000   0.000000
   12       11.035698     11.033838   0.000000   0.000000
   13       11.325161     11.325348   0.000000   0.000000
   14       11.681625     11.678053   0.000000   0.000000
 