 running on   12 total cores
 distrk:  each k-point on   12 cores,    1 groups
 distr:  one band on    6 cores,    2 groups
 using from now: INCAR     
 vasp.6.1.2 22Jul20 (build Mar 20 2021 11:25:07) complex                        
  
 POSCAR found type information on POSCAR LiP 
 POSCAR found :  2 types and      16 ions
 scaLAPACK will be used
 LDA part: xc-table for Pade appr. of Perdew
 generate k-points for:    6    6    4
 POSCAR, INCAR and KPOINTS ok, starting setup
 FFT: planning ...
 WAVECAR not read
 entering main loop
       N       E                     dE             d eps       ncg     rms          rms(c)
DAV:   1     0.390098933635E+03    0.39010E+03   -0.25720E+04 10304   0.135E+03
DAV:   2    -0.382913850163E+01   -0.39393E+03   -0.36334E+03 11728   0.319E+02
DAV:   3    -0.555115730639E+02   -0.51682E+02   -0.50987E+02 14822   0.893E+01
DAV:   4    -0.628710705358E+02   -0.73595E+01   -0.72923E+01 18904   0.338E+01
DAV:   5    -0.637504799973E+02   -0.87941E+00   -0.87910E+00 15186   0.788E+00    0.202E+01
DAV:   6    -0.650937233530E+02   -0.13432E+01   -0.28600E+00 13884   0.627E+00    0.106E+01
DAV:   7    -0.663336585714E+02   -0.12399E+01   -0.71362E-01 13034   0.400E+00    0.535E+00
DAV:   8    -0.665729391419E+02   -0.23928E+00   -0.62312E-01 13024   0.298E+00    0.119E+00
DAV:   9    -0.666005843416E+02   -0.27645E-01   -0.84607E-02 15552   0.113E+00    0.464E-01
DAV:  10    -0.666041015650E+02   -0.35172E-02   -0.70936E-03 12932   0.408E-01    0.195E-01
DAV:  11    -0.666055267050E+02   -0.14251E-02   -0.19257E-03 12928   0.218E-01    0.964E-02
DAV:  12    -0.666058359985E+02   -0.30929E-03   -0.67079E-04 13112   0.107E-01    0.419E-02
DAV:  13    -0.666058906165E+02   -0.54618E-04   -0.10592E-04 11704   0.552E-02    0.208E-02
DAV:  14    -0.666059070441E+02   -0.16428E-04   -0.39689E-05 10456   0.322E-02    0.550E-03
DAV:  15    -0.666059088147E+02   -0.17707E-05   -0.51880E-06  7236   0.145E-02
   1 F= -.66605909E+02 E0= -.66605909E+02  d E =0.000000E+00  mag=    -0.0003
