  40  40   1   0
  0.1990331E+02  0.7628682E-09  0.9847875E-09  0.1059725E-08  0.5000000E-15
  1.000000000000000E-004
  CAR 
 unknown system                          
      9.95230919    -44.95308532  301      5.37241682      1.00000000
    -44.953  0.0000E+00  0.0000E+00  0.0000E+00  0.0000E+00
    -44.770  0.0000E+00  0.0000E+00  0.0000E+00  0.0000E+00
    -44.587  0.0000E+00  0.0000E+00  0.0000E+00  0.0000E+00
    -44.404  0.0000E+00  0.0000E+00  0.0000E+00  0.0000E+00
    -44.221  0.0000E+00  0.0000E+00  0.0000E+00  0.0000E+00
    -44.038  0.0000E+00  0.0000E+00  0.0000E+00  0.0000E+00
    -43.855  0.0000E+00  0.0000E+00  0.0000E+00  0.0000E+00
    -43.672  0.0000E+00  0.0000E+00  0.0000E+00  0.0000E+00
    -43.489  0.0000E+00  0.0000E+00  0.0000E+00  0.0000E+00
    -43.306  0.0000E+00  0.0000E+00  0.0000E+00  0.0000E+00
    -43.123  0.0000E+00  0.0000E+00  0.0000E+00  0.0000E+00
    -42.940  0.0000E+00  0.0000E+00  0.0000E+00  0.0000E+00
    -42.757  0.0000E+00  0.0000E+00  0.0000E+00  0.0000E+00
    -42.574  0.0000E+00  0.0000E+00  0.0000E+00  0.0000E+00
    -42.391  0.2208E+00  0.2208E+00  0.4040E-01  0.4040E-01
    -42.208  0.0000E+00  0.0000E+00  0.4040E-01  0.4040E-01
    -42.025  0.4415E+00  0.4415E+00  0.1212E+00  0.1212E+00
    -41.842  0.0000E+00  0.0000E+00  0.1212E+00  0.1212E+00
    -41.659  0.0000E+00  0.0000E+00  0.1212E+00  0.1212E+00
    -41.476  0.0000E+00  0.0000E+00  0.1212E+00  0.1212E+00
    -41.293  0.0000E+00  0.0000E+00  0.1212E+00  0.1212E+00
    -41.110  0.0000E+00  0.0000E+00  0.1212E+00  0.1212E+00
    -40.927  0.0000E+00  0.0000E+00  0.1212E+00  0.1212E+00
    -40.744  0.0000E+00  0.0000E+00  0.1212E+00  0.1212E+00
    -40.561  0.0000E+00  0.0000E+00  0.1212E+00  0.1212E+00
    -40.378  0.0000E+00  0.0000E+00  0.1212E+00  0.1212E+00
    -40.195  0.0000E+00  0.0000E+00  0.1212E+00  0.1212E+00
    -40.012  0.0000E+00  0.0000E+00  0.1212E+00  0.1212E+00
    -39.829  0.0000E+00  0.0000E+00  0.1212E+00  0.1212E+00
    -39.646  0.0000E+00  0.0000E+00  0.1212E+00  0.1212E+00
    -39.463  0.0000E+00  0.0000E+00  0.1212E+00  0.1212E+00
    -39.280  0.0000E+00  0.0000E+00  0.1212E+00  0.1212E+00
    -39.097  0.0000E+00  0.0000E+00  0.1212E+00  0.1212E+00
    -38.913  0.0000E+00  0.0000E+00  0.1212E+00  0.1212E+00
    -38.730  0.0000E+00  0.0000E+00  0.1212E+00  0.1212E+00
    -38.547  0.0000E+00  0.0000E+00  0.1212E+00  0.1212E+00
    -38.364  0.0000E+00  0.0000E+00  0.1212E+00  0.1212E+00
    -38.181  0.0000E+00  0.0000E+00  0.1212E+00  0.1212E+00
    -37.998  0.0000E+00  0.0000E+00  0.1212E+00  0.1212E+00
    -37.815  0.0000E+00  0.0000E+00  0.1212E+00  0.1212E+00
    -37.632  0.0000E+00  0.0000E+00  0.1212E+00  0.1212E+00
    -37.449  0.0000E+00  0.0000E+00  0.1212E+00  0.1212E+00
    -37.266  0.0000E+00  0.0000E+00  0.1212E+00  0.1212E+00
    -37.083  0.0000E+00  0.0000E+00  0.1212E+00  0.1212E+00
    -36.900  0.0000E+00  0.0000E+00  0.1212E+00  0.1212E+00
    -36.717  0.0000E+00  0.0000E+00  0.1212E+00  0.1212E+00
    -36.534  0.0000E+00  0.0000E+00  0.1212E+00  0.1212E+00
    -36.351  0.0000E+00  0.0000E+00  0.1212E+00  0.1212E+00
    -36.168  0.0000E+00  0.0000E+00  0.1212E+00  0.1212E+00
    -35.985  0.0000E+00  0.0000E+00  0.1212E+00  0.1212E+00
    -35.802  0.0000E+00  0.0000E+00  0.1212E+00  0.1212E+00
    -35.619  0.0000E+00  0.0000E+00  0.1212E+00  0.1212E+00
    -35.436  0.0000E+00  0.0000E+00  0.1212E+00  0.1212E+00
    -35.253  0.0000E+00  0.0000E+00  0.1212E+00  0.1212E+00
    -35.070  0.0000E+00  0.0000E+00  0.1212E+00  0.1212E+00
    -34.887  0.0000E+00  0.0000E+00  0.1212E+00  0.1212E+00
    -34.704  0.0000E+00  0.0000E+00  0.1212E+00  0.1212E+00
    -34.521  0.0000E+00  0.0000E+00  0.1212E+00  0.1212E+00
    -34.338  0.0000E+00  0.0000E+00  0.1212E+00  0.1212E+00
    -34.155  0.0000E+00  0.0000E+00  0.1212E+00  0.1212E+00
    -33.972  0.0000E+00  0.0000E+00  0.1212E+00  0.1212E+00
    -33.789  0.0000E+00  0.0000E+00  0.1212E+00  0.1212E+00
    -33.606  0.0000E+00  0.0000E+00  0.1212E+00  0.1212E+00
    -33.423  0.0000E+00  0.0000E+00  0.1212E+00  0.1212E+00
    -33.240  0.0000E+00  0.0000E+00  0.1212E+00  0.1212E+00
    -33.057  0.0000E+00  0.0000E+00  0.1212E+00  0.1212E+00
    -32.874  0.0000E+00  0.0000E+00  0.1212E+00  0.1212E+00
    -32.691  0.0000E+00  0.0000E+00  0.1212E+00  0.1212E+00
    -32.508  0.0000E+00  0.0000E+00  0.1212E+00  0.1212E+00
    -32.325  0.0000E+00  0.0000E+00  0.1212E+00  0.1212E+00
    -32.142  0.0000E+00  0.0000E+00  0.1212E+00  0.1212E+00
    -31.959  0.0000E+00  0.0000E+00  0.1212E+00  0.1212E+00
    -31.776  0.0000E+00  0.0000E+00  0.1212E+00  0.1212E+00
    -31.593  0.0000E+00  0.0000E+00  0.1212E+00  0.1212E+00
    -31.410  0.0000E+00  0.0000E+00  0.1212E+00  0.1212E+00
    -31.227  0.0000E+00  0.0000E+00  0.1212E+00  0.1212E+00
    -31.044  0.0000E+00  0.0000E+00  0.1212E+00  0.1212E+00
    -30.861  0.0000E+00  0.0000E+00  0.1212E+00  0.1212E+00
    -30.678  0.0000E+00  0.0000E+00  0.1212E+00  0.1212E+00
    -30.495  0.0000E+00  0.0000E+00  0.1212E+00  0.1212E+00
    -30.312  0.0000E+00  0.0000E+00  0.1212E+00  0.1212E+00
    -30.129  0.0000E+00  0.0000E+00  0.1212E+00  0.1212E+00
    -29.946  0.0000E+00  0.0000E+00  0.1212E+00  0.1212E+00
    -29.763  0.0000E+00  0.0000E+00  0.1212E+00  0.1212E+00
    -29.580  0.0000E+00  0.0000E+00  0.1212E+00  0.1212E+00
    -29.397  0.0000E+00  0.0000E+00  0.1212E+00  0.1212E+00
    -29.214  0.0000E+00  0.0000E+00  0.1212E+00  0.1212E+00
    -29.031  0.0000E+00  0.0000E+00  0.1212E+00  0.1212E+00
    -28.848  0.0000E+00  0.0000E+00  0.1212E+00  0.1212E+00
    -28.664  0.0000E+00  0.0000E+00  0.1212E+00  0.1212E+00
    -28.481  0.0000E+00  0.0000E+00  0.1212E+00  0.1212E+00
    -28.298  0.0000E+00  0.0000E+00  0.1212E+00  0.1212E+00
    -28.115  0.0000E+00  0.0000E+00  0.1212E+00  0.1212E+00
    -27.932  0.0000E+00  0.0000E+00  0.1212E+00  0.1212E+00
    -27.749  0.0000E+00  0.0000E+00  0.1212E+00  0.1212E+00
    -27.566  0.0000E+00  0.0000E+00  0.1212E+00  0.1212E+00
    -27.383  0.0000E+00  0.0000E+00  0.1212E+00  0.1212E+00
    -27.200  0.0000E+00  0.0000E+00  0.1212E+00  0.1212E+00
    -27.017  0.0000E+00  0.0000E+00  0.1212E+00  0.1212E+00
    -26.834  0.0000E+00  0.0000E+00  0.1212E+00  0.1212E+00
    -26.651  0.0000E+00  0.0000E+00  0.1212E+00  0.1212E+00
    -26.468  0.0000E+00  0.0000E+00  0.1212E+00  0.1212E+00
    -26.285  0.0000E+00  0.0000E+00  0.1212E+00  0.1212E+00
    -26.102  0.0000E+00  0.0000E+00  0.1212E+00  0.1212E+00
    -25.919  0.0000E+00  0.0000E+00  0.1212E+00  0.1212E+00
    -25.736  0.0000E+00  0.0000E+00  0.1212E+00  0.1212E+00
    -25.553  0.0000E+00  0.0000E+00  0.1212E+00  0.1212E+00
    -25.370  0.0000E+00  0.0000E+00  0.1212E+00  0.1212E+00
    -25.187  0.0000E+00  0.0000E+00  0.1212E+00  0.1212E+00
    -25.004  0.0000E+00  0.0000E+00  0.1212E+00  0.1212E+00
    -24.821  0.0000E+00  0.0000E+00  0.1212E+00  0.1212E+00
    -24.638  0.0000E+00  0.0000E+00  0.1212E+00  0.1212E+00
    -24.455  0.0000E+00  0.0000E+00  0.1212E+00  0.1212E+00
    -24.272  0.0000E+00  0.0000E+00  0.1212E+00  0.1212E+00
    -24.089  0.0000E+00  0.0000E+00  0.1212E+00  0.1212E+00
    -23.906  0.0000E+00  0.0000E+00  0.1212E+00  0.1212E+00
    -23.723  0.0000E+00  0.0000E+00  0.1212E+00  0.1212E+00
    -23.540  0.0000E+00  0.0000E+00  0.1212E+00  0.1212E+00
    -23.357  0.0000E+00  0.0000E+00  0.1212E+00  0.1212E+00
    -23.174  0.0000E+00  0.0000E+00  0.1212E+00  0.1212E+00
    -22.991  0.0000E+00  0.0000E+00  0.1212E+00  0.1212E+00
    -22.808  0.0000E+00  0.0000E+00  0.1212E+00  0.1212E+00
    -22.625  0.0000E+00  0.0000E+00  0.1212E+00  0.1212E+00
    -22.442  0.0000E+00  0.0000E+00  0.1212E+00  0.1212E+00
    -22.259  0.0000E+00  0.0000E+00  0.1212E+00  0.1212E+00
    -22.076  0.0000E+00  0.0000E+00  0.1212E+00  0.1212E+00
    -21.893  0.0000E+00  0.0000E+00  0.1212E+00  0.1212E+00
    -21.710  0.0000E+00  0.0000E+00  0.1212E+00  0.1212E+00
    -21.527  0.0000E+00  0.0000E+00  0.1212E+00  0.1212E+00
    -21.344  0.0000E+00  0.0000E+00  0.1212E+00  0.1212E+00
    -21.161  0.0000E+00  0.0000E+00  0.1212E+00  0.1212E+00
    -20.978  0.0000E+00  0.0000E+00  0.1212E+00  0.1212E+00
    -20.795  0.0000E+00  0.0000E+00  0.1212E+00  0.1212E+00
    -20.612  0.0000E+00  0.0000E+00  0.1212E+00  0.1212E+00
    -20.429  0.0000E+00  0.0000E+00  0.1212E+00  0.1212E+00
    -20.246  0.0000E+00  0.0000E+00  0.1212E+00  0.1212E+00
    -20.063  0.0000E+00  0.0000E+00  0.1212E+00  0.1212E+00
    -19.880  0.0000E+00  0.0000E+00  0.1212E+00  0.1212E+00
    -19.697  0.0000E+00  0.0000E+00  0.1212E+00  0.1212E+00
    -19.514  0.0000E+00  0.0000E+00  0.1212E+00  0.1212E+00
    -19.331  0.0000E+00  0.0000E+00  0.1212E+00  0.1212E+00
    -19.148  0.0000E+00  0.0000E+00  0.1212E+00  0.1212E+00
    -18.965  0.0000E+00  0.0000E+00  0.1212E+00  0.1212E+00
    -18.782  0.0000E+00  0.0000E+00  0.1212E+00  0.1212E+00
    -18.598  0.0000E+00  0.0000E+00  0.1212E+00  0.1212E+00
    -18.415  0.0000E+00  0.0000E+00  0.1212E+00  0.1212E+00
    -18.232  0.0000E+00  0.0000E+00  0.1212E+00  0.1212E+00
    -18.049  0.0000E+00  0.0000E+00  0.1212E+00  0.1212E+00
    -17.866  0.0000E+00  0.0000E+00  0.1212E+00  0.1212E+00
    -17.683  0.0000E+00  0.0000E+00  0.1212E+00  0.1212E+00
    -17.500  0.0000E+00  0.0000E+00  0.1212E+00  0.1212E+00
    -17.317  0.0000E+00  0.0000E+00  0.1212E+00  0.1212E+00
    -17.134  0.0000E+00  0.0000E+00  0.1212E+00  0.1212E+00
    -16.951  0.0000E+00  0.0000E+00  0.1212E+00  0.1212E+00
    -16.768  0.0000E+00  0.0000E+00  0.1212E+00  0.1212E+00
    -16.585  0.0000E+00  0.0000E+00  0.1212E+00  0.1212E+00
    -16.402  0.0000E+00  0.0000E+00  0.1212E+00  0.1212E+00
    -16.219  0.0000E+00  0.0000E+00  0.1212E+00  0.1212E+00
    -16.036  0.0000E+00  0.0000E+00  0.1212E+00  0.1212E+00
    -15.853  0.0000E+00  0.0000E+00  0.1212E+00  0.1212E+00
    -15.670  0.0000E+00  0.0000E+00  0.1212E+00  0.1212E+00
    -15.487  0.0000E+00  0.0000E+00  0.1212E+00  0.1212E+00
    -15.304  0.0000E+00  0.0000E+00  0.1212E+00  0.1212E+00
    -15.121  0.0000E+00  0.0000E+00  0.1212E+00  0.1212E+00
    -14.938  0.0000E+00  0.0000E+00  0.1212E+00  0.1212E+00
    -14.755  0.0000E+00  0.0000E+00  0.1212E+00  0.1212E+00
    -14.572  0.0000E+00  0.0000E+00  0.1212E+00  0.1212E+00
    -14.389  0.0000E+00  0.0000E+00  0.1212E+00  0.1212E+00
    -14.206  0.0000E+00  0.0000E+00  0.1212E+00  0.1212E+00
    -14.023  0.0000E+00  0.0000E+00  0.1212E+00  0.1212E+00
    -13.840  0.0000E+00  0.0000E+00  0.1212E+00  0.1212E+00
    -13.657  0.0000E+00  0.0000E+00  0.1212E+00  0.1212E+00
    -13.474  0.0000E+00  0.0000E+00  0.1212E+00  0.1212E+00
    -13.291  0.0000E+00  0.0000E+00  0.1212E+00  0.1212E+00
    -13.108  0.0000E+00  0.0000E+00  0.1212E+00  0.1212E+00
    -12.925  0.0000E+00  0.0000E+00  0.1212E+00  0.1212E+00
    -12.742  0.0000E+00  0.0000E+00  0.1212E+00  0.1212E+00
    -12.559  0.0000E+00  0.0000E+00  0.1212E+00  0.1212E+00
    -12.376  0.0000E+00  0.0000E+00  0.1212E+00  0.1212E+00
    -12.193  0.0000E+00  0.0000E+00  0.1212E+00  0.1212E+00
    -12.010  0.0000E+00  0.0000E+00  0.1212E+00  0.1212E+00
    -11.827  0.0000E+00  0.0000E+00  0.1212E+00  0.1212E+00
    -11.644  0.0000E+00  0.0000E+00  0.1212E+00  0.1212E+00
    -11.461  0.0000E+00  0.0000E+00  0.1212E+00  0.1212E+00
    -11.278  0.0000E+00  0.0000E+00  0.1212E+00  0.1212E+00
    -11.095  0.0000E+00  0.0000E+00  0.1212E+00  0.1212E+00
    -10.912  0.0000E+00  0.0000E+00  0.1212E+00  0.1212E+00
    -10.729  0.9582E+00  0.9582E+00  0.1363E+00  0.1363E+00
    -10.546  0.1109E+00  0.1109E+00  0.1616E+00  0.1616E+00
    -10.363  0.0000E+00  0.0000E+00  0.1616E+00  0.1616E+00
    -10.180  0.0000E+00  0.0000E+00  0.1616E+00  0.1616E+00
     -9.997  0.0000E+00  0.0000E+00  0.1616E+00  0.1616E+00
     -9.814  0.0000E+00  0.0000E+00  0.1616E+00  0.1616E+00
     -9.631  0.0000E+00  0.0000E+00  0.1616E+00  0.1616E+00
     -9.448  0.0000E+00  0.0000E+00  0.1616E+00  0.1616E+00
     -9.265  0.0000E+00  0.0000E+00  0.1616E+00  0.1616E+00
     -9.082  0.0000E+00  0.0000E+00  0.1616E+00  0.1616E+00
     -8.899  0.0000E+00  0.0000E+00  0.1616E+00  0.1616E+00
     -8.716  0.0000E+00  0.0000E+00  0.1616E+00  0.1616E+00
     -8.533  0.5126E+00  0.5126E+00  0.1810E+00  0.1810E+00
     -8.349  0.1104E+00  0.1104E+00  0.2020E+00  0.2020E+00
     -8.166  0.0000E+00  0.0000E+00  0.2020E+00  0.2020E+00
     -7.983  0.0000E+00  0.0000E+00  0.2020E+00  0.2020E+00
     -7.800  0.0000E+00  0.0000E+00  0.2020E+00  0.2020E+00
     -7.617  0.4694E+00  0.4694E+00  0.2411E+00  0.2411E+00
     -7.434  0.2152E+00  0.2152E+00  0.2828E+00  0.2828E+00
     -7.251  0.0000E+00  0.0000E+00  0.2828E+00  0.2828E+00
     -7.068  0.0000E+00  0.0000E+00  0.2828E+00  0.2828E+00
     -6.885  0.0000E+00  0.0000E+00  0.2828E+00  0.2828E+00
     -6.702  0.0000E+00  0.0000E+00  0.2828E+00  0.2828E+00
     -6.519  0.0000E+00  0.0000E+00  0.2828E+00  0.2828E+00
     -6.336  0.0000E+00  0.0000E+00  0.2828E+00  0.2828E+00
     -6.153  0.0000E+00  0.0000E+00  0.2828E+00  0.2828E+00
     -5.970  0.0000E+00  0.0000E+00  0.2828E+00  0.2828E+00
     -5.787  0.0000E+00  0.0000E+00  0.2828E+00  0.2828E+00
     -5.604  0.0000E+00  0.0000E+00  0.2828E+00  0.2828E+00
     -5.421  0.0000E+00  0.0000E+00  0.2828E+00  0.2828E+00
     -5.238  0.0000E+00  0.0000E+00  0.2828E+00  0.2828E+00
     -5.055  0.0000E+00  0.0000E+00  0.2828E+00  0.2828E+00
     -4.872  0.0000E+00  0.0000E+00  0.2828E+00  0.2828E+00
     -4.689  0.0000E+00  0.0000E+00  0.2828E+00  0.2828E+00
     -4.506  0.2319E-01  0.2319E-01  0.2830E+00  0.2830E+00
     -4.323  0.2842E+00  0.2842E+00  0.3005E+00  0.3005E+00
     -4.140  0.3372E+00  0.3372E+00  0.3402E+00  0.3402E+00
     -3.957  0.2940E+00  0.2940E+00  0.3830E+00  0.3830E+00
     -3.774  0.1016E+00  0.1016E+00  0.4038E+00  0.4038E+00
     -3.591  0.0000E+00  0.0000E+00  0.4040E+00  0.4040E+00
     -3.408  0.0000E+00  0.0000E+00  0.4040E+00  0.4040E+00
     -3.225  0.0000E+00  0.0000E+00  0.4040E+00  0.4040E+00
     -3.042  0.0000E+00  0.0000E+00  0.4040E+00  0.4040E+00
     -2.859  0.0000E+00  0.0000E+00  0.4040E+00  0.4040E+00
     -2.676  0.0000E+00  0.0000E+00  0.4040E+00  0.4040E+00
     -2.493  0.0000E+00  0.0000E+00  0.4040E+00  0.4040E+00
     -2.310  0.0000E+00  0.0000E+00  0.4040E+00  0.4040E+00
     -2.127  0.0000E+00  0.0000E+00  0.4040E+00  0.4040E+00
     -1.944  0.0000E+00  0.0000E+00  0.4040E+00  0.4040E+00
     -1.761  0.1130E-01  0.1130E-01  0.4046E+00  0.4046E+00
     -1.578  0.2946E-01  0.2946E-01  0.4092E+00  0.4092E+00
     -1.395  0.6534E-01  0.6534E-01  0.4146E+00  0.4146E+00
     -1.212  0.1291E+00  0.1291E+00  0.4290E+00  0.4290E+00
     -1.029  0.1054E+00  0.1054E+00  0.4472E+00  0.4472E+00
     -0.846  0.2251E+00  0.2251E+00  0.4726E+00  0.4726E+00
     -0.663  0.2207E+00  0.2207E+00  0.5004E+00  0.5004E+00
     -0.480  0.1356E+00  0.1356E+00  0.5243E+00  0.5243E+00
     -0.297  0.7525E-03  0.7525E-03  0.5253E+00  0.5253E+00
     -0.114  0.1817E+00  0.1817E+00  0.5463E+00  0.5463E+00
      0.069  0.5786E-01  0.5786E-01  0.5656E+00  0.5656E+00
      0.252  0.0000E+00  0.0000E+00  0.5657E+00  0.5657E+00
      0.435  0.0000E+00  0.0000E+00  0.5657E+00  0.5657E+00
      0.618  0.1113E+00  0.1113E+00  0.5700E+00  0.5700E+00
      0.801  0.2261E+00  0.2261E+00  0.5940E+00  0.5940E+00
      0.984  0.2115E+00  0.2115E+00  0.6102E+00  0.6102E+00
      1.167  0.1756E+00  0.1756E+00  0.6462E+00  0.6462E+00
      1.350  0.2623E+00  0.2623E+00  0.6777E+00  0.6777E+00
      1.533  0.1677E+00  0.1677E+00  0.6986E+00  0.6986E+00
      1.717  0.1458E+00  0.1458E+00  0.7268E+00  0.7268E+00
      1.900  0.9599E-01  0.9599E-01  0.7475E+00  0.7475E+00
      2.083  0.9773E-01  0.9773E-01  0.7668E+00  0.7668E+00
      2.266  0.1279E+00  0.1279E+00  0.7737E+00  0.7737E+00
      2.449  0.1749E+00  0.1749E+00  0.7998E+00  0.7998E+00
      2.632  0.1210E+00  0.1210E+00  0.8195E+00  0.8195E+00
      2.815  0.1523E+00  0.1523E+00  0.8355E+00  0.8355E+00
      2.998  0.1605E+00  0.1605E+00  0.8643E+00  0.8643E+00
      3.181  0.7291E-01  0.7291E-01  0.8764E+00  0.8764E+00
      3.364  0.4865E-01  0.4865E-01  0.8855E+00  0.8855E+00
      3.547  0.1022E-02  0.1022E-02  0.8889E+00  0.8889E+00
      3.730  0.0000E+00  0.0000E+00  0.8889E+00  0.8889E+00
      3.913  0.0000E+00  0.0000E+00  0.8889E+00  0.8889E+00
      4.096  0.0000E+00  0.0000E+00  0.8889E+00  0.8889E+00
      4.279  0.0000E+00  0.0000E+00  0.8889E+00  0.8889E+00
      4.462  0.0000E+00  0.0000E+00  0.8889E+00  0.8889E+00
      4.645  0.0000E+00  0.0000E+00  0.8889E+00  0.8889E+00
      4.828  0.0000E+00  0.0000E+00  0.8889E+00  0.8889E+00
      5.011  0.0000E+00  0.0000E+00  0.8889E+00  0.8889E+00
      5.194  0.0000E+00  0.0000E+00  0.8889E+00  0.8889E+00
      5.377  0.1463E-02  0.1463E-02  0.8889E+00  0.8889E+00
      5.560  0.2061E+00  0.2061E+00  0.9097E+00  0.9097E+00
      5.743  0.1337E+00  0.1337E+00  0.9305E+00  0.9305E+00
      5.926  0.3665E+00  0.3665E+00  0.9578E+00  0.9578E+00
      6.109  0.1961E+00  0.1961E+00  0.9866E+00  0.9866E+00
      6.292  0.2075E+00  0.2075E+00  0.1003E+01  0.1003E+01
      6.475  0.2391E+00  0.2391E+00  0.1031E+01  0.1031E+01
      6.658  0.1254E+00  0.1254E+00  0.1051E+01  0.1051E+01
      6.841  0.1484E+00  0.1484E+00  0.1070E+01  0.1070E+01
      7.024  0.1120E+00  0.1120E+00  0.1090E+01  0.1090E+01
      7.207  0.7609E-01  0.7609E-01  0.1110E+01  0.1110E+01
      7.390  0.1259E+00  0.1257E+00  0.1126E+01  0.1126E+01
      7.573  0.4599E-02  0.4599E-02  0.1131E+01  0.1131E+01
      7.756  0.0000E+00  0.0000E+00  0.1131E+01  0.1131E+01
      7.939  0.0000E+00  0.0000E+00  0.1131E+01  0.1131E+01
      8.122  0.0000E+00  0.0000E+00  0.1131E+01  0.1131E+01
      8.305  0.0000E+00  0.0000E+00  0.1131E+01  0.1131E+01
      8.488  0.0000E+00  0.0000E+00  0.1131E+01  0.1131E+01
      8.671  0.0000E+00  0.0000E+00  0.1131E+01  0.1131E+01
      8.854  0.0000E+00  0.0000E+00  0.1131E+01  0.1131E+01
      9.037  0.0000E+00  0.0000E+00  0.1131E+01  0.1131E+01
      9.220  0.0000E+00  0.0000E+00  0.1131E+01  0.1131E+01
      9.403  0.0000E+00  0.0000E+00  0.1131E+01  0.1131E+01
      9.586  0.0000E+00  0.0000E+00  0.1131E+01  0.1131E+01
      9.769  0.0000E+00  0.0000E+00  0.1131E+01  0.1131E+01
      9.952  0.0000E+00  0.0000E+00  0.1131E+01  0.1131E+01
      9.95230919    -44.95308532  301      5.37241682      1.00000000
    -44.953  0.0000E+00  0.0000E+00  0.0000E+00  0.0000E+00  0.0000E+00  0.0000E+00  0.0000E+00  0.0000E+00  0.0000E+00  0.0000E+00  0.0000E+00  0.0000E+00  0.0000E+00  0.0000E+00  0.0000E+00  0.0000E+00  0.0000E+00  0.0000E+00
    -44.770  0.0000E+00  0.0000E+00  0.0000E+00  0.0000E+00  0.0000E+00  0.0000E+00  0.0000E+00  0.0000E+00  0.0000E+00  0.0000E+00  0.0000E+00  0.0000E+00  0.0000E+00  0.0000E+00  0.0000E+00  0.0000E+00  0.0000E+00  0.0000E+00
    -44.587  0.0000E+00  0.0000E+00  0.0000E+00  0.0000E+00  0.0000E+00  0.0000E+00  0.0000E+00  0.0000E+00  0.0000E+00  0.0000E+00  0.0000E+00  0.0000E+00  0.0000E+00  0.0000E+00  0.0000E+00  0.0000E+00  0.0000E+00  0.0000E+00
    -44.404  0.0000E+00  0.0000E+00  0.0000E+00  0.0000E+00  0.0000E+00  0.0000E+00  0.0000E+00  0.0000E+00  0.0000E+00  0.0000E+00  0.0000E+00  0.0000E+00  0.0000E+00  0.0000E+00  0.0000E+00  0.0000E+00  0.0000E+00  0.0000E+00
    -44.221  0.0000E+00  0.0000E+00  0.0000E+00  0.0000E+00  0.0000E+00  0.0000E+00  0.0000E+00  0.0000E+00  0.0000E+00  0.0000E+00  0.0000E+00  0.0000E+00  0.0000E+00  0.0000E+00  0.0000E+00  0.0000E+00  0.0000E+00  0.0000E+00
    -44.038  0.0000E+00  0.0000E+00  0.0000E+00  0.0000E+00  0.0000E+00  0.0000E+00  0.0000E+00  0.0000E+00  0.0000E+00  0.0000E+00  0.0000E+00  0.0000E+00  0.0000E+00  0.0000E+00  0.0000E+00  0.0000E+00  0.0000E+00  0.0000E+00
    -43.855  0.0000E+00  0.0000E+00  0.0000E+00  0.0000E+00  0.0000E+00  0.0000E+00  0.0000E+00  0.0000E+00  0.0000E+00  0.0000E+00  0.0000E+00  0.0000E+00  0.0000E+00  0.0000E+00  0.0000E+00  0.0000E+00  0.0000E+00  0.0000E+00
    -43.672  0.0000E+00  0.0000E+00  0.0000E+00  0.0000E+00  0.0000E+00  0.0000E+00  0.0000E+00  0.0000E+00  0.0000E+00  0.0000E+00  0.0000E+00  0.0000E+00  0.0000E+00  0.0000E+00  0.0000E+00  0.0000E+00  0.0000E+00  0.0000E+00
    -43.489  0.0000E+00  0.0000E+00  0.0000E+00  0.0000E+00  0.0000E+00  0.0000E+00  0.0000E+00  0.0000E+00  0.0000E+00  0.0000E+00  0.0000E+00  0.0000E+00  0.0000E+00  0.0000E+00  0.0000E+00  0.0000E+00  0.0000E+00  0.0000E+00
    -43.306  0.0000E+00  0.0000E+00  0.0000E+00  0.0000E+00  0.0000E+00  0.0000E+00  0.0000E+00  0.0000E+00  0.0000E+00  0.0000E+00  0.0000E+00  0.0000E+00  0.0000E+00  0.0000E+00  0.0000E+00  0.0000E+00  0.0000E+00  0.0000E+00
    -43.123  0.0000E+00  0.0000E+00  0.0000E+00  0.0000E+00  0.0000E+00  0.0000E+00  0.0000E+00  0.0000E+00  0.0000E+00  0.0000E+00  0.0000E+00  0.0000E+00  0.0000E+00  0.0000E+00  0.0000E+00  0.0000E+00  0.0000E+00  0.0000E+00
    -42.940  0.0000E+00  0.0000E+00  0.0000E+00  0.0000E+00  0.0000E+00  0.0000E+00  0.0000E+00  0.0000E+00  0.0000E+00  0.0000E+00  0.0000E+00  0.0000E+00  0.0000E+00  0.0000E+00  0.0000E+00  0.0000E+00  0.0000E+00  0.0000E+00
    -42.757  0.0000E+00  0.0000E+00  0.0000E+00  0.0000E+00  0.0000E+00  0.0000E+00  0.0000E+00  0.0000E+00  0.0000E+00  0.0000E+00  0.0000E+00  0.0000E+00  0.0000E+00  0.0000E+00  0.0000E+00  0.0000E+00  0.0000E+00  0.0000E+00
    -42.574  0.0000E+00  0.0000E+00  0.0000E+00  0.0000E+00  0.0000E+00  0.0000E+00  0.0000E+00  0.0000E+00  0.0000E+00  0.0000E+00  0.0000E+00  0.0000E+00  0.0000E+00  0.0000E+00  0.0000E+00  0.0000E+00  0.0000E+00  0.0000E+00
    -42.391  0.9174E-06  0.9174E-06  0.6311E-08  0.6312E-08  0.8298E-08  0.8298E-08  0.1934E-07  0.1933E-07  0.0000E+00  0.0000E+00  0.0000E+00  0.0000E+00  0.0000E+00  0.0000E+00  0.0000E+00  0.0000E+00  0.0000E+00  0.0000E+00
    -42.208  0.0000E+00  0.0000E+00  0.0000E+00  0.0000E+00  0.0000E+00  0.0000E+00  0.0000E+00  0.0000E+00  0.0000E+00  0.0000E+00  0.0000E+00  0.0000E+00  0.0000E+00  0.0000E+00  0.0000E+00  0.0000E+00  0.0000E+00  0.0000E+00
    -42.025  0.5406E+01  0.5406E+01  0.1334E-04  0.1334E-04  0.1005E-05  0.1004E-05  0.9374E-05  0.9374E-05  0.0000E+00  0.0000E+00  0.0000E+00  0.0000E+00  0.0000E+00  0.0000E+00  0.0000E+00  0.0000E+00  0.0000E+00  0.0000E+00
    -41.842  0.0000E+00  0.0000E+00  0.0000E+00  0.0000E+00  0.0000E+00  0.0000E+00  0.0000E+00  0.0000E+00  0.0000E+00  0.0000E+00  0.0000E+00  0.0000E+00  0.0000E+00  0.0000E+00  0.0000E+00  0.0000E+00  0.0000E+00  0.0000E+00
    -41.659  0.0000E+00  0.0000E+00  0.0000E+00  0.0000E+00  0.0000E+00  0.0000E+00  0.0000E+00  0.0000E+00  0.0000E+00  0.0000E+00  0.0000E+00  0.0000E+00  0.0000E+00  0.0000E+00  0.0000E+00  0.0000E+00  0.0000E+00  0.0000E+00
    -41.476  0.0000E+00  0.0000E+00  0.0000E+00  0.0000E+00  0.0000E+00  0.0000E+00  0.0000E+00  0.0000E+00  0.0000E+00  0.0000E+00  0.0000E+00  0.0000E+00  0.0000E+00  0.0000E+00  0.0000E+00  0.0000E+00  0.0000E+00  0.0000E+00
    -41.293  0.0000E+00  0.0000E+00  0.0000E+00  0.0000E+00  0.0000E+00  0.0000E+00  0.0000E+00  0.0000E+00  0.0000E+00  0.0000E+00  0.0000E+00  0.0000E+00  0.0000E+00  0.0000E+00  0.0000E+00  0.0000E+00  0.0000E+00  0.0000E+00
    -41.110  0.0000E+00  0.0000E+00  0.0000E+00  0.0000E+00  0.0000E+00  0.0000E+00  0.0000E+00  0.0000E+00  0.0000E+00  0.0000E+00  0.0000E+00  0.0000E+00  0.0000E+00  0.0000E+00  0.0000E+00  0.0000E+00  0.0000E+00  0.0000E+00
    -40.927  0.0000E+00  0.0000E+00  0.0000E+00  0.0000E+00  0.0000E+00  0.0000E+00  0.0000E+00  0.0000E+00  0.0000E+00  0.0000E+00  0.0000E+00  0.0000E+00  0.0000E+00  0.0000E+00  0.0000E+00  0.0000E+00  0.0000E+00  0.0000E+00
    -40.744  0.0000E+00  0.0000E+00  0.0000E+00  0.0000E+00  0.0000E+00  0.0000E+00  0.0000E+00  0.0000E+00  0.0000E+00  0.0000E+00  0.0000E+00  0.0000E+00  0.0000E+00  0.0000E+00  0.0000E+00  0.0000E+00  0.0000E+00  0.0000E+00
    -40.561  0.0000E+00  0.0000E+00  0.0000E+00  0.0000E+00  0.0000E+00  0.0000E+00  0.0000E+00  0.0000E+00  0.0000E+00  0.0000E+00  0.0000E+00  0.0000E+00  0.0000E+00  0.0000E+00  0.0000E+00  0.0000E+00  0.0000E+00  0.0000E+00
    -40.378  0.0000E+00  0.0000E+00  0.0000E+00  0.0000E+00  0.0000E+00  0.0000E+00  0.0000E+00  0.0000E+00  0.0000E+00  0.0000E+00  0.0000E+00  0.0000E+00  0.0000E+00  0.0000E+00  0.0000E+00  0.0000E+00  0.0000E+00  0.0000E+00
    -40.195  0.0000E+00  0.0000E+00  0.0000E+00  0.0000E+00  0.0000E+00  0.0000E+00  0.0000E+00  0.0000E+00  0.0000E+00  0.0000E+00  0.0000E+00  0.0000E+00  0.0000E+00  0.0000E+00  0.0000E+00  0.0000E+00  0.0000E+00  0.0000E+00
    -40.012  0.0000E+00  0.0000E+00  0.0000E+00  0.0000E+00  0.0000E+00  0.0000E+00  0.0000E+00  0.0000E+00  0.0000E+00  0.0000E+00  0.0000E+00  0.0000E+00  0.0000E+00  0.0000E+00  0.0000E+00  0.0000E+00  0.0000E+00  0.0000E+00
    -39.829  0.0000E+00  0.0000E+00  0.0000E+00  0.0000E+00  0.0000E+00  0.0000E+00  0.0000E+00  0.0000E+00  0.0000E+00  0.0000E+00  0.0000E+00  0.0000E+00  0.0000E+00  0.0000E+00  0.0000E+00  0.0000E+00  0.0000E+00  0.0000E+00
    -39.646  0.0000E+00  0.0000E+00  0.0000E+00  0.0000E+00  0.0000E+00  0.0000E+00  0.0000E+00  0.0000E+00  0.0000E+00  0.0000E+00  0.0000E+00  0.0000E+00  0.0000E+00  0.0000E+00  0.0000E+00  0.0000E+00  0.0000E+00  0.0000E+00
    -39.463  0.0000E+00  0.0000E+00  0.0000E+00  0.0000E+00  0.0000E+00  0.0000E+00  0.0000E+00  0.0000E+00  0.0000E+00  0.0000E+00  0.0000E+00  0.0000E+00  0.0000E+00  0.0000E+00  0.0000E+00  0.0000E+00  0.0000E+00  0.0000E+00
    -39.280  0.0000E+00  0.0000E+00  0.0000E+00  0.0000E+00  0.0000E+00  0.0000E+00  0.0000E+00  0.0000E+00  0.0000E+00  0.0000E+00  0.0000E+00  0.0000E+00  0.0000E+00  0.0000E+00  0.0000E+00  0.0000E+00  0.0000E+00  0.0000E+00
    -39.097  0.0000E+00  0.0000E+00  0.0000E+00  0.0000E+00  0.0000E+00  0.0000E+00  0.0000E+00  0.0000E+00  0.0000E+00  0.0000E+00  0.0000E+00  0.0000E+00  0.0000E+00  0.0000E+00  0.0000E+00  0.0000E+00  0.0000E+00  0.0000E+00
    -38.913  0.0000E+00  0.0000E+00  0.0000E+00  0.0000E+00  0.0000E+00  0.0000E+00  0.0000E+00  0.0000E+00  0.0000E+00  0.0000E+00  0.0000E+00  0.0000E+00  0.0000E+00  0.0000E+00  0.0000E+00  0.0000E+00  0.0000E+00  0.0000E+00
    -38.730  0.0000E+00  0.0000E+00  0.0000E+00  0.0000E+00  0.0000E+00  0.0000E+00  0.0000E+00  0.0000E+00  0.0000E+00  0.0000E+00  0.0000E+00  0.0000E+00  0.0000E+00  0.0000E+00  0.0000E+00  0.0000E+00  0.0000E+00  0.0000E+00
    -38.547  0.0000E+00  0.0000E+00  0.0000E+00  0.0000E+00  0.0000E+00  0.0000E+00  0.0000E+00  0.0000E+00  0.0000E+00  0.0000E+00  0.0000E+00  0.0000E+00  0.0000E+00  0.0000E+00  0.0000E+00  0.0000E+00  0.0000E+00  0.0000E+00
    -38.364  0.0000E+00  0.0000E+00  0.0000E+00  0.0000E+00  0.0000E+00  0.0000E+00  0.0000E+00  0.0000E+00  0.0000E+00  0.0000E+00  0.0000E+00  0.0000E+00  0.0000E+00  0.0000E+00  0.0000E+00  0.0000E+00  0.0000E+00  0.0000E+00
    -38.181  0.0000E+00  0.0000E+00  0.0000E+00  0.0000E+00  0.0000E+00  0.0000E+00  0.0000E+00  0.0000E+00  0.0000E+00  0.0000E+00  0.0000E+00  0.0000E+00  0.0000E+00  0.0000E+00  0.0000E+00  0.0000E+00  0.0000E+00  0.0000E+00
    -37.998  0.0000E+00  0.0000E+00  0.0000E+00  0.0000E+00  0.0000E+00  0.0000E+00  0.0000E+00  0.0000E+00  0.0000E+00  0.0000E+00  0.0000E+00  0.0000E+00  0.0000E+00  0.0000E+00  0.0000E+00  0.0000E+00  0.0000E+00  0.0000E+00
    -37.815  0.0000E+00  0.0000E+00  0.0000E+00  0.0000E+00  0.0000E+00  0.0000E+00  0.0000E+00  0.0000E+00  0.0000E+00  0.0000E+00  0.0000E+00  0.0000E+00  0.0000E+00  0.0000E+00  0.0000E+00  0.0000E+00  0.0000E+00  0.0000E+00
    -37.632  0.0000E+00  0.0000E+00  0.0000E+00  0.0000E+00  0.0000E+00  0.0000E+00  0.0000E+00  0.0000E+00  0.0000E+00  0.0000E+00  0.0000E+00  0.0000E+00  0.0000E+00  0.0000E+00  0.0000E+00  0.0000E+00  0.0000E+00  0.0000E+00
    -37.449  0.0000E+00  0.0000E+00  0.0000E+00  0.0000E+00  0.0000E+00  0.0000E+00  0.0000E+00  0.0000E+00  0.0000E+00  0.0000E+00  0.0000E+00  0.0000E+00  0.0000E+00  0.0000E+00  0.0000E+00  0.0000E+00  0.0000E+00  0.0000E+00
    -37.266  0.0000E+00  0.0000E+00  0.0000E+00  0.0000E+00  0.0000E+00  0.0000E+00  0.0000E+00  0.0000E+00  0.0000E+00  0.0000E+00  0.0000E+00  0.0000E+00  0.0000E+00  0.0000E+00  0.0000E+00  0.0000E+00  0.0000E+00  0.0000E+00
    -37.083  0.0000E+00  0.0000E+00  0.0000E+00  0.0000E+00  0.0000E+00  0.0000E+00  0.0000E+00  0.0000E+00  0.0000E+00  0.0000E+00  0.0000E+00  0.0000E+00  0.0000E+00  0.0000E+00  0.0000E+00  0.0000E+00  0.0000E+00  0.0000E+00
    -36.900  0.0000E+00  0.0000E+00  0.0000E+00  0.0000E+00  0.0000E+00  0.0000E+00  0.0000E+00  0.0000E+00  0.0000E+00  0.0000E+00  0.0000E+00  0.0000E+00  0.0000E+00  0.0000E+00  0.0000E+00  0.0000E+00  0.0000E+00  0.0000E+00
    -36.717  0.0000E+00  0.0000E+00  0.0000E+00  0.0000E+00  0.0000E+00  0.0000E+00  0.0000E+00  0.0000E+00  0.0000E+00  0.0000E+00  0.0000E+00  0.0000E+00  0.0000E+00  0.0000E+00  0.0000E+00  0.0000E+00  0.0000E+00  0.0000E+00
    -36.534  0.0000E+00  0.0000E+00  0.0000E+00  0.0000E+00  0.0000E+00  0.0000E+00  0.0000E+00  0.0000E+00  0.0000E+00  0.0000E+00  0.0000E+00  0.0000E+00  0.0000E+00  0.0000E+00  0.0000E+00  0.0000E+00  0.0000E+00  0.0000E+00
    -36.351  0.0000E+00  0.0000E+00  0.0000E+00  0.0000E+00  0.0000E+00  0.0000E+00  0.0000E+00  0.0000E+00  0.0000E+00  0.0000E+00  0.0000E+00  0.0000E+00  0.0000E+00  0.0000E+00  0.0000E+00  0.0000E+00  0.0000E+00  0.0000E+00
    -36.168  0.0000E+00  0.0000E+00  0.0000E+00  0.0000E+00  0.0000E+00  0.0000E+00  0.0000E+00  0.0000E+00  0.0000E+00  0.0000E+00  0.0000E+00  0.0000E+00  0.0000E+00  0.0000E+00  0.0000E+00  0.0000E+00  0.0000E+00  0.0000E+00
    -35.985  0.0000E+00  0.0000E+00  0.0000E+00  0.0000E+00  0.0000E+00  0.0000E+00  0.0000E+00  0.0000E+00  0.0000E+00  0.0000E+00  0.0000E+00  0.0000E+00  0.0000E+00  0.0000E+00  0.0000E+00  0.0000E+00  0.0000E+00  0.0000E+00
    -35.802  0.0000E+00  0.0000E+00  0.0000E+00  0.0000E+00  0.0000E+00  0.0000E+00  0.0000E+00  0.0000E+00  0.0000E+00  0.0000E+00  0.0000E+00  0.0000E+00  0.0000E+00  0.0000E+00  0.0000E+00  0.0000E+00  0.0000E+00  0.0000E+00