       N       E                     dE             d eps       ncg     rms          rms(c)
DAV:   1     0.110390385921E+04    0.11039E+04   -0.69000E+04  5376   0.145E+03
DAV:   2    -0.266017798303E+02   -0.11305E+04   -0.10551E+04  6296   0.313E+02
DAV:   3    -0.171651525979E+03   -0.14505E+03   -0.14320E+03  7168   0.104E+02
DAV:   4    -0.188147945686E+03   -0.16496E+02   -0.16418E+02  9704   0.319E+01
DAV:   5    -0.191711293719E+03   -0.35633E+01   -0.35616E+01  8896   0.970E+00    0.264E+01
RMM:   6    -0.189271616008E+03    0.24397E+01   -0.40617E+00  6967   0.442E+00    0.158E+01
RMM:   7    -0.189002442245E+03    0.26917E+00   -0.60611E+00  7084   0.469E+00    0.201E+00
RMM:   8    -0.188918266575E+03    0.84176E-01   -0.10319E+00  7272   0.280E+00    0.668E-01
RMM:   9    -0.188943708536E+03   -0.25442E-01   -0.36692E-01  8985   0.146E+00    0.644E-01
RMM:  10    -0.188954292116E+03   -0.10584E-01   -0.12191E-01  9097   0.854E-01    0.478E-01
RMM:  11    -0.188961011663E+03   -0.67195E-02   -0.68522E-02  8595   0.636E-01    0.183E-01
RMM:  12    -0.188964731222E+03   -0.37196E-02   -0.42166E-02  9190   0.487E-01    0.127E-01
RMM:  13    -0.188967291825E+03   -0.25606E-02   -0.26277E-02  9293   0.390E-01    0.120E-01
RMM:  14    -0.188968969979E+03   -0.16782E-02   -0.16671E-02  9039   0.308E-01    0.528E-02
RMM:  15    -0.188969864333E+03   -0.89435E-03   -0.98121E-03  9215   0.247E-01    0.388E-02
RMM:  16    -0.188970513831E+03   -0.64950E-03   -0.67831E-03  8955   0.199E-01    0.323E-02
RMM:  17    -0.188970909324E+03   -0.39549E-03   -0.41068E-03  8734   0.159E-01    0.275E-02
RMM:  18    -0.188971158946E+03   -0.24962E-03   -0.26429E-03  8732   0.128E-01    0.172E-02
RMM:  19    -0.188971320801E+03   -0.16185E-03   -0.17256E-03  8717   0.105E-01    0.123E-02
RMM:  20    -0.188971429093E+03   -0.10829E-03   -0.11366E-03  8485   0.852E-02    0.558E-03
RMM:  21    -0.188971501515E+03   -0.72422E-04   -0.74039E-04  8173   0.697E-02    0.503E-03
RMM:  22    -0.188971544380E+03   -0.42866E-04   -0.47732E-04  7693   0.579E-02    0.144E-03
RMM:  23    -0.188971576294E+03   -0.31913E-04   -0.30419E-04  6944   0.488E-02    0.423E-03
RMM:  24    -0.188971592797E+03   -0.16503E-04   -0.18374E-04  6215   0.424E-02    0.385E-03
RMM:  25    -0.188971603920E+03   -0.11123E-04   -0.12381E-04  5927   0.384E-02    0.462E-03
RMM:  26    -0.188971609615E+03   -0.56949E-05   -0.75969E-05  5406   0.355E-02
   1 F= -.18897161E+03 E0= -.18897161E+03  d E =-.188972E+03  mag=    -0.0000
       N       E                     dE             d eps       ncg     rms          rms(c)
DAV:   1    -0.188973298315E+03   -0.16944E-02   -0.53933E-02  6328   0.663E-01    0.167E-01
RMM:   2    -0.188972679487E+03    0.61883E-03   -0.24250E-03  7159   0.149E-01    0.854E-02
RMM:   3    -0.188972501986E+03    0.17750E-03   -0.15721E-03  7470   0.968E-02    0.336E-02
RMM:   4    -0.188972541572E+03   -0.39586E-04   -0.38481E-04  8028   0.516E-02    0.294E-02
RMM:   5    -0.188972555160E+03   -0.13588E-04   -0.92216E-05  7227   0.307E-02    0.140E-02
RMM:   6    -0.188972556214E+03   -0.10534E-05   -0.67889E-06  4102   0.223E-02
   2 F= -.18897256E+03 E0= -.18897256E+03  d E =-.946599E-03  mag=     0.0000
       N       E                     dE             d eps       ncg     rms          rms(c)
DAV:   1    -0.188975301551E+03   -0.27464E-02   -0.18765E-01  6352   0.125E+00    0.311E-01
RMM:   2    -0.188973253886E+03    0.20477E-02   -0.80993E-03  7138   0.269E-01    0.163E-01
RMM:   3    -0.188972669499E+03    0.58439E-03   -0.52921E-03  7331   0.179E-01    0.648E-02
RMM:   4    -0.188972815769E+03   -0.14627E-03   -0.15860E-03  8448   0.985E-02    0.595E-02
RMM:   5    -0.188972867113E+03   -0.51344E-04   -0.51228E-04  8715   0.601E-02    0.303E-02
RMM:   6    -0.188972889594E+03   -0.22482E-04   -0.29301E-04  7911   0.401E-02    0.135E-02
RMM:   7    -0.188972902823E+03   -0.13228E-04   -0.11300E-04  5545   0.312E-02    0.370E-03
RMM:   8    -0.188972908388E+03   -0.55651E-05   -0.57627E-05  5531   0.274E-02
   3 F= -.18897291E+03 E0= -.18897291E+03  d E =-.129877E-02  mag=     0.0000
       N       E                     dE             d eps       ncg     rms          rms(c)
DAV:   1    -0.188973742138E+03   -0.83932E-03   -0.33913E-02  6336   0.492E-01    0.184E-01
RMM:   2    -0.188973700098E+03    0.42040E-04   -0.24804E-03  7096   0.140E-01    0.838E-02
RMM:   3    -0.188973655831E+03    0.44267E-04   -0.82027E-04  7450   0.791E-02    0.413E-02
RMM:   4    -0.188973657785E+03   -0.19542E-05   -0.27324E-04  7788   0.440E-02    0.320E-02
RMM:   5    -0.188973652954E+03    0.48314E-05   -0.76204E-05  7182   0.250E-02
   4 F= -.18897365E+03 E0= -.18897365E+03  d E =-.744566E-03  mag=    -0.0000
       N       E                     dE             d eps       ncg     rms          rms(c)
DAV:   1    -0.188973669417E+03   -0.11632E-04   -0.26761E-04  7672   0.370E-02    0.134E-02
RMM:   2    -0.188973668136E+03    0.12811E-05   -0.14854E-05  3413   0.106E-02
   5 F= -.18897367E+03 E0= -.18897367E+03  d E =-.759748E-03  mag=    -0.0000
       N       E                     dE             d eps       ncg     rms          rms(c)
DAV:   1    -0.188973792835E+03   -0.12342E-03   -0.76325E-03  5896   0.271E-01    0.399E-02
RMM:   2    -0.188973802164E+03   -0.93286E-05   -0.24483E-04  6964   0.488E-02    0.152E-02
RMM:   3    -0.188973805264E+03   -0.31008E-05   -0.89256E-05  6931   0.278E-02
   6 F= -.18897381E+03 E0= -.18897381E+03  d E =-.137128E-03  mag=    -0.0000
       N       E                     dE             d eps       ncg     rms          rms(c)
DAV:   1    -0.188973897302E+03   -0.95139E-04   -0.24549E-02  5760   0.486E-01    0.686E-02
RMM:   2    -0.188973931120E+03   -0.33818E-04   -0.77998E-04  7063   0.889E-02    0.267E-02
RMM:   3    -0.188973947043E+03   -0.15923E-04   -0.31300E-04  7985   0.526E-02    0.164E-02
RMM:   4    -0.188973948836E+03   -0.17934E-05   -0.25037E-05  5104   0.278E-02
   7 F= -.18897395E+03 E0= -.18897395E+03  d E =-.280700E-03  mag=    -0.0000
       N       E                     dE             d eps       ncg     rms          rms(c)
DAV:   1    -0.188974082751E+03   -0.13571E-03   -0.12621E-02  5760   0.347E-01    0.449E-02
RMM:   2    -0.188974103221E+03   -0.20470E-04   -0.40834E-04  7176   0.634E-02    0.169E-02
RMM:   3    -0.188974117298E+03   -0.14077E-04   -0.20382E-04  8058   0.408E-02    0.122E-02
RMM:   4    -0.188974117413E+03   -0.11501E-06    0.48334E-09  3647   0.237E-02
   8 F= -.18897412E+03 E0= -.18897412E+03  d E =-.168577E-03  mag=     0.0000
       N       E                     dE             d eps       ncg     rms          rms(c)
DAV:   1    -0.188974046530E+03    0.70768E-04   -0.11381E-01  5760   0.104E+00    0.133E-01
RMM:   2    -0.188974209387E+03   -0.16286E-03   -0.31998E-03  7020   0.181E-01    0.499E-02
RMM:   3    -0.188974291975E+03   -0.82588E-04   -0.13434E-03  8173   0.107E-01    0.342E-02
RMM:   4    -0.188974326878E+03   -0.34903E-04   -0.41229E-04  9023   0.574E-02    0.265E-02
RMM:   5    -0.188974341734E+03   -0.14856E-04   -0.15136E-04  5901   0.338E-02    0.956E-03
RMM:   6    -0.188974348227E+03   -0.64932E-05   -0.61705E-05  5613   0.275E-02
   9 F= -.18897435E+03 E0= -.18897435E+03  d E =-.399391E-03  mag=     0.0000
       N       E                     dE             d eps       ncg     rms          rms(c)
DAV:   1    -0.188974415990E+03   -0.74256E-04   -0.52349E-03  6256   0.223E-01    0.211E-02
RMM:   2    -0.188974434389E+03   -0.18398E-04   -0.20290E-04  7676   0.420E-02    0.804E-03
RMM:   3    -0.188974434815E+03   -0.42616E-06   -0.73585E-06  4239   0.286E-02
  10 F= -.18897443E+03 E0= -.18897443E+03  d E =-.865877E-04  mag=     0.0000
       N       E                     dE             d eps       ncg     rms          rms(c)
DAV:   1    -0.188974477776E+03   -0.43387E-04   -0.46988E-02  5760   0.669E-01    0.583E-02
RMM:   2    -0.188974574461E+03   -0.96686E-04   -0.11553E-03  7101   0.109E-01    0.228E-02
RMM:   3    -0.188974620534E+03   -0.46073E-04   -0.50974E-04  8278   0.664E-02    0.201E-02
RMM:   4    -0.188974627919E+03   -0.73847E-05   -0.11382E-04  6050   0.372E-02    0.139E-02
RMM:   5    -0.188974631627E+03   -0.37086E-05   -0.64237E-05  5641   0.293E-02
  11 F= -.18897463E+03 E0= -.18897463E+03  d E =-.283400E-03  mag=     0.0000
       N       E                     dE             d eps       ncg     rms          rms(c)
DAV:   1    -0.188974724482E+03   -0.96563E-04   -0.99090E-04  6688   0.807E-02    0.280E-02
RMM:   2    -0.188974729475E+03   -0.49930E-05   -0.96834E-05  6542   0.285E-02
  12 F= -.18897473E+03 E0= -.18897473E+03  d E =-.978477E-04  mag=     0.0000
       N       E                     dE             d eps       ncg     rms          rms(c)
DAV:   1    -0.188974822385E+03   -0.97903E-04   -0.71782E-03  5760   0.228E-01    0.767E-02
RMM:   2    -0.188974834402E+03   -0.12017E-04   -0.52940E-04  7066   0.663E-02    0.289E-02
RMM:   3    -0.188974832204E+03    0.21983E-05   -0.16964E-04  7086   0.370E-02    0.168E-02
RMM:   4    -0.188974829628E+03    0.25754E-05   -0.34075E-05  5845   0.212E-02
  13 F= -.18897483E+03 E0= -.18897483E+03  d E =-.198001E-03  mag=     0.0000
       N       E                     dE             d eps       ncg     rms          rms(c)
DAV:   1    -0.188974868889E+03   -0.36685E-04   -0.17323E-03  5928   0.122E-01    0.166E-02
RMM:   2    -0.188974875339E+03   -0.64496E-05   -0.74488E-05  6809   0.259E-02
  14 F= -.18897488E+03 E0= -.18897488E+03  d E =-.457104E-04  mag=     0.0000
       N       E                     dE             d eps       ncg     rms          rms(c)
DAV:   1    -0.188974925880E+03   -0.56991E-04   -0.86531E-03  5760   0.275E-01    0.363E-02
RMM:   2    -0.188974945835E+03   -0.19955E-04   -0.29318E-04  6903   0.534E-02    0.124E-02
RMM:   3    -0.188974954971E+03   -0.91362E-05   -0.12319E-04  7318   0.327E-02    0.120E-02
RMM:   4    -0.188974953713E+03    0.12582E-05   -0.23174E-06  3469   0.189E-02
  15 F= -.18897495E+03 E0= -.18897495E+03  d E =-.124085E-03  mag=     0.0000
       N       E                     dE             d eps       ncg     rms          rms(c)
DAV:   1    -0.188975013229E+03   -0.58258E-04   -0.33719E-03  5760   0.173E-01    0.286E-02
RMM:   2    -0.188975017584E+03   -0.43546E-05   -0.13934E-04  7214   0.353E-02    0.123E-02
RMM:   3    -0.188975014741E+03    0.28426E-05   -0.15398E-05  4636   0.236E-02
  16 F= -.18897501E+03 E0= -.18897501E+03  d E =-.610280E-04  mag=     0.0000
       N       E                     dE             d eps       ncg     rms          rms(c)
DAV:   1    -0.188975047257E+03   -0.29673E-04   -0.30086E-02  5672   0.516E-01    0.815E-02
RMM:   2    -0.188975068774E+03   -0.21517E-04   -0.96636E-04  6969   0.976E-02    0.351E-02
RMM:   3    -0.188975082151E+03   -0.13377E-04   -0.44129E-04  7904   0.609E-02    0.189E-02
RMM:   4    -0.188975085191E+03   -0.30403E-05   -0.11211E-04  6914   0.343E-02    0.125E-02
RMM:   5    -0.188975083433E+03    0.17577E-05   -0.33829E-05  4504   0.233E-02
  17 F= -.18897508E+03 E0= -.18897508E+03  d E =-.129720E-03  mag=     0.0000
       N       E                     dE             d eps       ncg     rms          rms(c)
DAV:   1    -0.188975114348E+03   -0.29157E-04   -0.16713E-03  6216   0.121E-01    0.125E-02
RMM:   2    -0.188975121377E+03   -0.70291E-05   -0.76754E-05  6758   0.267E-02
  18 F= -.18897512E+03 E0= -.18897512E+03  d E =-.379435E-04  mag=    -0.0000
       N       E                     dE             d eps       ncg     rms          rms(c)
DAV:   1    -0.188975154404E+03   -0.40056E-04   -0.14806E-02  5664   0.365E-01    0.323E-02
RMM:   2    -0.188975187880E+03   -0.33476E-04   -0.40199E-04  7115   0.621E-02    0.124E-02
RMM:   3    -0.188975203545E+03   -0.15666E-04   -0.17453E-04  7476   0.391E-02    0.106E-02
RMM:   4    -0.188975201955E+03    0.15906E-05   -0.35760E-06  3717   0.233E-02
  19 F= -.18897520E+03 E0= -.18897520E+03  d E =-.118521E-03  mag=    -0.0000
       N       E                     dE             d eps       ncg     rms          rms(c)
DAV:   1    -0.188975252820E+03   -0.49275E-04   -0.61979E-04  6792   0.674E-02    0.197E-02
RMM:   2    -0.188975255418E+03   -0.25974E-05   -0.49006E-05  6275   0.206E-02
  20 F= -.18897526E+03 E0= -.18897526E+03  d E =-.534630E-04  mag=     0.0000
       N       E                     dE             d eps       ncg     rms          rms(c)
DAV:   1    -0.188975298428E+03   -0.45608E-04   -0.43614E-03  5664   0.192E-01    0.516E-02
RMM:   2    -0.188975310410E+03   -0.11982E-04   -0.25593E-04  6839   0.476E-02    0.196E-02
RMM:   3    -0.188975313320E+03   -0.29104E-05   -0.91691E-05  6971   0.283E-02
  21 F= -.18897531E+03 E0= -.18897531E+03  d E =-.111366E-03  mag=     0.0000
