unknown system                          
           1
     7.628682    0.000000    0.000000
     0.000000    9.847875    0.000000
     0.000000    0.000000   10.597250
   Li   P 
    12    28
Direct configuration=     1
   0.85053200  0.30784800  0.81605000
   0.35053200  0.19215200  0.18395000
   0.14946800  0.80784800  0.68395000
   0.64946800  0.69215200  0.31605000
   0.56894900  0.02595000  0.01479500
   0.06894900  0.47405000  0.98520500
   0.43105100  0.52595000  0.48520500
   0.93105100  0.97405000  0.51479500
   0.40223800  0.30137100  0.69212400
   0.90223800  0.19862900  0.30787600
   0.59776200  0.80137100  0.80787600
   0.09776200  0.69862900  0.19212400
   0.28076800  0.87549100  0.31884800
   0.78076800  0.62450900  0.68115200
   0.71923200  0.37549100  0.18115200
   0.21923200  0.12450900  0.81884800
   0.63764600  0.04852200  0.38740200
   0.13764600  0.45147800  0.61259800
   0.36235400  0.54852200  0.11259800
   0.86235400  0.95147800  0.88740200
   0.53379700  0.94352800  0.56513200
   0.03379700  0.55647200  0.43486800
   0.46620300  0.44352800  0.93486800
   0.96620300  0.05647200  0.06513200
   0.40605300  0.13484100  0.49428800
   0.90605300  0.36515900  0.50571200
   0.59394700  0.63484100  0.00571200
   0.09394700  0.86515900  0.99428800
   0.31626500  0.92702700  0.88129000
   0.81626500  0.57297300  0.11871000
   0.68373500  0.42702700  0.61871000
   0.18373500  0.07297300  0.38129000
   0.12872500  0.21803100  0.99461700
   0.62872500  0.28196900  0.00538300
   0.87127500  0.71803100  0.50538300
   0.37127500  0.78196900  0.49461700
   0.96649300  0.07050300  0.73419200
   0.46649300  0.42949700  0.26580800
   0.03350700  0.57050300  0.76580800
   0.53350700  0.92949700  0.23419200
unknown system                          
           1
     7.625587    0.000000    0.000000
     0.000000    9.843279    0.000000
     0.000000    0.000000   10.590286
   Li   P 
    12    28
Direct configuration=     2
   0.85050519  0.30780433  0.81607546
   0.35050519  0.19219567  0.18392454
   0.14949481  0.80780433  0.68392454
   0.64949481  0.69219567  0.31607546
   0.56890240  0.02597376  0.01483809
   0.06890240  0.47402624  0.98516191
   0.43109760  0.52597376  0.48516191
   0.93109760  0.97402624  0.51483809
   0.40220855  0.30133329  0.69205812
   0.90220855  0.19866671  0.30794188
   0.59779145  0.80133329  0.80794188
   0.09779145  0.69866671  0.19205812
   0.28070654  0.87544106  0.31879701
   0.78070654  0.62455894  0.68120299
   0.71929346  0.37544106  0.18120299
   0.21929346  0.12455894  0.81879701
   0.63765816  0.04852078  0.38742871
   0.13765816  0.45147922  0.61257129
   0.36234184  0.54852078  0.11257129
   0.86234184  0.95147922  0.88742871
   0.53378705  0.94349269  0.56514600
   0.03378705  0.55650731  0.43485400
   0.46621295  0.44349269  0.93485400
   0.96621295  0.05650731  0.06514600
   0.40605881  0.13478529  0.49436325
   0.90605881  0.36521471  0.50563675
   0.59394119  0.63478529  0.00563675
   0.09394119  0.86521471  0.99436325
   0.31639115  0.92704328  0.88128453
   0.81639115  0.57295672  0.11871547
   0.68360885  0.42704328  0.61871547
   0.18360885  0.07295672  0.38128453
   0.12876752  0.21812006  0.99464038
   0.62876752  0.28187994  0.00535962
   0.87123248  0.71812006  0.50535962
   0.37123248  0.78187994  0.49464038
   0.96643984  0.07055180  0.73412231
   0.46643984  0.42944820  0.26587769
   0.03356016  0.57055180  0.76587769
   0.53356016  0.92944820  0.23412231
unknown system                          
           1
     7.619745    0.000000    0.000000
     0.000000    9.834604    0.000000
     0.000000    0.000000   10.577143
   Li   P 
    12    28
Direct configuration=     3
   0.85045457  0.30772187  0.81612355
   0.35045457  0.19227813  0.18387645
   0.14954543  0.80772187  0.68387645
   0.64954543  0.69227813  0.31612355
   0.56881440  0.02601862  0.01491947
   0.06881440  0.47398138  0.98508053
   0.43118560  0.52601862  0.48508053
   0.93118560  0.97398138  0.51491947
   0.40215295  0.30126208  0.69193369
   0.90215295  0.19873792  0.30806631
   0.59784705  0.80126208  0.80806631
   0.09784705  0.69873792  0.19193369
   0.28059049  0.87534675  0.31870069
   0.78059049  0.62465325  0.68129931
   0.71940951  0.37534675  0.18129931
   0.21940951  0.12465325  0.81870069
   0.63768113  0.04851848  0.38747915
   0.13768113  0.45148152  0.61252085
   0.36231887  0.54851848  0.11252085
   0.86231887  0.95148152  0.88747915
   0.53376825  0.94342602  0.56517245
   0.03376825  0.55657398  0.43482755
   0.46623175  0.44342602  0.93482755
   0.96623175  0.05657398  0.06517245
   0.40606978  0.13468008  0.49450537
   0.90606978  0.36531992  0.50549463
   0.59393022  0.63468008  0.00549463
   0.09393022  0.86531992  0.99450537
   0.31662936  0.92707401  0.88127419
   0.81662936  0.57292599  0.11872581
   0.68337064  0.42707401  0.61872581
   0.18337064  0.07292599  0.38127419
   0.12884782  0.21828825  0.99468454
   0.62884782  0.28171175  0.00531546
   0.87115218  0.71828825  0.50531546
   0.37115218  0.78171175  0.49468454
   0.96633946  0.07064397  0.73399068
   0.46633946  0.42935603  0.26600932
   0.03366054  0.57064397  0.76600932
   0.53366054  0.92935603  0.23399068
unknown system                          
           1
     7.622214    0.000000    0.000000
     0.000000    9.839548    0.000000
     0.000000    0.000000   10.581001
   Li   P 
    12    28
Direct configuration=     4
   0.85044148  0.30770443  0.81613281
   0.35044148  0.19229557  0.18386719
   0.14955852  0.80770443  0.68386719
   0.64955852  0.69229557  0.31613281
   0.56880008  0.02602988  0.01493362
   0.06880008  0.47397012  0.98506638
   0.43119992  0.52602988  0.48506638
   0.93119992  0.97397012  0.51493362
   0.40214598  0.30124575  0.69189479
   0.90214598  0.19875425  0.30810521
   0.59785402  0.80124575  0.80810521
   0.09785402  0.69875425  0.19189479
   0.28055108  0.87530668  0.31864067
   0.78055108  0.62469332  0.68135933
   0.71944892  0.37530668  0.18135933
   0.21944892  0.12469332  0.81864067
   0.63777408  0.04853670  0.38744270
   0.13777408  0.45146330  0.61255730
   0.36222592  0.54853670  0.11255730
   0.86222592  0.95146330  0.88744270
   0.53384192  0.94334299  0.56530924
   0.03384192  0.55665701  0.43469076
   0.46615808  0.44334299  0.93469076
   0.96615808  0.05665701  0.06530924
   0.40595694  0.13475893  0.49454725
   0.90595694  0.36524107  0.50545275
   0.59404306  0.63475893  0.00545275
   0.09404306  0.86524107  0.99454725
   0.31667685  0.92705853  0.88127114
   0.81667685  0.57294147  0.11872886
   0.68332315  0.42705853  0.61872886
   0.18332315  0.07294147  0.38127114
   0.12889655  0.21839468  0.99469919
   0.62889655  0.28160532  0.00530081
   0.87110345  0.71839468  0.50530081
   0.37110345  0.78160532  0.49469919
   0.96632453  0.07069003  0.73391569
   0.46632453  0.42930997  0.26608431
   0.03367547  0.57069003  0.76608431
   0.53367547  0.92930997  0.23391569
unknown system                          
           1
     7.622053    0.000000    0.000000
     0.000000    9.839225    0.000000
     0.000000    0.000000   10.580749
   Li   P 
    12    28
Direct configuration=     5
   0.85044233  0.30770556  0.81613221
   0.35044233  0.19229444  0.18386779
   0.14955767  0.80770556  0.68386779
   0.64955767  0.69229444  0.31613221
   0.56880101  0.02602915  0.01493270
   0.06880101  0.47397085  0.98506730
   0.43119899  0.52602915  0.48506730
   0.93119899  0.97397085  0.51493270
   0.40214643  0.30124682  0.69189733
   0.90214643  0.19875318  0.30810267
   0.59785357  0.80124682  0.80810267
   0.09785357  0.69875318  0.19189733
   0.28055365  0.87530929  0.31864459
   0.78055365  0.62469071  0.68135541
   0.71944635  0.37530929  0.18135541
   0.21944635  0.12469071  0.81864459
   0.63776800  0.04853551  0.38744508
   0.13776800  0.45146449  0.61255492
   0.36223200  0.54853551  0.11255492
   0.86223200  0.95146449  0.88744508
   0.53383711  0.94334841  0.56530030
   0.03383711  0.55665159  0.43469970
   0.46616289  0.44334841  0.93469970
   0.96616289  0.05665159  0.06530030
   0.40596431  0.13475378  0.49454451
   0.90596431  0.36524622  0.50545549
   0.59403569  0.63475378  0.00545549
   0.09403569  0.86524622  0.99454451
   0.31667375  0.92705954  0.88127134
   0.81667375  0.57294046  0.11872866
   0.68332625  0.42705954  0.61872866
   0.18332625  0.07294046  0.38127134
   0.12889337  0.21838773  0.99469823
   0.62889337  0.28161227  0.00530177
   0.87110663  0.71838773  0.50530177
   0.37110663  0.78161227  0.49469823
   0.96632550  0.07068702  0.73392059
   0.46632550  0.42931298  0.26607941
   0.03367450  0.57068702  0.76607941
   0.53367450  0.92931298  0.23392059
unknown system                          
           1
     7.621448    0.000000    0.000000
     0.000000    9.839256    0.000000
     0.000000    0.000000   10.579710
   Li   P 
    12    28
Direct configuration=     6
   0.85042832  0.30768642  0.81614120
   0.35042832  0.19231358  0.18385880
   0.14957168  0.80768642  0.68385880
   0.64957168  0.69231358  0.31614120
   0.56878388  0.02604084  0.01494426
   0.06878388  0.47395916  0.98505574
   0.43121612  0.52604084  0.48505574
   0.93121612  0.97395916  0.51494426
   0.40214155  0.30123126  0.69185534
   0.90214155  0.19876874  0.30814466
   0.59785845  0.80123126  0.80814466
   0.09785845  0.69876874  0.19185534
   0.28056035  0.87530267  0.31862949
   0.78056035  0.62469733  0.68137051
   0.71943965  0.37530267  0.18137051
   0.21943965  0.12469733  0.81862949
   0.63774983  0.04851366  0.38743374
   0.13774983  0.45148634  0.61256626
   0.36225017  0.54851366  0.11256626
   0.86225017  0.95148634  0.88743374
   0.53383822  0.94328775  0.56534563
   0.03383822  0.55671225  0.43465437
   0.46616178  0.44328775  0.93465437
   0.96616178  0.05671225  0.06534563
   0.40591044  0.13472451  0.49455691
   0.90591044  0.36527549  0.50544309
   0.59408956  0.63472451  0.00544309
   0.09408956  0.86527549  0.99455691
   0.31667182  0.92708154  0.88127169
   0.81667182  0.57291846  0.11872831
   0.68332818  0.42708154  0.61872831
   0.18332818  0.07291846  0.38127169
   0.12890596  0.21841048  0.99469314
   0.62890596  0.28158952  0.00530686
   0.87109404  0.71841048  0.50530686
   0.37109404  0.78158952  0.49469314
   0.96632490  0.07070962  0.73391271
   0.46632490  0.42929038  0.26608729
   0.03367510  0.57070962  0.76608729
   0.53367510  0.92929038  0.23391271
unknown system                          
           1
     7.620366    0.000000    0.000000
     0.000000    9.839310    0.000000
     0.000000    0.000000   10.577850
   Li   P 
    12    28
Direct configuration=     7
   0.85040325  0.30765217  0.81615728
   0.35040325  0.19234783  0.18384272
   0.14959675  0.80765217  0.68384272
   0.64959675  0.69234783  0.31615728
   0.56875321  0.02606177  0.01496495
   0.06875321  0.47393823  0.98503505
   0.43124679  0.52606177  0.48503505
   0.93124679  0.97393823  0.51496495
   0.40213281  0.30120343  0.69178019
   0.90213281  0.19879657  0.30821981
   0.59786719  0.80120343  0.80821981
   0.09786719  0.69879657  0.19178019
   0.28057234  0.87529083  0.31860246
   0.78057234  0.62470917  0.68139754
   0.71942766  0.37529083  0.18139754
   0.21942766  0.12470917  0.81860246
   0.63771730  0.04847457  0.38741344
   0.13771730  0.45152543  0.61258656
   0.36228270  0.54847457  0.11258656
   0.86228270  0.95152543  0.88741344
   0.53384022  0.94317922  0.56542673
   0.03384022  0.55682078  0.43457327
   0.46615978  0.44317922  0.93457327
   0.96615978  0.05682078  0.06542673
   0.40581404  0.13467214  0.49457909
   0.90581404  0.36532786  0.50542091
   0.59418596  0.63467214  0.00542091
   0.09418596  0.86532786  0.99457909
   0.31666836  0.92712089  0.88127231
   0.81666836  0.57287911  0.11872769
   0.68333164  0.42712089  0.61872769
   0.18333164  0.07287911  0.38127231
   0.12892850  0.21845118  0.99468404
   0.62892850  0.28154882  0.00531596
   0.87107150  0.71845118  0.50531596
   0.37107150  0.78154882  0.49468404
   0.96632383  0.07075006  0.73389863
   0.46632383  0.42924994  0.26610137
   0.03367617  0.57075006  0.76610137
   0.53367617  0.92924994  0.23389863
unknown system                          
           1
     7.620232    0.000000    0.000000
     0.000000    9.839224    0.000000
     0.000000    0.000000   10.576136
   Li   P 
    12    28
Direct configuration=     8
   0.85038507  0.30762454  0.81616712
   0.35038507  0.19237546  0.18383288
   0.14961493  0.80762454  0.68383288
   0.64961493  0.69237546  0.31616712
   0.56873590  0.02607799  0.01497555
   0.06873590  0.47392201  0.98502445
   0.43126410  0.52607799  0.48502445
   0.93126410  0.97392201  0.51497555
   0.40212372  0.30118873  0.69172137
   0.90212372  0.19881127  0.30827863
   0.59787628  0.80118873  0.80827863
   0.09787628  0.69881127  0.19172137
   0.28055457  0.87526778  0.31858811
   0.78055457  0.62473222  0.68141189
   0.71944543  0.37526778  0.18141189
   0.21944543  0.12473222  0.81858811
   0.63768453  0.04844790  0.38744397
   0.13768453  0.45155210  0.61255603
   0.36231547  0.54844790  0.11255603
   0.86231547  0.95155210  0.88744397
   0.53381899  0.94315457  0.56543573
   0.03381899  0.55684543  0.43456427
   0.46618101  0.44315457  0.93456427
   0.96618101  0.05684543  0.06543573
   0.40582422  0.13459441  0.49461242
   0.90582422  0.36540559  0.50538758
   0.59417578  0.63459441  0.00538758
   0.09417578  0.86540559  0.99461242
   0.31670709  0.92715254  0.88126352
   0.81670709  0.57284746  0.11873648
   0.68329291  0.42715254  0.61873648
   0.18329291  0.07284746  0.38126352
   0.12893780  0.21847759  0.99467967
   0.62893780  0.28152241  0.00532033
   0.87106220  0.71847759  0.50532033
   0.37106220  0.78152241  0.49467967
   0.96630338  0.07078018  0.73388518
   0.46630338  0.42921982  0.26611482
   0.03369662  0.57078018  0.76611482
   0.53369662  0.92921982  0.23388518
unknown system                          
           1
     7.619830    0.000000    0.000000
     0.000000    9.838966    0.000000
     0.000000    0.000000   10.570996
   Li   P 
    12    28
Direct configuration=     9
   0.85033053  0.30754164  0.81619663
   0.35033053  0.19245836  0.18380337
   0.14966947  0.80754164  0.68380337
   0.64966947  0.69245836  0.31619663
   0.56868397  0.02612665  0.01500737
   0.06868397  0.47387335  0.98499263
   0.43131603  0.52612665  0.48499263
   0.93131603  0.97387335  0.51500737
   0.40209645  0.30114464  0.69154491
   0.90209645  0.19885536  0.30845509
   0.59790355  0.80114464  0.80845509
   0.09790355  0.69885536  0.19154491
   0.28050128  0.87519862  0.31854507
   0.78050128  0.62480138  0.68145493
   0.71949872  0.37519862  0.18145493
   0.21949872  0.12480138  0.81854507
   0.63758620  0.04836788  0.38753558
   0.13758620  0.45163212  0.61246442
   0.36241380  0.54836788  0.11246442
   0.86241380  0.95163212  0.88753558
   0.53375529  0.94308061  0.56546273
   0.03375529  0.55691939  0.43453727
   0.46624471  0.44308061  0.93453727
   0.96624471  0.05691939  0.06546273
   0.40585475  0.13436123  0.49471241
   0.90585475  0.36563877  0.50528759
   0.59414525  0.63436123  0.00528759
   0.09414525  0.86563877  0.99471241
   0.31682327  0.92724748  0.88123713
   0.81682327  0.57275252  0.11876287
   0.68317673  0.42724748  0.61876287
   0.18317673  0.07275252  0.38123713
   0.12896570  0.21855682  0.99466656
   0.62896570  0.28144318  0.00533344
   0.87103430  0.71855682  0.50533344
   0.37103430  0.78144318  0.49466656
   0.96624202  0.07087052  0.73384482
   0.46624202  0.42912948  0.26615518
   0.03375798  0.57087052  0.76615518
   0.53375798  0.92912948  0.23384482
unknown system                          
           1
     7.619991    0.000000    0.000000
     0.000000    9.839540    0.000000
     0.000000    0.000000   10.570480
   Li   P 
    12    28
Direct configuration=    10
   0.85031832  0.30752393  0.81620243
   0.35031832  0.19247607  0.18379757
   0.14968168  0.80752393  0.68379757
   0.64968168  0.69247607  0.31620243
   0.56867508  0.02613752  0.01501339
   0.06867508  0.47386248  0.98498661
   0.43132492  0.52613752  0.48498661
   0.93132492  0.97386248  0.51501339
   0.40208941  0.30113618  0.69150449
   0.90208941  0.19886382  0.30849551
   0.59791059  0.80113618  0.80849551
   0.09791059  0.69886382  0.19150449
   0.28049324  0.87518309  0.31853040
   0.78049324  0.62481691  0.68146960
   0.71950676  0.37518309  0.18146960
   0.21950676  0.12481691  0.81853040
   0.63758156  0.04835126  0.38754833
   0.13758156  0.45164874  0.61245167
   0.36241844  0.54835126  0.11245167
   0.86241844  0.95164874  0.88754833
   0.53374655  0.94305383  0.56548067
   0.03374655  0.55694617  0.43451933
   0.46625345  0.44305383  0.93451933
   0.96625345  0.05694617  0.06548067
   0.40584189  0.13432362  0.49473305
   0.90584189  0.36567638  0.50526695
   0.59415811  0.63432362  0.00526695
   0.09415811  0.86567638  0.99473305
   0.31684069  0.92726621  0.88123264
   0.81684069  0.57273379  0.11876736
   0.68315931  0.42726621  0.61876736
   0.18315931  0.07273379  0.38123264
   0.12897389  0.21857931  0.99466548
   0.62897389  0.28142069  0.00533452
   0.87102611  0.71857931  0.50533452
   0.37102611  0.78142069  0.49466548
   0.96623520  0.07089130  0.73383538
   0.46623520  0.42910870  0.26616462
   0.03376480  0.57089130  0.76616462
   0.53376480  0.92910870  0.23383538
unknown system                          
           1
     7.620476    0.000000    0.000000
     0.000000    9.841262    0.000000
     0.000000    0.000000   10.568934
   Li   P 
    12    28
Direct configuration=    11
   0.85028169  0.30747083  0.81621981
   0.35028169  0.19252917  0.18378019
   0.14971831  0.80747083  0.68378019
   0.64971831  0.69252917  0.31621981
   0.56864842  0.02617014  0.01503145
   0.06864842  0.47382986  0.98496855
   0.43135158  0.52617014  0.48496855
   0.93135158  0.97382986  0.51503145
   0.40206828  0.30111082  0.69138325
   0.90206828  0.19888918  0.30861675
   0.59793172  0.80111082  0.80861675
   0.09793172  0.69888918  0.19138325
   0.28046913  0.87513651  0.31848637
   0.78046913  0.62486349  0.68151363
   0.71953087  0.37513651  0.18151363
   0.21953087  0.12486349  0.81848637
   0.63756763  0.04830138  0.38758659
   0.13756763  0.45169862  0.61241341
   0.36243237  0.54830138  0.11241341
   0.86243237  0.95169862  0.88758659
   0.53372034  0.94297350  0.56553449
   0.03372034  0.55702650  0.43446551
   0.46627966  0.44297350  0.93446551
   0.96627966  0.05702650  0.06553449
   0.40580330  0.13421078  0.49479496
   0.90580330  0.36578922  0.50520504
   0.59419670  0.63421078  0.00520504
   0.09419670  0.86578922  0.99479496
   0.31689295  0.92732239  0.88121917
   0.81689295  0.57267761  0.11878083
   0.68310705  0.42732239  0.61878083
   0.18310705  0.07267761  0.38121917
   0.12899845  0.21864680  0.99466224
   0.62899845  0.28135320  0.00533776
   0.87100155  0.71864680  0.50533776
   0.37100155  0.78135320  0.49466224
   0.96621474  0.07095363  0.73380706
   0.46621474  0.42904637  0.26619294
   0.03378526  0.57095363  0.76619294
   0.53378526  0.92904637  0.23380706
unknown system                          
           1
     7.620567    0.000000    0.000000
     0.000000    9.841917    0.000000
     0.000000    0.000000   10.569317
   Li   P 
    12    28
Direct configuration=    12
   0.85027907  0.30746944  0.81621965
   0.35027907  0.19253056  0.18378035
   0.14972093  0.80746944  0.68378035
   0.64972093  0.69253056  0.31621965
   0.56865095  0.02617266  0.01503041
   0.06865095  0.47382734  0.98496959
   0.43134905  0.52617266  0.48496959
   0.93134905  0.97382734  0.51503041
   0.40206506  0.30111211  0.69137572
   0.90206506  0.19888789  0.30862428
   0.59793494  0.80111211  0.80862428
   0.09793494  0.69888789  0.19137572
   0.28047962  0.87513735  0.31848115
   0.78047962  0.62486265  0.68151885
   0.71952038  0.37513735  0.18151885
   0.21952038  0.12486265  0.81848115
   0.63757990  0.04829220  0.38757725
   0.13757990  0.45170780  0.61242275
   0.36242010  0.54829220  0.11242275
   0.86242010  0.95170780  0.88757725
   0.53371860  0.94295039  0.56555014
   0.03371860  0.55704961  0.43444986
   0.46628140  0.44295039  0.93444986
   0.96628140  0.05704961  0.06555014
   0.40577029  0.13421355  0.49479304
   0.90577029  0.36578645  0.50520696
   0.59422971  0.63421355  0.00520696
   0.09422971  0.86578645  0.99479304
   0.31687311  0.92732906  0.88122189
   0.81687311  0.57267094  0.11877811
   0.68312689  0.42732906  0.61877811
   0.18312689  0.07267094  0.38122189
   0.12900006  0.21865026  0.99466091
   0.62900006  0.28134974  0.00533909
   0.87099994  0.71865026  0.50533909
   0.37099994  0.78134974  0.49466091
   0.96622547  0.07095582  0.73381237
   0.46622547  0.42904418  0.26618763
   0.03377453  0.57095582  0.76618763
   0.53377453  0.92904418  0.23381237
unknown system                          
           1
     7.620841    0.000000    0.000000
     0.000000    9.843883    0.000000
     0.000000    0.000000   10.570468
   Li   P 
    12    28
Direct configuration=    13
   0.85027123  0.30746529  0.81621916
   0.35027123  0.19253471  0.18378084
   0.14972877  0.80746529  0.68378084
   0.64972877  0.69253471  0.31621916
   0.56865853  0.02618021  0.01502728
   0.06865853  0.47381979  0.98497272
   0.43134147  0.52618021  0.48497272
   0.93134147  0.97381979  0.51502728
   0.40205539  0.30111600  0.69135314
   0.90205539  0.19888400  0.30864686
   0.59794461  0.80111600  0.80864686
   0.09794461  0.69888400  0.19135314
   0.28051110  0.87513989  0.31846551
   0.78051110  0.62486011  0.68153449
   0.71948890  0.37513989  0.18153449
   0.21948890  0.12486011  0.81846551
   0.63761671  0.04826465  0.38754924
   0.13761671  0.45173535  0.61245076
   0.36238329  0.54826465  0.11245076
   0.86238329  0.95173535  0.88754924
   0.53371339  0.94288104  0.56559711
   0.03371339  0.55711896  0.43440289
   0.46628661  0.44288104  0.93440289
   0.96628661  0.05711896  0.06559711
   0.40567124  0.13422184  0.49478726
   0.90567124  0.36577816  0.50521274
   0.59432876  0.63422184  0.00521274
   0.09432876  0.86577816  0.99478726
   0.31681358  0.92734908  0.88123007
   0.81681358  0.57265092  0.11876993
   0.68318642  0.42734908  0.61876993
   0.18318642  0.07265092  0.38123007
   0.12900490  0.21866065  0.99465691
   0.62900490  0.28133935  0.00534309
   0.87099510  0.71866065  0.50534309
   0.37099510  0.78133935  0.49465691
   0.96625765  0.07096237  0.73382827
   0.46625765  0.42903763  0.26617173
   0.03374235  0.57096237  0.76617173
   0.53374235  0.92903763  0.23382827
unknown system                          
           1
     7.620906    0.000000    0.000000
     0.000000    9.844280    0.000000
     0.000000    0.000000   10.570525
   Li   P 
    12    28
Direct configuration=    14
   0.85026534  0.30746007  0.81621889
   0.35026534  0.19253993  0.18378111
   0.14973466  0.80746007  0.68378111
   0.64973466  0.69253993  0.31621889
   0.56866348  0.02618744  0.01502537
   0.06866348  0.47381256  0.98497463
   0.43133652  0.52618744  0.48497463
   0.93133652  0.97381256  0.51502537
   0.40204833  0.30111703  0.69133058
   0.90204833  0.19888297  0.30866942
   0.59795167  0.80111703  0.80866942
   0.09795167  0.69888297  0.19133058
   0.28052016  0.87513852  0.31846697
   0.78052016  0.62486148  0.68153303
   0.71947984  0.37513852  0.18153303
   0.21947984  0.12486148  0.81846697
   0.63760761  0.04824378  0.38755620
   0.13760761  0.45175622  0.61244380
   0.36239239  0.54824378  0.11244380
   0.86239239  0.95175622  0.88755620
   0.53369588  0.94286268  0.56559838
   0.03369588  0.55713732  0.43440162
   0.46630412  0.44286268  0.93440162
   0.96630412  0.05713732  0.06559838
   0.40566386  0.13419255  0.49478761
   0.90566386  0.36580745  0.50521239
   0.59433614  0.63419255  0.00521239
   0.09433614  0.86580745  0.99478761
   0.31679798  0.92736612  0.88122727
   0.81679798  0.57263388  0.11877273
   0.68320202  0.42736612  0.61877273
   0.18320202  0.07263388  0.38122727
   0.12900390  0.21865610  0.99464989
   0.62900390  0.28134390  0.00535011
   0.87099610  0.71865610  0.50535011
   0.37099610  0.78134390  0.49464989
   0.96626233  0.07096070  0.73383949
   0.46626233  0.42903930  0.26616051
   0.03373767  0.57096070  0.76616051
   0.53373767  0.92903930  0.23383949
unknown system                          
           1
     7.621053    0.000000    0.000000
     0.000000    9.845164    0.000000
     0.000000    0.000000   10.570649
   Li   P 
    12    28
Direct configuration=    15
   0.85025223  0.30744847  0.81621827
   0.35025223  0.19255153  0.18378173
   0.14974777  0.80744847  0.68378173
   0.64974777  0.69255153  0.31621827
   0.56867452  0.02620353  0.01502112
   0.06867452  0.47379647  0.98497888
   0.43132548  0.52620353  0.48497888
   0.93132548  0.97379647  0.51502112
   0.40203263  0.30111933  0.69128038
   0.90203263  0.19888067  0.30871962
   0.59796737  0.80111933  0.80871962
   0.09796737  0.69888067  0.19128038
   0.28054032  0.87513546  0.31847024
   0.78054032  0.62486454  0.68152976
   0.71945968  0.37513546  0.18152976
   0.21945968  0.12486454  0.81847024
   0.63758735  0.04819732  0.38757171
   0.13758735  0.45180268  0.61242829
   0.36241265  0.54819732  0.11242829
   0.86241265  0.95180268  0.88757171
   0.53365692  0.94282182  0.56560122
   0.03365692  0.55717818  0.43439878
   0.46634308  0.44282182  0.93439878
   0.96634308  0.05717818  0.06560122
   0.40564742  0.13412736  0.49478837
   0.90564742  0.36587264  0.50521163
   0.59435258  0.63412736  0.00521163
   0.09435258  0.86587264  0.99478837
   0.31676325  0.92740405  0.88122102
   0.81676325  0.57259595  0.11877898
   0.68323675  0.42740405  0.61877898
   0.18323675  0.07259595  0.38122102
   0.12900167  0.21864597  0.99463426
   0.62900167  0.28135403  0.00536574
   0.87099833  0.71864597  0.50536574
   0.37099833  0.78135403  0.49463426
   0.96627274  0.07095699  0.73386444
   0.46627274  0.42904301  0.26613556
   0.03372726  0.57095699  0.76613556
   0.53372726  0.92904301  0.23386444
unknown system                          
           1
     7.621595    0.000000    0.000000
     0.000000    9.845910    0.000000
     0.000000    0.000000   10.570958
   Li   P 
    12    28
Direct configuration=    16
   0.85024372  0.30744021  0.81621749
   0.35024372  0.19255979  0.18378251
   0.14975628  0.80744021  0.68378251
   0.64975628  0.69255979  0.31621749
   0.56867979  0.02621294  0.01502187
   0.06867979  0.47378706  0.98497813
   0.43132021  0.52621294  0.48497813
   0.93132021  0.97378706  0.51502187
   0.40201866  0.30111972  0.69124887
   0.90201866  0.19888028  0.30875113
   0.59798134  0.80111972  0.80875113
   0.09798134  0.69888028  0.19124887
   0.28053242  0.87512213  0.31846647
   0.78053242  0.62487787  0.68153353
   0.71946758  0.37512213  0.18153353
   0.21946758  0.12487787  0.81846647
   0.63757766  0.04817412  0.38759694
   0.13757766  0.45182588  0.61240306
   0.36242234  0.54817412  0.11240306
   0.86242234  0.95182588  0.88759694
   0.53364365  0.94281506  0.56560342
   0.03364365  0.55718494  0.43439658
   0.46635635  0.44281506  0.93439658
   0.96635635  0.05718494  0.06560342
   0.40566427  0.13409002  0.49480245
   0.90566427  0.36590998  0.50519755
   0.59433573  0.63409002  0.00519755
   0.09433573  0.86590998  0.99480245
   0.31677100  0.92742393  0.88120982
   0.81677100  0.57257607  0.11879018
   0.68322900  0.42742393  0.61879018
   0.18322900  0.07257607  0.38120982
   0.12900892  0.21865858  0.99462673
   0.62900892  0.28134142  0.00537327
   0.87099108  0.71865858  0.50537327
   0.37099108  0.78134142  0.49462673
   0.96626291  0.07095936  0.73386099
   0.46626291  0.42904064  0.26613901
   0.03373709  0.57095936  0.76613901
   0.53373709  0.92904064  0.23386099
unknown system                          
           1
     7.623222    0.000000    0.000000
     0.000000    9.848149    0.000000
     0.000000    0.000000   10.571882
   Li   P 
    12    28
Direct configuration=    17
   0.85021818  0.30741545  0.81621513
   0.35021818  0.19258455  0.18378487
   0.14978182  0.80741545  0.68378487
   0.64978182  0.69258455  0.31621513
   0.56869560  0.02624116  0.01502409
   0.06869560  0.47375884  0.98497591
   0.43130440  0.52624116  0.48497591
   0.93130440  0.97375884  0.51502409
   0.40197677  0.30112088  0.69115434
   0.90197677  0.19887912  0.30884566
   0.59802323  0.80112088  0.80884566
   0.09802323  0.69887912  0.19115434
   0.28050872  0.87508212  0.31845514
   0.78050872  0.62491788  0.68154486
   0.71949128  0.37508212  0.18154486
   0.21949128  0.12491788  0.81845514
   0.63754859  0.04810451  0.38767263
   0.13754859  0.45189549  0.61232737
   0.36245141  0.54810451  0.11232737
   0.86245141  0.95189549  0.88767263
   0.53360384  0.94279478  0.56561002
   0.03360384  0.55720522  0.43438998
   0.46639616  0.44279478  0.93438998
   0.96639616  0.05720522  0.06561002
   0.40571482  0.13397800  0.49484470
   0.90571482  0.36602200  0.50515530
   0.59428518  0.63397800  0.00515530
   0.09428518  0.86602200  0.99484470
   0.31679424  0.92748355  0.88117622
   0.81679424  0.57251645  0.11882378
   0.68320576  0.42748355  0.61882378
   0.18320576  0.07251645  0.38117622
   0.12903065  0.21869640  0.99460414
   0.62903065  0.28130360  0.00539586
   0.87096935  0.71869640  0.50539586
   0.37096935  0.78130360  0.49460414
   0.96623341  0.07096647  0.73385063
   0.46623341  0.42903353  0.26614937
   0.03376659  0.57096647  0.76614937
   0.53376659  0.92903353  0.23385063
unknown system                          
           1
     7.623288    0.000000    0.000000
     0.000000    9.848473    0.000000
     0.000000    0.000000   10.571797
   Li   P 
    12    28
Direct configuration=    18
   0.85021209  0.30740948  0.81621455
   0.35021209  0.19259052  0.18378545
   0.14978791  0.80740948  0.68378545
   0.64978791  0.69259052  0.31621455
   0.56869794  0.02624811  0.01502568