       N       E                     dE             d eps       ncg     rms          rms(c)
DAV:   1     0.414088720437E+03    0.41409E+03   -0.27149E+04 16000   0.145E+03
DAV:   2    -0.426287898599E+02   -0.45672E+03   -0.43687E+03 18592   0.366E+02
DAV:   3    -0.809295327091E+02   -0.38301E+02   -0.38102E+02 23256   0.100E+02
DAV:   4    -0.845387670435E+02   -0.36092E+01   -0.35954E+01 26968   0.234E+01
DAV:   5    -0.847719335214E+02   -0.23317E+00   -0.23315E+00 22144   0.463E+00    0.319E+01
RMM:   6    -0.768790771607E+02    0.78929E+01   -0.30328E+01 17109   0.226E+01    0.131E+01
RMM:   7    -0.773889811561E+02   -0.50990E+00   -0.43915E+00 23813   0.965E+00    0.679E+00
RMM:   8    -0.775554323608E+02   -0.16645E+00   -0.85558E-01 26197   0.464E+00    0.357E+00
RMM:   9    -0.775900430353E+02   -0.34611E-01   -0.26099E-01 25871   0.302E+00    0.999E-01
RMM:  10    -0.776161551601E+02   -0.26112E-01   -0.18689E-01 29643   0.183E+00    0.357E-01
RMM:  11    -0.776260300281E+02   -0.98749E-02   -0.82318E-02 30537   0.108E+00    0.258E-01
RMM:  12    -0.776305421085E+02   -0.45121E-02   -0.33242E-02 31093   0.685E-01    0.165E-01
RMM:  13    -0.776323762815E+02   -0.18342E-02   -0.13708E-02 30665   0.443E-01    0.635E-02
RMM:  14    -0.776331023038E+02   -0.72602E-03   -0.57390E-03 30731   0.309E-01    0.360E-02
RMM:  15    -0.776333952475E+02   -0.29294E-03   -0.26875E-03 30122   0.194E-01    0.265E-02
RMM:  16    -0.776335088556E+02   -0.11361E-03   -0.10819E-03 29724   0.127E-01    0.155E-02
RMM:  17    -0.776335541426E+02   -0.45287E-04   -0.49012E-04 29197   0.865E-02    0.760E-03
RMM:  18    -0.776335832020E+02   -0.29059E-04   -0.22982E-04 28405   0.609E-02    0.683E-03
RMM:  19    -0.776335894717E+02   -0.62697E-05   -0.66976E-05 22623   0.417E-02
   1 F= -.77633589E+02 E0= -.77633589E+02  d E =0.000000E+00  mag=    -0.0000
