 running on    8 total cores
 distrk:  each k-point on    8 cores,    1 groups
 distr:  one band on    1 cores,    8 groups
 using from now: INCAR     
 vasp.6.1.2 22Jul20 (build Mar 20 2021 11:25:07) complex                        
  
 POSCAR found type information on POSCAR LiP O 
 POSCAR found :  3 types and      26 ions
 scaLAPACK will be used
 -----------------------------------------------------------------------------
|                                                                             |
|           W    W    AA    RRRRR   N    N  II  N    N   GGGG   !!!           |
|           W    W   A  A   R    R  NN   N  II  NN   N  G    G  !!!           |
|           W    W  A    A  R    R  N N  N  II  N N  N  G       !!!           |
|           W WW W  AAAAAA  RRRRR   N  N N  II  N  N N  G  GGG   !            |
|           WW  WW  A    A  R   R   N   NN  II  N   NN  G    G                |
|           W    W  A    A  R    R  N    N  II  N    N   GGGG   !!!           |
|                                                                             |
|     The value NCORE = 6 specified in the INCAR file was overwritten,        |
|     because it was not compatible with the 8 processes available:           |
|     NCORE = 1                                                               |
|     was used instead, please check that this makes sense for your           |
|     machine.                                                                |
|                                                                             |
 -----------------------------------------------------------------------------

 -----------------------------------------------------------------------------
|                                                                             |
|           W    W    AA    RRRRR   N    N  II  N    N   GGGG   !!!           |
|           W    W   A  A   R    R  NN   N  II  NN   N  G    G  !!!           |
|           W    W  A    A  R    R  N N  N  II  N N  N  G       !!!           |
|           W WW W  AAAAAA  RRRRR   N  N N  II  N  N N  G  GGG   !            |
|           WW  WW  A    A  R   R   N   NN  II  N   NN  G    G                |
|           W    W  A    A  R    R  N    N  II  N    N   GGGG   !!!           |
|                                                                             |
|     For optimal performance we recommend to set                             |
|       NCORE = 4 - approx SQRT(number of cores).                             |
|     NCORE specifies how many cores store one orbital (NPAR=cpu/NCORE).      |
|     This setting can greatly improve the performance of VASP for DFT.       |
|     The default, NCORE=1 might be grossly inefficient on modern             |
|     multi-core architectures or massively parallel machines. Do your        |
|     own testing!!!!                                                         |
|     Unfortunately you need to use the default for GW and RPA                |
|     calculations (for HF NCORE is supported but not extensively tested      |
|     yet).                                                                   |
|                                                                             |
 -----------------------------------------------------------------------------

 LDA part: xc-table for Pade appr. of Perdew
 -----------------------------------------------------------------------------
|                                                                             |
|           W    W    AA    RRRRR   N    N  II  N    N   GGGG   !!!           |
|           W    W   A  A   R    R  NN   N  II  NN   N  G    G  !!!           |
|           W    W  A    A  R    R  N N  N  II  N N  N  G       !!!           |
|           W WW W  AAAAAA  RRRRR   N  N N  II  N  N N  G  GGG   !            |
|           WW  WW  A    A  R   R   N   NN  II  N   NN  G    G                |
|           W    W  A    A  R    R  N    N  II  N    N   GGGG   !!!           |
|                                                                             |
|     The determination of the symmetry of your systems shows a strong        |
|     dependence on the tolerance parameter SYMPREC. This is often the        |
|     result of "noise" in the structural parameters (lattice vectors         |
|     and/or ionic positions). Set NWRITE=3 for more details.                 |
|                                                                             |
 -----------------------------------------------------------------------------

 generate k-points for:    7    5    4
 POSCAR, INCAR and KPOINTS ok, starting setup
 FFT: planning ...
 WAVECAR not read
 entering main loop
       N       E                     dE             d eps       ncg     rms          rms(c)
DAV:   1     0.110585766234E+04    0.11059E+04   -0.62139E+04 24992   0.149E+03
DAV:   2    -0.652038574579E+02   -0.11711E+04   -0.10974E+04 29512   0.389E+02
DAV:   3    -0.174829463700E+03   -0.10963E+03   -0.10892E+03 32568   0.121E+02
DAV:   4    -0.184543650868E+03   -0.97142E+01   -0.96714E+01 47112   0.289E+01
DAV:   5    -0.185955321283E+03   -0.14117E+01   -0.14112E+01 34392   0.640E+00    0.516E+01
DAV:   6    -0.165777412453E+03    0.20178E+02   -0.85207E+01 31448   0.313E+01    0.255E+01
DAV:   7    -0.167768375755E+03   -0.19910E+01   -0.73786E+00 33144   0.883E+00    0.918E+00
DAV:   8    -0.168038280387E+03   -0.26990E+00   -0.79027E-01 33112   0.351E+00    0.455E+00
DAV:   9    -0.168171979795E+03   -0.13370E+00   -0.14187E-01 34016   0.162E+00    0.169E+00
DAV:  10    -0.168194886923E+03   -0.22907E-01   -0.48027E-02 30664   0.106E+00    0.519E-01
DAV:  11    -0.168205727423E+03   -0.10840E-01   -0.11711E-02 30848   0.445E-01    0.307E-01
DAV:  12    -0.168208263779E+03   -0.25364E-02   -0.18525E-03 32392   0.196E-01    0.157E-01
DAV:  13    -0.168209383543E+03   -0.11198E-02   -0.10153E-03 29368   0.122E-01    0.454E-02
DAV:  14    -0.168209541857E+03   -0.15831E-03   -0.14234E-04 34328   0.578E-02    0.222E-02
DAV:  15    -0.168209599406E+03   -0.57549E-04   -0.61249E-05 26304   0.340E-02    0.134E-02
DAV:  16    -0.168209605830E+03   -0.64244E-05   -0.71049E-06 21568   0.135E-02
   1 F= -.16820961E+03 E0= -.16820961E+03  d E =0.000000E+00  mag=    -0.0015
