 running on   12 total cores
 distrk:  each k-point on   12 cores,    1 groups
 distr:  one band on    6 cores,    2 groups
 using from now: INCAR     
 vasp.6.1.2 22Jul20 (build Mar 20 2021 11:25:07) complex                        
  
 POSCAR found type information on POSCAR LiP O 
 POSCAR found :  3 types and      26 ions
 scaLAPACK will be used
 LDA part: xc-table for Pade appr. of Perdew
 generate k-points for:    7    5    4
 POSCAR, INCAR and KPOINTS ok, starting setup
 FFT: planning ...
 WAVECAR not read
 entering main loop
       N       E                     dE             d eps       ncg     rms          rms(c)
DAV:   1     0.111424929028E+04    0.11142E+04   -0.61989E+04 24424   0.152E+03
DAV:   2    -0.600071151020E+02   -0.11743E+04   -0.11035E+04 29432   0.393E+02
DAV:   3    -0.171556789196E+03   -0.11155E+03   -0.11079E+03 31534   0.124E+02
DAV:   4    -0.181329887953E+03   -0.97731E+01   -0.97288E+01 45608   0.297E+01
DAV:   5    -0.182882494889E+03   -0.15526E+01   -0.15521E+01 34184   0.690E+00    0.510E+01
DAV:   6    -0.162242722915E+03    0.20640E+02   -0.90078E+01 30362   0.324E+01    0.265E+01
DAV:   7    -0.164199714132E+03   -0.19570E+01   -0.74727E+00 31340   0.939E+00    0.888E+00
DAV:   8    -0.164473409336E+03   -0.27370E+00   -0.82631E-01 32784   0.366E+00    0.455E+00
DAV:   9    -0.164597032955E+03   -0.12362E+00   -0.15238E-01 33632   0.170E+00    0.200E+00
DAV:  10    -0.164626902225E+03   -0.29869E-01   -0.62254E-02 29232   0.120E+00    0.573E-01
DAV:  11    -0.164636805718E+03   -0.99035E-02   -0.11670E-02 31848   0.446E-01    0.299E-01
DAV:  12    -0.164639839086E+03   -0.30334E-02   -0.25169E-03 29760   0.222E-01    0.155E-01
DAV:  13    -0.164641045296E+03   -0.12062E-02   -0.89470E-04 29128   0.124E-01    0.592E-02
DAV:  14    -0.164641285782E+03   -0.24049E-03   -0.19822E-04 31104   0.582E-02    0.313E-02
DAV:  15    -0.164641349757E+03   -0.63975E-04   -0.46431E-05 25480   0.281E-02    0.194E-02
DAV:  16    -0.164641367606E+03   -0.17849E-04   -0.13504E-05 19528   0.156E-02    0.954E-03
DAV:  17    -0.164641371260E+03   -0.36537E-05   -0.50838E-06 18592   0.953E-03
   1 F= -.16464137E+03 E0= -.16464137E+03  d E =0.000000E+00  mag=    -0.0005
