Automatically generated mesh
     100
Reciprocal lattice
    0.00000000000000    0.00000000000000    0.00000000000000             1
    0.14285714285715   -0.00000000000000    0.00000000000000             2
    0.28571428571428    0.00000000000000   -0.00000000000001             2
    0.42857142857143    0.00000000000000   -0.00000000000000             2
   -0.00000000000000    0.14285714285715    0.00000000000000             4
    0.14285714285715    0.14285714285715    0.00000000000000             4
    0.28571428571428    0.14285714285715   -0.00000000000001             4
    0.42857142857143    0.14285714285715   -0.00000000000000             4
   -0.42857142857143    0.14285714285715    0.00000000000000             4
   -0.28571428571428    0.14285714285715   -0.00000000000000             4
   -0.14285714285715    0.14285714285715   -0.00000000000000             4
   -0.00000000000000    0.28571428571428    0.00000000000000             4
    0.14285714285715    0.28571428571428    0.00000000000000             4
    0.28571428571428    0.28571428571428   -0.00000000000001             4
    0.42857142857143    0.28571428571428   -0.00000000000000             4
   -0.42857142857143    0.28571428571428    0.00000000000000             4
   -0.28571428571428    0.28571428571428   -0.00000000000000             4
   -0.14285714285715    0.28571428571428   -0.00000000000000             4
    0.00000000000000    0.42857142857143    0.00000000000000             4
    0.14285714285715    0.42857142857143    0.00000000000000             4
    0.28571428571428    0.42857142857143   -0.00000000000001             4
    0.42857142857143    0.42857142857143   -0.00000000000000             4
   -0.42857142857143    0.42857142857143    0.00000000000000             4
   -0.28571428571428    0.42857142857143   -0.00000000000000             4
   -0.14285714285715    0.42857142857143   -0.00000000000000             4
    0.00000000000000    0.14285714285715    0.14285714285715             2
    0.14285714285715    0.14285714285715    0.14285714285715             2
    0.28571428571428    0.14285714285715    0.14285714285714             2
    0.42857142857143    0.14285714285715    0.14285714285714             2
   -0.42857142857143    0.14285714285715    0.14285714285715             2
   -0.28571428571428    0.14285714285715    0.14285714285714             2
   -0.14285714285715    0.14285714285715    0.14285714285714             2
    0.00000000000000    0.28571428571428    0.14285714285715             4
    0.14285714285715    0.28571428571428    0.14285714285715             4
    0.28571428571428    0.28571428571428    0.14285714285714             4
    0.42857142857143    0.28571428571428    0.14285714285714             4
   -0.42857142857143    0.28571428571428    0.14285714285715             4
   -0.28571428571428    0.28571428571428    0.14285714285714             4
   -0.14285714285715    0.28571428571428    0.14285714285714             4
    0.00000000000000    0.42857142857143    0.14285714285715             4
    0.14285714285715    0.42857142857143    0.14285714285715             4
    0.28571428571428    0.42857142857143    0.14285714285714             4
    0.42857142857143    0.42857142857143    0.14285714285714             4
   -0.42857142857143    0.42857142857143    0.14285714285715             4
   -0.28571428571428    0.42857142857143    0.14285714285714             4
   -0.14285714285715    0.42857142857143    0.14285714285714             4
    0.00000000000000   -0.42857142857143    0.14285714285715             4
    0.14285714285715   -0.42857142857143    0.14285714285715             4
    0.28571428571428   -0.42857142857143    0.14285714285714             4
    0.42857142857143   -0.42857142857143    0.14285714285714             4
   -0.42857142857143   -0.42857142857143    0.14285714285715             4
   -0.28571428571428   -0.42857142857143    0.14285714285714             4
   -0.14285714285715   -0.42857142857143    0.14285714285714             4
    0.00000000000000   -0.28571428571428    0.14285714285715             4
    0.14285714285715   -0.28571428571428    0.14285714285714             4
    0.28571428571428   -0.28571428571428    0.14285714285714             4
    0.42857142857143   -0.28571428571428    0.14285714285714             4
   -0.42857142857143   -0.28571428571428    0.14285714285715             4
   -0.28571428571428   -0.28571428571428    0.14285714285714             4
   -0.14285714285715   -0.28571428571428    0.14285714285714             4
    0.00000000000000   -0.14285714285715    0.14285714285715             2
    0.14285714285715   -0.14285714285715    0.14285714285714             4
    0.28571428571428   -0.14285714285715    0.14285714285714             4
    0.42857142857143   -0.14285714285715    0.14285714285714             4
    0.00000000000000    0.28571428571428    0.28571428571429             2
    0.14285714285715    0.28571428571428    0.28571428571428             2
    0.28571428571428    0.28571428571428    0.28571428571428             2
    0.42857142857143    0.28571428571428    0.28571428571429             2
   -0.42857142857143    0.28571428571428    0.28571428571429             2
   -0.28571428571428    0.28571428571428    0.28571428571428             2
   -0.14285714285715    0.28571428571428    0.28571428571429             2
    0.00000000000000    0.42857142857143    0.28571428571429             4
    0.14285714285715    0.42857142857143    0.28571428571428             4
    0.28571428571428    0.42857142857143    0.28571428571428             4
    0.42857142857143    0.42857142857143    0.28571428571429             4
   -0.42857142857143    0.42857142857143    0.28571428571429             4
   -0.28571428571428    0.42857142857143    0.28571428571428             4
   -0.14285714285715    0.42857142857143    0.28571428571429             4
    0.00000000000000   -0.42857142857143    0.28571428571429             4
    0.14285714285715   -0.42857142857143    0.28571428571429             4
    0.28571428571428   -0.42857142857143    0.28571428571428             4
    0.42857142857143   -0.42857142857143    0.28571428571429             4
   -0.42857142857143   -0.42857142857143    0.28571428571429             4
   -0.28571428571428   -0.42857142857143    0.28571428571428             4
   -0.14285714285715   -0.42857142857143    0.28571428571429             4
    0.00000000000000   -0.28571428571428    0.28571428571429             2
    0.14285714285715   -0.28571428571428    0.28571428571429             4
    0.28571428571428   -0.28571428571428    0.28571428571428             4
    0.42857142857143   -0.28571428571428    0.28571428571429             4
    0.00000000000000    0.42857142857143    0.42857142857143             2
    0.14285714285715    0.42857142857143    0.42857142857142             2
    0.28571428571428    0.42857142857143    0.42857142857143             2
    0.42857142857143    0.42857142857143    0.42857142857143             2
   -0.42857142857143    0.42857142857143    0.42857142857142             2
   -0.28571428571428    0.42857142857143    0.42857142857143             2
   -0.14285714285715    0.42857142857143    0.42857142857143             2
    0.00000000000000   -0.42857142857143    0.42857142857143             2
    0.14285714285715   -0.42857142857143    0.42857142857142             4
    0.28571428571428   -0.42857142857143    0.42857142857143             4
    0.42857142857143   -0.42857142857143    0.42857142857143             4
Tetrahedra
       517    0.00048590864917
         4         1         5         6        27
         4         1         2         6        27
         4         1         5        26        27
         4         2         6         7        28
         4         2         3         7        28
         4         2         6        27        28
         4         3         7         8        29
         4         3         4         8        29
         4         3         7        28        29
         4         4         8         9        30
         4         4         4         9        30
         4         4         8        29        30
         4         4         9        10        31
         4         3         4        10        31
         4         4         9        30        31
         4         3        10        11        32
         4         2         3        11        32
         4         3        10        31        32
         4         2         5        11        26
         4         1         2         5        26
         4         2        11        26        32
         4         5        12        13        34
         4         5         6        13        34
         4         5         6        27        34
         4         5        12        33        34
         4         5        26        33        34
         4         5        26        27        34
         4         6        13        14        35
         4         6         7        14        35
         4         6         7        28        35
         4         6        13        34        35
         4         6        27        34        35
         4         6        27        28        35
         4         7        14        15        36
         4         7         8        15        36
         4         7         8        29        36
         4         7        14        35        36
         4         7        28        35        36
         4         7        28        29        36
         4         8        15        16        37
         4         8         9        16        37
         4         8         9        30        37
         4         8        15        36        37
         4         8        29        36        37
         4         8        29        30        37
         4         9        16        17        38
         4         9        10        17        38
         4         9        10        31        38
         4         9        16        37        38
         4         9        30        37        38
         4         9        30        31        38
         4        10        17        18        39
         4        10        11        18        39
         4        10        11        32        39
         4        10        17        38        39
         4        10        31        38        39
         4        10        31        32        39
         4        11        12        18        33
         4         5        11        12        33
         4         5        11        26        33
         4        11        18        33        39
         4        11        32        33        39
         4        11        26        32        33
         4        12        19        20        41
         4        12        13        20        41
         4        12        13        34        41
         4        12        19        40        41
         4        12        33        40        41
         4        12        33        34        41
         4        13        20        21        42
         4        13        14        21        42
         4        13        14        35        42
         4        13        20        41        42
         4        13        34        41        42
         4        13        34        35        42
         4        14        21        22        43
         4        14        15        22        43
         4        14        15        36        43
         4        14        21        42        43
         4        14        35        42        43
         4        14        35        36        43
         4        15        22        23        44
         4        15        16        23        44
         4        15        16        37        44
         4        15        22        43        44
         4        15        36        43        44
         4        15        36        37        44
         4        16        23        24        45
         4        16        17        24        45
         4        16        17        38        45
         4        16        23        44        45
         4        16        37        44        45
         4        16        37        38        45
         4        17        24        25        46
         4        17        18        25        46
         4        17        18        39        46
         4        17        24        45        46
         4        17        38        45        46
         4        17        38        39        46
         4        18        19        25        40
         4        12        18        19        40
         4        12        18        33        40
         4        18        25        40        46
         4        18        39        40        46
         4        18        33        39        40
         4        19        19        25        48
         4        19        20        25        48
         4        19        20        41        48
         4        19        19        47        48
         4        19        40        47        48
         4        19        40        41        48
         4        20        24        25        49
         4        20        21        24        49
         4        20        21        42        49
         4        20        25        48        49
         4        20        41        48        49
         4        20        41        42        49
         4        21        23        24        50
         4        21        22        23        50
         4        21        22        43        50
         4        21        24        49        50
         4        21        42        49        50
         4        21        42        43        50
         8        22        22        23        51
         4        22        23        44        51
         4        22        23        50        51
         4        22        43        50        51
         4        22        43        44        51
         4        21        22        23        52
         4        21        23        24        52
         4        23        24        45        52
         4        22        23        51        52
         4        23        44        51        52
         4        23        44        45        52
         4        20        21        24        53
         4        20        24        25        53
         4        24        25        46        53
         4        21        24        52        53
         4        24        45        52        53
         4        24        45        46        53
         4        19        20        25        47
         4        19        19        25        47
         4        19        25        40        47
         4        20        25        47        53
         4        25        46        47        53
         4        25        40        46        47
         4        12        18        19        55
         4        18        19        25        55
         4        19        25        48        55
         4        12        19        54        55
         4        19        47        54        55
         4        19        47        48        55
         4        17        18        25        56
         4        17        24        25        56
         4        24        25        49        56
         4        18        25        55        56
         4        25        48        55        56
         4        25        48        49        56
         4        16        17        24        57
         4        16        23        24        57
         4        23        24        50        57
         4        17        24        56        57
         4        24        49        56        57
         4        24        49        50        57
         4        15        16        23        58
         4        15        22        23        58
         4        22        23        51        58
         4        16        23        57        58
         4        23        50        57        58
         4        23        50        51        58
         4        14        15        22        59
         4        14        21        22        59
         4        21        22        52        59
         4        15        22        58        59
         4        22        51        58        59
         4        22        51        52        59
         4        13        14        21        60
         4        13        20        21        60
         4        20        21        53        60
         4        14        21        59        60
         4        21        52        59        60
         4        21        52        53        60
         4        12        13        20        54
         4        12        19        20        54
         4        19        20        47        54
         4        13        20        54        60
         4        20        53        54        60
         4        20        47        53        54
         4         5        11        12        62
         4        11        12        18        62
         4        12        18        55        62
         4         5        12        61        62
         4        12        54        61        62
         4        12        54        55        62
         4        10        11        18        63
         4        10        17        18        63
         4        17        18        56        63
         4        11        18        62        63
         4        18        55        62        63
         4        18        55        56        63
         4         9        10        17        64
         4         9        16        17        64
         4        16        17        57        64
         4        10        17        63        64
         4        17        56        63        64
         4        17        56        57        64
         4         8         9        16        64
         4         8        15        16        64
         4        15        16        58        64
         4         9        16        64        64
         4        16        57        64        64
         4        16        57        58        64
         4         7         8        15        63
         4         7        14        15        63
         4        14        15        59        63
         4         8        15        63        64
         4        15        58        63        64
         4        15        58        59        63
         4         6         7        14        62
         4         6        13        14        62
         4        13        14        60        62
         4         7        14        62        63
         4        14        59        62        63
         4        14        59        60        62
         4         5         6        13        61
         4         5        12        13        61
         4        12        13        54        61
         4         6        13        61        62
         4        13        60        61        62
         4        13        54        60        61
         4         1         2         5         6
         4         2         5         6        11
         4         5         6        11        62
         4         1         5         5         6
         4         5         5         6        61
         4         5         6        61        62
         4         2         3         7        11
         4         3         7        10        11
         4         7        10        11        63
         4         2         6         7        11
         4         6         7        11        62
         4         7        11        62        63
         4         3         4         8        10
         4         4         8         9        10
         4         8         9        10        64
         4         3         7         8        10
         4         7         8        10        63
         4         8        10        63        64
         2         4         4         9         9
         4         4         8         9         9
         4         8         9         9        64
         2         9         9        64        64
         4        26        33        34        66
         4        26        27        34        66
         4        26        33        65        66
         4        27        34        35        67
         4        27        28        35        67
         4        27        34        66        67
         4        28        35        36        68
         4        28        29        36        68
         4        28        35        67        68
         4        29        36        37        69
         4        29        30        37        69
         4        29        36        68        69
         4        30        37        38        70
         4        30        31        38        70
         4        30        37        69        70
         4        31        38        39        71
         4        31        32        39        71
         4        31        38        70        71
         4        32        33        39        65
         4        26        32        33        65
         4        32        39        65        71
         4        33        40        41        73
         4        33        34        41        73
         4        33        34        66        73
         4        33        40        72        73
         4        33        65        72        73
         4        33        65        66        73
         4        34        41        42        74
         4        34        35        42        74
         4        34        35        67        74
         4        34        41        73        74
         4        34        66        73        74
         4        34        66        67        74
         4        35        42        43        75
         4        35        36        43        75
         4        35        36        68        75
         4        35        42        74        75
         4        35        67        74        75
         4        35        67        68        75
         4        36        43        44        76
         4        36        37        44        76
         4        36        37        69        76
         4        36        43        75        76
         4        36        68        75        76
         4        36        68        69        76
         4        37        44        45        77
         4        37        38        45        77
         4        37        38        70        77
         4        37        44        76        77
         4        37        69        76        77
         4        37        69        70        77
         4        38        45        46        78
         4        38        39        46        78
         4        38        39        71        78
         4        38        45        77        78
         4        38        70        77        78
         4        38        70        71        78
         4        39        40        46        72
         4        33        39        40        72
         4        33        39        65        72
         4        39        46        72        78
         4        39        71        72        78
         4        39        65        71        72
         4        40        47        48        80
         4        40        41        48        80
         4        40        41        73        80
         4        40        47        79        80
         4        40        72        79        80
         4        40        72        73        80
         4        41        48        49        81
         4        41        42        49        81
         4        41        42        74        81
         4        41        48        80        81
         4        41        73        80        81
         4        41        73        74        81
         4        42        49        50        82
         4        42        43        50        82
         4        42        43        75        82
         4        42        49        81        82
         4        42        74        81        82
         4        42        74        75        82
         4        43        50        51        83
         4        43        44        51        83
         4        43        44        76        83
         4        43        50        82        83
         4        43        75        82        83
         4        43        75        76        83
         4        44        51        52        84
         4        44        45        52        84
         4        44        45        77        84
         4        44        51        83        84
         4        44        76        83        84
         4        44        76        77        84
         4        45        52        53        85
         4        45        46        53        85
         4        45        46        78        85
         4        45        52        84        85
         4        45        77        84        85
         4        45        77        78        85
         4        46        47        53        79
         4        40        46        47        79
         4        40        46        72        79
         4        46        53        79        85
         4        46        78        79        85
         4        46        72        78        79
         4        47        54        55        87
         4        47        48        55        87
         4        47        48        80        87
         4        47        54        86        87
         4        47        79        86        87
         4        47        79        80        87
         4        48        55        56        88
         4        48        49        56        88
         4        48        49        81        88
         4        48        55        87        88
         4        48        80        87        88
         4        48        80        81        88
         4        49        56        57        89
         4        49        50        57        89
         4        49        50        82        89
         4        49        56        88        89
         4        49        81        88        89
         4        49        81        82        89
         4        50        57        58        89
         4        50        51        58        89
         4        50        51        83        89
         4        50        57        89        89
         4        50        82        89        89
         4        50        82        83        89
         4        51        58        59        88
         4        51        52        59        88
         4        51        52        84        88
         4        51        58        88        89
         4        51        83        88        89
         4        51        83        84        88
         4        52        59        60        87
         4        52        53        60        87
         4        52        53        85        87
         4        52        59        87        88
         4        52        84        87        88
         4        52        84        85        87
         4        53        54        60        86
         4        47        53        54        86
         4        47        53        79        86
         4        53        60        86        87
         4        53        85        86        87
         4        53        79        85        86
         4        54        60        61        62
         4        54        55        60        62
         4        54        55        60        87
         4        54        54        60        61
         4        54        54        60        86
         4        54        60        86        87
         4        55        59        62        63
         4        55        56        59        63
         4        55        56        59        88
         4        55        59        60        62
         4        55        59        60        87
         4        55        59        87        88
         4        56        58        63        64
         4        56        57        58        64
         4        56        57        58        89
         4        56        58        59        63
         4        56        58        59        88
         4        56        58        88        89
         2        57        57        64        64
         4        57        57        58        64
         4        57        57        58        89
         2        57        57        89        89
         4        65        72        73        91
         4        65        66        73        91
         4        65        72        90        91
         4        66        73        74        92
         4        66        67        74        92
         4        66        73        91        92
         4        67        74        75        93
         4        67        68        75        93
         4        67        74        92        93
         4        68        75        76        94
         4        68        69        76        94
         4        68        75        93        94
         4        69        76        77        95
         4        69        70        77        95
         4        69        76        94        95
         4        70        77        78        96
         4        70        71        78        96
         4        70        77        95        96