 running on   12 total cores
 distrk:  each k-point on   12 cores,    1 groups
 distr:  one band on    6 cores,    2 groups
 using from now: INCAR     
 vasp.6.1.2 22Jul20 (build Mar 20 2021 11:25:07) complex                        
  
 POSCAR found type information on POSCAR LiO 
 POSCAR found :  2 types and       9 ions
 scaLAPACK will be used
 LDA part: xc-table for Pade appr. of Perdew
 generate k-points for:    7    7    7
 POSCAR, INCAR and KPOINTS ok, starting setup
 FFT: planning ...
 WAVECAR not read
 entering main loop
       N       E                     dE             d eps       ncg     rms          rms(c)
DAV:   1     0.360696074586E+03    0.36070E+03   -0.27655E+04 13608   0.146E+03
DAV:   2    -0.161850469300E+02   -0.37688E+03   -0.36348E+03 17796   0.343E+02
DAV:   3    -0.424771003629E+02   -0.26292E+02   -0.25921E+02 19914   0.917E+01
DAV:   4    -0.434824938247E+02   -0.10054E+01   -0.10013E+01 22830   0.129E+01
DAV:   5    -0.435544074634E+02   -0.71914E-01   -0.71906E-01 17830   0.179E+00    0.142E+01
RMM:   6    -0.438942770986E+02   -0.33987E+00   -0.25328E+00 15379   0.817E+00    0.916E+00
RMM:   7    -0.436199195446E+02    0.27436E+00   -0.93312E-01 14953   0.514E+00    0.578E+00
RMM:   8    -0.434558818222E+02    0.16404E+00   -0.43081E-01 15283   0.371E+00    0.430E+00
RMM:   9    -0.433726470963E+02    0.83235E-01   -0.17212E-01 16065   0.228E+00    0.235E+00
RMM:  10    -0.433619451470E+02    0.10702E-01   -0.56090E-02 16484   0.139E+00    0.774E-01
RMM:  11    -0.433625168798E+02   -0.57173E-03   -0.12048E-02 18431   0.669E-01    0.414E-01
RMM:  12    -0.433629632283E+02   -0.44635E-03   -0.50954E-03 18819   0.462E-01    0.169E-01
RMM:  13    -0.433635793463E+02   -0.61612E-03   -0.22939E-03 21457   0.278E-01    0.583E-02
WARNING in EDDRMM: call to ZHEGV failed, returncode =   8  4     14
RMM:  14    -0.433637654832E+02   -0.18614E-03   -0.94073E-04 23785   0.149E-01    0.409E-02
RMM:  15    -0.433638962013E+02   -0.13072E-03   -0.45180E-04 23144   0.102E-01    0.276E-02
RMM:  16    -0.433639586092E+02   -0.62408E-04   -0.23245E-04 22229   0.715E-02    0.201E-02
RMM:  17    -0.433640018143E+02   -0.43205E-04   -0.11985E-04 20522   0.553E-02    0.157E-02
RMM:  18    -0.433640309791E+02   -0.29165E-04   -0.63806E-05 17944   0.430E-02    0.132E-02
WARNING in EDDRMM: call to ZHEGV failed, returncode =   6  3      5
WARNING in EDDRMM: call to ZHEGV failed, returncode =   8  4      3
RMM:  19    -0.433640592221E+02   -0.28243E-04   -0.46640E-05 17138   0.386E-02    0.119E-02
WARNING in EDDRMM: call to ZHEGV failed, returncode =   6  3      5
RMM:  20    -0.433640926217E+02   -0.33400E-04   -0.63913E-05 18966   0.424E-02    0.112E-02
WARNING in EDDRMM: call to ZHEGV failed, returncode =   6  3     15
RMM:  21    -0.433641119485E+02   -0.19327E-04   -0.22684E-05 13282   0.300E-02    0.984E-03
RMM:  22    -0.433641647853E+02   -0.52837E-04   -0.17505E-04 23145   0.720E-02    0.109E-02
RMM:  23    -0.433642141007E+02   -0.49315E-04   -0.22783E-04 23313   0.802E-02    0.105E-02
RMM:  24    -0.433642462457E+02   -0.32145E-04   -0.96409E-05 20867   0.503E-02    0.759E-03
RMM:  25    -0.433642669657E+02   -0.20720E-04   -0.45794E-04 23501   0.115E-01    0.121E-02
RMM:  26    -0.433642876215E+02   -0.20656E-04   -0.20634E-05 12171   0.352E-02    0.283E-03
RMM:  27    -0.433642929176E+02   -0.52961E-05   -0.13912E-04 20591   0.635E-02    0.627E-03
RMM:  28    -0.433642975733E+02   -0.46557E-05   -0.74383E-06  9651   0.202E-02
   1 F= -.43364298E+02 E0= -.43364298E+02  d E =0.000000E+00  mag=    -0.0003
 -----------------------------------------------------------------------------
|                                                                             |
|           W    W    AA    RRRRR   N    N  II  N    N   GGGG   !!!           |
|           W    W   A  A   R    R  NN   N  II  NN   N  G    G  !!!           |
|           W    W  A    A  R    R  N N  N  II  N N  N  G       !!!           |
|           W WW W  AAAAAA  RRRRR   N  N N  II  N  N N  G  GGG   !            |
|           WW  WW  A    A  R   R   N   NN  II  N   NN  G    G                |
|           W    W  A    A  R    R  N    N  II  N    N   GGGG   !!!           |
|                                                                             |
|     Tetrahedron method does not include variations of the Fermi             |
|     occupations, so forces and stress will be inaccurate. We suggest        |
|     using a different smearing scheme ISMEAR = 1 or 2 for metals in         |
|     relaxations.                                                            |
|                                                                             |
 -----------------------------------------------------------------------------

