   26   26    1    2
  0.1043408E+02  0.4787093E-09  0.7215480E-09  0.8662006E-09  0.5000000E-15
  1.000000000000000E-004
  CAR 
 unknown system                          
    128     71     86
 
  0.0000000E+00  0.0000000E+00  0.0000000E+00  0.7142857E-02
    1      -41.045835    -41.045889   1.000000   1.000000
    2      -41.043718    -41.043777   1.000000   1.000000
    3      -41.032133    -41.032138   1.000000   1.000000
    4      -41.031364    -41.031375   1.000000   1.000000
    5      -40.951607    -40.951624   1.000000   1.000000
    6      -40.951305    -40.951323   1.000000   1.000000
    7      -40.933339    -40.933345   1.000000   1.000000
    8      -40.907982    -40.907987   1.000000   1.000000
    9      -19.896301    -19.896342   1.000000   1.000000
   10      -19.828468    -19.828508   1.000000   1.000000
   11      -19.096954    -19.096993   1.000000   1.000000
   12      -19.072236    -19.072275   1.000000   1.000000
   13      -17.280789    -17.280823   1.000000   1.000000
   14      -17.262141    -17.262174   1.000000   1.000000
   15      -16.641642    -16.641682   1.000000   1.000000
   16      -16.622560    -16.622598   1.000000   1.000000
   17      -16.602424    -16.602461   1.000000   1.000000
   18      -16.563202    -16.563240   1.000000   1.000000
   19      -16.509178    -16.509216   1.000000   1.000000
   20      -16.462230    -16.462267   1.000000   1.000000
   21      -16.255553    -16.255592   1.000000   1.000000
   22      -16.237078    -16.237116   1.000000   1.000000
   23       -7.809753     -7.809796   1.000000   1.000000
   24       -7.765149     -7.765192   1.000000   1.000000
   25       -5.408754     -5.408818   1.000000   1.000000
   26       -4.940448     -4.940507   1.000000   1.000000
   27       -4.594652     -4.594715   1.000000   1.000000
   28       -4.455591     -4.455655   1.000000   1.000000
   29       -4.201723     -4.201792   1.000000   1.000000
   30       -4.002074     -4.002144   1.000000   1.000000
   31       -3.810703     -3.810769   1.000000   1.000000
   32       -3.792083     -3.792151   1.000000   1.000000
   33       -3.557185     -3.557250   1.000000   1.000000
   34       -3.520143     -3.520209   1.000000   1.000000
   35       -3.364045     -3.364109   1.000000   1.000000
   36       -3.286653     -3.286716   1.000000   1.000000
   37       -2.866006     -2.866074   1.000000   1.000000
   38       -2.668912     -2.668976   1.000000   1.000000
   39       -2.151022     -2.151089   1.000000   1.000000
   40       -1.806127     -1.806189   1.000000   1.000000
   41       -1.753131     -1.753194   1.000000   1.000000
   42       -1.685287     -1.685353   1.000000   1.000000
   43       -1.618062     -1.618124   1.000000   1.000000
   44       -1.335931     -1.335989   1.000000   1.000000
   45       -1.250681     -1.250742   1.000000   1.000000
   46       -1.130349     -1.130410   1.000000   1.000000
   47       -1.007951     -1.008011   1.000000   1.000000
   48       -0.929582     -0.929637   1.000000   1.000000
   49       -0.743527     -0.743579   1.000000   1.000000
   50       -0.691791     -0.691849   1.000000   1.000000
   51       -0.507059     -0.507115   1.000000   1.000000
   52       -0.450243     -0.450294   1.000000   1.000000
   53       -0.236217     -0.236273   1.000000   1.000000
   54        0.084150      0.084096   1.000000   1.000000
   55        0.091630      0.091577   1.000000   1.000000
   56        0.094797      0.094743   1.000000   1.000000
   57        0.363392      0.363341   1.000000   1.000000
   58        0.490008      0.489947   1.000000   1.000000
   59        0.517965      0.517911   1.000000   1.000000
   60        0.574523      0.574468   1.000000   1.000000
   61        0.635723      0.635665   1.000000   1.000000
   62        0.745145      0.745094   1.000000   1.000000
   63        0.875700      0.875648   1.000000   1.000000
   64        0.888532      0.888484   1.000000   1.000000
   65        7.123372      7.123240   0.000001   0.000002
   66        9.517339      9.517232   0.000000   0.000000
   67        9.602019      9.601914   0.000000   0.000000
   68        9.743644      9.743556   0.000000   0.000000
   69        9.867242      9.867127   0.000000   0.000000
   70        9.983721      9.983619   0.000000   0.000000
   71       10.167866     10.167741   0.000000   0.000000
   72       10.630025     10.629888   0.000000   0.000000
   73       10.773902     10.773763   0.000000   0.000000
   74       10.844165     10.844073   0.000000   0.000000
   75       11.082190     11.082055   0.000000   0.000000
   76       11.387921     11.387789   0.000000   0.000000
   77       11.413153     11.413049   0.000000   0.000000
   78       11.798999     11.798869   0.000000   0.000000
   79       11.820092     11.819979   0.000000   0.000000
   80       12.218106     12.217991   0.000000   0.000000
   81       12.303351     12.303213   0.000000   0.000000
   82       12.388839     12.388727   0.000000   0.000000
   83       12.706374     12.706235   0.000000   0.000000
   84       12.739551     12.739457   0.000000   0.000000
   85       12.953902     12.953929   0.000000   0.000000
   86       13.436348     13.268944   0.000000   0.000000
 
  0.1428571E+00  0.1182089E-16  0.9807646E-15  0.1428571E-01
    1      -41.045685    -41.045739   1.000000   1.000000
    2      -41.043705    -41.043765   1.000000   1.000000
    3      -41.032037    -41.032042   1.000000   1.000000
    4      -41.031327    -41.031337   1.000000   1.000000
    5      -40.951720    -40.951738   1.000000   1.000000
    6      -40.951443    -40.951461   1.000000   1.000000
    7      -40.933339    -40.933344   1.000000   1.000000
    8      -40.908060    -40.908066   1.000000   1.000000
    9      -19.887143    -19.887183   1.000000   1.000000
   10      -19.825906    -19.825946   1.000000   1.000000
   11      -19.092299    -19.092338   1.000000   1.000000
   12      -19.070930    -19.070969   1.000000   1.000000
   13      -17.281357    -17.281390   1.000000   1.000000
   14      -17.265215    -17.265249   1.000000   1.000000
   15      -16.642595    -16.642635   1.000000   1.000000
   16      -16.626958    -16.626996   1.000000   1.000000
   17      -16.608545    -16.608583   1.000000   1.000000
   18      -16.572698    -16.572737   1.000000   1.000000
   19      -16.514999    -16.515037   1.000000   1.000000
   20      -16.473984    -16.474022   1.000000   1.000000
   21      -16.257654    -16.257693   1.000000   1.000000
   22      -16.239746    -16.239785   1.000000   1.000000
   23       -7.817265     -7.817309   1.000000   1.000000
   24       -7.776578     -7.776620   1.000000   1.000000
   25       -5.400523     -5.400587   1.000000   1.000000
   26       -4.952408     -4.952467   1.000000   1.000000
   27       -4.589238     -4.589300   1.000000   1.000000
   28       -4.440436     -4.440499   1.000000   1.000000
   29       -4.189497     -4.189566   1.000000   1.000000
   30       -3.984113     -3.984182   1.000000   1.000000
   31       -3.770200     -3.770267   1.000000   1.000000
   32       -3.722234     -3.722299   1.000000   1.000000
   33       -3.556628     -3.556693   1.000000   1.000000
   34       -3.438299     -3.438365   1.000000   1.000000
   35       -3.318977     -3.319040   1.000000   1.000000
   36       -3.214286     -3.214350   1.000000   1.000000
   37       -2.832248     -2.832314   1.000000   1.000000
   38       -2.629019     -2.629083   1.000000   1.000000
   39       -2.122487     -2.122554   1.000000   1.000000
   40       -1.867806     -1.867870   1.000000   1.000000
   41       -1.767459     -1.767526   1.000000   1.000000
   42       -1.721424     -1.721487   1.000000   1.000000
   43       -1.603874     -1.603936   1.000000   1.000000
   44       -1.382989     -1.383050   1.000000   1.000000
   45       -1.208671     -1.208730   1.000000   1.000000
   46       -1.173984     -1.174046   1.000000   1.000000
   47       -0.994144     -0.994202   1.000000   1.000000
   48       -0.954016     -0.954071   1.000000   1.000000
   49       -0.794585     -0.794638   1.000000   1.000000
   50       -0.736388     -0.736448   1.000000   1.000000
   51       -0.624176     -0.624233   1.000000   1.000000
   52       -0.488109     -0.488160   1.000000   1.000000
   53       -0.224130     -0.224186   1.000000   1.000000
   54        0.009198      0.009144   1.000000   1.000000
   55        0.086034      0.085978   1.000000   1.000000
   56        0.113266      0.113214   1.000000   1.000000
   57        0.315354      0.315303   1.000000   1.000000
   58        0.462303      0.462246   1.000000   1.000000
   59        0.541222      0.541170   1.000000   1.000000
   60        0.591574      0.591517   1.000000   1.000000
   61        0.656112      0.656056   1.000000   1.000000
   62        0.760819      0.760768   1.000000   1.000000
   63        0.877682      0.877633   1.000000   1.000000
   64        0.903686      0.903634   1.000000   1.000000
   65        7.317437      7.317305  -0.000000  -0.000000
   66        9.412273      9.412165   0.000000   0.000000
   67        9.559304      9.559193   0.000000   0.000000
   68        9.703575      9.703476   0.000000   0.000000
   69        9.882878      9.882748   0.000000   0.000000
   70        9.931998      9.931885   0.000000   0.000000
   71       10.231084     10.230973   0.000000   0.000000
   72       10.698507     10.698401   0.000000   0.000000
   73       10.808779     10.808657   0.000000   0.000000
   74       10.960350     10.960229   0.000000   0.000000
   75       11.120370     11.120245   0.000000   0.000000
   76       11.242619     11.242498   0.000000   0.000000
   77       11.431178     11.431070   0.000000   0.000000
   78       11.766731     11.766598   0.000000   0.000000
   79       11.813674     11.813551   0.000000   0.000000
   80       11.953417     11.953289   0.000000   0.000000
   81       12.076354     12.076242   0.000000   0.000000
   82       12.146180     12.146068   0.000000   0.000000
   83       12.480715     12.480599   0.000000   0.000000
   84       12.839536     12.839430   0.000000   0.000000
   85       12.981735     12.981756   0.000000   0.000000
   86       13.029948     13.018065   0.000000   0.000000
 
  0.2857143E+00 -0.2013313E-16  0.1980388E-14  0.1428571E-01
    1      -41.045297    -41.045352   1.000000   1.000000
    2      -41.043668    -41.043727   1.000000   1.000000
    3      -41.031764    -41.031769   1.000000   1.000000
    4      -41.031246    -41.031255   1.000000   1.000000
    5      -40.951979    -40.951997   1.000000   1.000000
    6      -40.951717    -40.951735   1.000000   1.000000
    7      -40.933304    -40.933310   1.000000   1.000000
    8      -40.908226    -40.908231   1.000000   1.000000
    9      -19.864717    -19.864758   1.000000   1.000000
   10      -19.821417    -19.821457   1.000000   1.000000
   11      -19.081563    -19.081602   1.000000   1.000000
   12      -19.068083    -19.068121   1.000000   1.000000
   13      -17.283013    -17.283047   1.000000   1.000000
   14      -17.272410    -17.272443   1.000000   1.000000
   15      -16.646701    -16.646741   1.000000   1.000000
   16      -16.640690    -16.640729   1.000000   1.000000
   17      -16.618744    -16.618782   1.000000   1.000000
   18      -16.590345    -16.590384   1.000000   1.000000
   19      -16.527871    -16.527910   1.000000   1.000000
   20      -16.501205    -16.501243   1.000000   1.000000
   21      -16.261896    -16.261935   1.000000   1.000000
   22      -16.245867    -16.245906   1.000000   1.000000
   23       -7.834639     -7.834682   1.000000   1.000000
   24       -7.802434     -7.802477   1.000000   1.000000
   25       -5.374998     -5.375061   1.000000   1.000000
   26       -4.983689     -4.983747   1.000000   1.000000
   27       -4.561141     -4.561202   1.000000   1.000000
   28       -4.420719     -4.420780   1.000000   1.000000
   29       -4.155854     -4.155924   1.000000   1.000000
   30       -3.951982     -3.952051   1.000000   1.000000
   31       -3.660124     -3.660191   1.000000   1.000000
   32       -3.600495     -3.600560   1.000000   1.000000
   33       -3.540964     -3.541028   1.000000   1.000000
   34       -3.324163     -3.324228   1.000000   1.000000
   35       -3.130553     -3.130614   1.000000   1.000000
   36       -3.001039     -3.001098   1.000000   1.000000
   37       -2.753599     -2.753665   1.000000   1.000000
   38       -2.534584     -2.534648   1.000000   1.000000
   39       -2.063078     -2.063145   1.000000   1.000000
   40       -1.961488     -1.961554   1.000000   1.000000
   41       -1.853307     -1.853376   1.000000   1.000000
   42       -1.705839     -1.705900   1.000000   1.000000
   43       -1.587302     -1.587365   1.000000   1.000000
   44       -1.425296     -1.425357   1.000000   1.000000
   45       -1.249164     -1.249225   1.000000   1.000000
   46       -1.220671     -1.220732   1.000000   1.000000
   47       -1.103002     -1.103061   1.000000   1.000000
   48       -0.989734     -0.989791   1.000000   1.000000
   49       -0.976407     -0.976464   1.000000   1.000000
   50       -0.854880     -0.854939   1.000000   1.000000
   51       -0.805358     -0.805416   1.000000   1.000000
   52       -0.548825     -0.548879   1.000000   1.000000
   53       -0.229882     -0.229937   1.000000   1.000000
   54       -0.078029     -0.078085   1.000000   1.000000
   55        0.031762      0.031706   1.000000   1.000000
   56        0.087528      0.087475   1.000000   1.000000
   57        0.258215      0.258162   1.000000   1.000000
   58        0.422612      0.422560   1.000000   1.000000
   59        0.546710      0.546655   1.000000   1.000000
   60        0.611124      0.611071   1.000000   1.000000
   61        0.722757      0.722704   1.000000   1.000000
   62        0.808536      0.808485   1.000000   1.000000
   63        0.882687      0.882637   1.000000   1.000000
   64        0.936878      0.936824   1.000000   1.000000
   65        7.811201      7.811066   0.000000   0.000000
   66        9.349989      9.349872   0.000000   0.000000
   67        9.414430      9.414302   0.000000   0.000000
   68        9.648691      9.648586   0.000000   0.000000
   69        9.788905      9.788772   0.000000   0.000000
   70       10.000018      9.999905   0.000000   0.000000
   71       10.341519     10.341404   0.000000   0.000000
   72       10.559099     10.559000   0.000000   0.000000
   73       10.824987     10.824866   0.000000   0.000000
   74       10.999888     10.999771   0.000000   0.000000
   75       11.113136     11.113006   0.000000   0.000000
   76       11.157953     11.157854   0.000000   0.000000
   77       11.339545     11.339419   0.000000   0.000000
   78       11.437620     11.437514   0.000000   0.000000
   79       11.632889     11.632770   0.000000   0.000000
   80       11.808897     11.808779   0.000000   0.000000
   81       11.888629     11.888525   0.000000   0.000000
   82       12.001731     12.001606   0.000000   0.000000
   83       12.239837     12.239732   0.000000   0.000000
   84       12.630349     12.630234   0.000000   0.000000
   85       12.848169     12.848063   0.000000   0.000000
   86       13.229198     13.228866   0.000000   0.000000
 
  0.4285714E+00  0.9725347E-17  0.2968092E-14  0.1428571E-01
    1      -41.044937    -41.044993   1.000000   1.000000
    2      -41.043640    -41.043699   1.000000   1.000000
    3      -41.031437    -41.031443   1.000000   1.000000
    4      -41.031234    -41.031242   1.000000   1.000000
    5      -40.952161    -40.952179   1.000000   1.000000
    6      -40.951925    -40.951943   1.000000   1.000000
    7      -40.933259    -40.933265   1.000000   1.000000
    8      -40.908333    -40.908338   1.000000   1.000000
    9      -19.842030    -19.842070   1.000000   1.000000
   10      -19.822124    -19.822163   1.000000   1.000000
   11      -19.072271    -19.072310   1.000000   1.000000
   12      -19.066353    -19.066392   1.000000   1.000000
   13      -17.284723    -17.284757   1.000000   1.000000
   14      -17.278422    -17.278455   1.000000   1.000000
   15      -16.654723    -16.654762   1.000000   1.000000
   16      -16.652740    -16.652779   1.000000   1.000000
   17      -16.623155    -16.623194   1.000000   1.000000
   18      -16.601393    -16.601432   1.000000   1.000000
   19      -16.535452    -16.535491   1.000000   1.000000
   20      -16.526096    -16.526135   1.000000   1.000000
   21      -16.264711    -16.264751   1.000000   1.000000
   22      -16.250990    -16.251029   1.000000   1.000000
   23       -7.849038     -7.849082   1.000000   1.000000
   24       -7.823286     -7.823330   1.000000   1.000000
   25       -5.343450     -5.343513   1.000000   1.000000
   26       -5.019717     -5.019777   1.000000   1.000000
   27       -4.523153     -4.523212   1.000000   1.000000
   28       -4.419382     -4.419441   1.000000   1.000000
   29       -4.117351     -4.117421   1.000000   1.000000
   30       -3.933513     -3.933583   1.000000   1.000000
   31       -3.639389     -3.639457   1.000000   1.000000
   32       -3.472219     -3.472281   1.000000   1.000000
   33       -3.469946     -3.470008   1.000000   1.000000
   34       -3.290324     -3.290389   1.000000   1.000000
   35       -2.898701     -2.898757   1.000000   1.000000
   36       -2.790792     -2.790848   1.000000   1.000000
   37       -2.666409     -2.666474   1.000000   1.000000
   38       -2.472191     -2.472256   1.000000   1.000000
   39       -2.049308     -2.049376   1.000000   1.000000
   40       -1.974040     -1.974107   1.000000   1.000000
   41       -1.827133     -1.827200   1.000000   1.000000
   42       -1.729989     -1.730052   1.000000   1.000000
   43       -1.524048     -1.524109   1.000000   1.000000
   44       -1.472766     -1.472833   1.000000   1.000000
   45       -1.433422     -1.433487   1.000000   1.000000
   46       -1.303685     -1.303745   1.000000   1.000000
   47       -1.227452     -1.227513   1.000000   1.000000
   48       -1.154659     -1.154719   1.000000   1.000000
   49       -1.033653     -1.033712   1.000000   1.000000
   50       -0.985391     -0.985454   1.000000   1.000000
   51       -0.832628     -0.832683   1.000000   1.000000
   52       -0.592073     -0.592127   1.000000   1.000000
   53       -0.308938     -0.308995   1.000000   1.000000
   54       -0.119171     -0.119226   1.000000   1.000000
   55       -0.004830     -0.004885   1.000000   1.000000
   56        0.039157      0.039104   1.000000   1.000000
   57        0.271716      0.271662   1.000000   1.000000
   58        0.356995      0.356943   1.000000   1.000000
   59        0.585173      0.585118   1.000000   1.000000
   60        0.619841      0.619790   1.000000   1.000000
   61        0.762830      0.762779   1.000000   1.000000
   62        0.815315      0.815270   1.000000   1.000000
   63        0.926846      0.926791   1.000000   1.000000
   64        0.955945      0.955891   1.000000   1.000000
   65        8.350675      8.350527   0.000000   0.000000
   66        9.209657      9.209522   0.000000   0.000000
   67        9.498542      9.498434   0.000000   0.000000
   68        9.629706      9.629593   0.000000   0.000000
   69        9.700514      9.700378   0.000000   0.000000
   70       10.148883     10.148770   0.000000   0.000000
   71       10.254315     10.254209   0.000000   0.000000
   72       10.408783     10.408680   0.000000   0.000000
   73       10.550030     10.549904   0.000000   0.000000
   74       10.759821     10.759699   0.000000   0.000000
   75       10.809764     10.809645   0.000000   0.000000
   76       11.157013     11.156880   0.000000   0.000000
   77       11.211195     11.211099   0.000000   0.000000
   78       11.485624     11.485510   0.000000   0.000000
   79       11.559112     11.559012   0.000000   0.000000
   80       11.832076     11.831960   0.000000   0.000000
   81       11.858251     11.858151   0.000000   0.000000
   82       12.076060     12.075956   0.000000   0.000000
   83       12.195906     12.195792   0.000000   0.000000
   84       12.456847     12.456750   0.000000   0.000000
   85       12.844599     12.844480   0.000000   0.000000
   86       13.332558     13.332719   0.000000   0.000000
 
  0.0000000E+00  0.2000000E+00 -0.1158540E-15  0.1428571E-01
    1      -41.045695    -41.045749   1.000000   1.000000
    2      -41.043866    -41.043925   1.000000   1.000000
    3      -41.032439    -41.032445   1.000000   1.000000
    4      -41.031079    -41.031090   1.000000   1.000000
    5      -40.951585    -40.951603   1.000000   1.000000
    6      -40.951343    -40.951360   1.000000   1.000000
    7      -40.933413    -40.933419   1.000000   1.000000
    8      -40.907949    -40.907954   1.000000   1.000000
    9      -19.885186    -19.885226   1.000000   1.000000
   10      -19.833532    -19.833572   1.000000   1.000000
   11      -19.094869    -19.094908   1.000000   1.000000
   12      -19.086563    -19.086602   1.000000   1.000000
   13      -17.277222    -17.277256   1.000000   1.000000
   14      -17.266010    -17.266043   1.000000   1.000000
   15      -16.654095    -16.654135   1.000000   1.000000
   16      -16.612917    -16.612955   1.000000   1.000000
   17      -16.595473    -16.595510   1.000000   1.000000
   18      -16.558760    -16.558798   1.000000   1.000000
   19      -16.502950    -16.502988   1.000000   1.000000
   20      -16.465872    -16.465909   1.000000   1.000000
   21      -16.254918    -16.254957   1.000000   1.000000
   22      -16.238907    -16.238945   1.000000   1.000000
   23       -7.811216     -7.811259   1.000000   1.000000
   24       -7.802890     -7.802933   1.000000   1.000000
   25       -5.390959     -5.391023   1.000000   1.000000
   26       -4.918273     -4.918331   1.000000   1.000000
   27       -4.590888     -4.590951   1.000000   1.000000
   28       -4.437321     -4.437384   1.000000   1.000000
   29       -4.186981     -4.187050   1.000000   1.000000
   30       -3.973921     -3.973990   1.000000   1.000000
   31       -3.826352     -3.826418   1.000000   1.000000
   32       -3.797631     -3.797698   1.000000   1.000000
   33       -3.635167     -3.635233   1.000000   1.000000
   34       -3.511277     -3.511342   1.000000   1.000000
   35       -3.354680     -3.354743   1.000000   1.000000
   36       -3.273570     -3.273634   1.000000   1.000000
   37       -2.790656     -2.790722   1.000000   1.000000
   38       -2.708864     -2.708930   1.000000   1.000000
   39       -2.068309     -2.068376   1.000000   1.000000
   40       -1.836090     -1.836155   1.000000   1.000000
   41       -1.741497     -1.741562   1.000000   1.000000
   42       -1.716254     -1.716317   1.000000   1.000000
   43       -1.655765     -1.655828   1.000000   1.000000
   44       -1.358445     -1.358504   1.000000   1.000000
   45       -1.191444     -1.191506   1.000000   1.000000
   46       -1.127834     -1.127894   1.000000   1.000000
   47       -0.980267     -0.980325   1.000000   1.000000
   48       -0.933573     -0.933627   1.000000   1.000000
   49       -0.758366     -0.758419   1.000000   1.000000
   50       -0.678670     -0.678729   1.000000   1.000000
   51       -0.566770     -0.566822   1.000000   1.000000
   52       -0.514259     -0.514315   1.000000   1.000000
   53       -0.267427     -0.267483   1.000000   1.000000
   54        0.072432      0.072378   1.000000   1.000000
   55        0.096040      0.095985   1.000000   1.000000
   56        0.185664      0.185612   1.000000   1.000000
   57        0.292138      0.292085   1.000000   1.000000
   58        0.498526      0.498468   1.000000   1.000000
   59        0.509547      0.509491   1.000000   1.000000
   60        0.553870      0.553815   1.000000   1.000000
   61        0.675796      0.675738   1.000000   1.000000
   62        0.734315      0.734265   1.000000   1.000000
   63        0.858471      0.858418   1.000000   1.000000
   64        0.897776      0.897729   1.000000   1.000000
   65        7.360320      7.360190  -0.000000  -0.000000
   66        9.219658      9.219548   0.000000   0.000000
   67        9.391063      9.390948   0.000000   0.000000
   68        9.811562      9.811467   0.000000   0.000000
   69        9.923843      9.923728   0.000000   0.000000
   70       10.119457     10.119356   0.000000   0.000000
   71       10.300632     10.300530   0.000000   0.000000
   72       10.574739     10.574597   0.000000   0.000000
   73       10.761990     10.761884   0.000000   0.000000
   74       10.818024     10.817895   0.000000   0.000000
   75       11.137896     11.137773   0.000000   0.000000
   76       11.274116     11.274006   0.000000   0.000000
   77       11.505114     11.504994   0.000000   0.000000
   78       11.771577     11.771456   0.000000   0.000000
   79       11.880485     11.880382   0.000000   0.000000
   80       12.059208     12.059071   0.000000   0.000000
   81       12.351895     12.351768   0.000000   0.000000
   82       12.507103     12.506967   0.000000   0.000000
   83       12.690368     12.690258   0.000000   0.000000
   84       12.795181     12.795049   0.000000   0.000000
   85       12.968890     12.968971   0.000000   0.000000
   86       13.303319     13.314755   0.000000   0.000000
 
  0.1428571E+00  0.2000000E+00  0.8649106E-15  0.1428571E-01
    1      -41.045493    -41.045547   1.000000   1.000000
    2      -41.043890    -41.043949   1.000000   1.000000
    3      -41.032390    -41.032395   1.000000   1.000000
    4      -41.030978    -41.030988   1.000000   1.000000
    5      -40.951656    -40.951674   1.000000   1.000000
    6      -40.951481    -40.951499   1.000000   1.000000
    7      -40.933474    -40.933480   1.000000   1.000000
    8      -40.907986    -40.907991   1.000000   1.000000
    9      -19.870158    -19.870198   1.000000   1.000000
   10      -19.833005    -19.833045   1.000000   1.000000
   11      -19.103326    -19.103366   1.000000   1.000000
   12      -19.079149    -19.079188   1.000000   1.000000
   13      -17.276934    -17.276967   1.000000   1.000000
   14      -17.270475    -17.270509   1.000000   1.000000
   15      -16.655314    -16.655354   1.000000   1.000000
   16      -16.614898    -16.614935   1.000000   1.000000
   17      -16.599983    -16.600020   1.000000   1.000000
   18      -16.565040    -16.565078   1.000000   1.000000
   19      -16.502305    -16.502342   1.000000   1.000000
   20      -16.484465    -16.484503   1.000000   1.000000
   21      -16.255800    -16.255839   1.000000   1.000000
   22      -16.243420    -16.243459   1.000000   1.000000
   23       -7.844692     -7.844736   1.000000   1.000000
   24       -7.808572     -7.808616   1.000000   1.000000
   25       -5.379762     -5.379826   1.000000   1.000000
   26       -4.903808     -4.903866   1.000000   1.000000
   27       -4.578950     -4.579012   1.000000   1.000000
   28       -4.419519     -4.419581   1.000000   1.000000
   29       -4.170938     -4.171008   1.000000   1.000000
   30       -3.947603     -3.947672   1.000000   1.000000
   31       -3.790471     -3.790537   1.000000   1.000000
   32       -3.763193     -3.763260   1.000000   1.000000
   33       -3.651632     -3.651698   1.000000   1.000000
   34       -3.433448     -3.433513   1.000000   1.000000
   35       -3.270988     -3.271051   1.000000   1.000000
   36       -3.217475     -3.217537   1.000000   1.000000
   37       -2.733394     -2.733459   1.000000   1.000000
   38       -2.642692     -2.642758   1.000000   1.000000
   39       -2.010236     -2.010302   1.000000   1.000000
   40       -1.911070     -1.911138   1.000000   1.000000
   41       -1.793160     -1.793227   1.000000   1.000000
   42       -1.706589     -1.706651   1.000000   1.000000
   43       -1.655890     -1.655952   1.000000   1.000000
   44       -1.331492     -1.331551   1.000000   1.000000
   45       -1.232198     -1.232260   1.000000   1.000000
   46       -1.117024     -1.117083   1.000000   1.000000
   47       -1.059146     -1.059204   1.000000   1.000000
   48       -0.953828     -0.953882   1.000000   1.000000
   49       -0.829866     -0.829922   1.000000   1.000000
   50       -0.711673     -0.711728   1.000000   1.000000
   51       -0.685623     -0.685680   1.000000   1.000000
   52       -0.555600     -0.555656   1.000000   1.000000
   53       -0.243653     -0.243708   1.000000   1.000000
   54        0.016638      0.016584   1.000000   1.000000
   55        0.037140      0.037086   1.000000   1.000000
   56        0.199430      0.199376   1.000000   1.000000
   57        0.266756      0.266702   1.000000   1.000000
   58        0.453214      0.453160   1.000000   1.000000
   59        0.533610      0.533554   1.000000   1.000000
   60        0.588906      0.588848   1.000000   1.000000
   61        0.700447      0.700395   1.000000   1.000000
   62        0.734572      0.734516   1.000000   1.000000
   63        0.863175      0.863126   1.000000   1.000000
   64        0.907079      0.907029   1.000000   1.000000
   65        7.682251      7.682123   0.000000   0.000000
   66        9.112794      9.112675   0.000000   0.000000
   67        9.209860      9.209740   0.000000   0.000000
   68        9.797776      9.797678   0.000000   0.000000
   69        9.921315      9.921195   0.000000   0.000000
   70       10.103578     10.103467   0.000000   0.000000
   71       10.486992     10.486900   0.000000   0.000000
   72       10.554507     10.554382   0.000000   0.000000
   73       10.880445     10.880326   0.000000   0.000000
   74       10.981277     10.981159   0.000000   0.000000
   75       11.047054     11.046937   0.000000   0.000000
   76       11.216688     11.216580   0.000000   0.000000
   77       11.337214     11.337101   0.000000   0.000000