       N       E                     dE             d eps       ncg     rms          rms(c)
DAV:   1     0.113901122415E+04    0.11390E+04   -0.63097E+04 24424   0.154E+03
DAV:   2    -0.644932831298E+02   -0.12035E+04   -0.11323E+04 29016   0.405E+02
DAV:   3    -0.172996940904E+03   -0.10850E+03   -0.10785E+03 31482   0.124E+02
DAV:   4    -0.183172061395E+03   -0.10175E+02   -0.10132E+02 46600   0.298E+01
DAV:   5    -0.184566979045E+03   -0.13949E+01   -0.13945E+01 33112   0.649E+00    0.578E+01
DAV:   6    -0.162722203778E+03    0.21845E+02   -0.88615E+01 30410   0.327E+01    0.309E+01
DAV:   7    -0.164651054073E+03   -0.19289E+01   -0.79998E+00 32392   0.934E+00    0.100E+01
DAV:   8    -0.164939579322E+03   -0.28853E+00   -0.92118E-01 32576   0.381E+00    0.498E+00
DAV:   9    -0.165066414612E+03   -0.12684E+00   -0.16599E-01 33016   0.175E+00    0.222E+00
DAV:  10    -0.165089778071E+03   -0.23363E-01   -0.57805E-02 30064   0.119E+00    0.664E-01
DAV:  11    -0.165100351497E+03   -0.10573E-01   -0.12389E-02 30328   0.484E-01    0.345E-01
DAV:  12    -0.165102990029E+03   -0.26385E-02   -0.20070E-03 30344   0.208E-01    0.168E-01
DAV:  13    -0.165103916565E+03   -0.92654E-03   -0.88966E-04 28808   0.125E-01    0.499E-02
DAV:  14    -0.165104060208E+03   -0.14364E-03   -0.16011E-04 35656   0.572E-02    0.287E-02
DAV:  15    -0.165104122700E+03   -0.62492E-04   -0.52090E-05 25208   0.312E-02    0.185E-02
DAV:  16    -0.165104133408E+03   -0.10708E-04   -0.83379E-06 20216   0.140E-02    0.109E-02
DAV:  17    -0.165104136702E+03   -0.32941E-05   -0.52215E-06 17328   0.921E-03
   1 F= -.16510414E+03 E0= -.16510414E+03  d E =0.000000E+00  mag=    -0.0009
