Automatically generated mesh
     222
Reciprocal lattice
    0.00000000000000    0.00000000000000    0.00000000000000             1
    0.08333333333334    0.00000000000000    0.00000000000000             2
    0.16666666666666    0.00000000000000    0.00000000000000             2
    0.25000000000000    0.00000000000000    0.00000000000000             2
    0.33333333333334   -0.00000000000000    0.00000000000000             2
    0.41666666666666    0.00000000000000    0.00000000000000             2
    0.50000000000000    0.00000000000000    0.00000000000000             1
    0.00000000000000    0.08333333333334    0.00000000000000             2
    0.08333333333334    0.08333333333334    0.00000000000000             2
    0.16666666666666    0.08333333333334    0.00000000000000             2
    0.25000000000000    0.08333333333334    0.00000000000000             2
    0.33333333333334    0.08333333333334    0.00000000000000             2
    0.41666666666666    0.08333333333334    0.00000000000000             2
    0.50000000000000    0.08333333333334    0.00000000000000             2
   -0.41666666666666    0.08333333333334    0.00000000000000             2
   -0.33333333333334    0.08333333333334    0.00000000000000             2
   -0.25000000000000    0.08333333333334    0.00000000000000             2
   -0.16666666666666    0.08333333333334    0.00000000000000             2
   -0.08333333333334    0.08333333333334    0.00000000000000             2
    0.00000000000000    0.16666666666666    0.00000000000000             2
    0.08333333333334    0.16666666666666    0.00000000000000             2
    0.16666666666666    0.16666666666666    0.00000000000000             2
    0.25000000000000    0.16666666666666    0.00000000000000             2
    0.33333333333334    0.16666666666666    0.00000000000000             2
    0.41666666666666    0.16666666666666    0.00000000000000             2
    0.50000000000000    0.16666666666666    0.00000000000000             2
   -0.41666666666666    0.16666666666666    0.00000000000000             2
   -0.33333333333334    0.16666666666666    0.00000000000000             2
   -0.25000000000000    0.16666666666666    0.00000000000000             2
   -0.16666666666666    0.16666666666666    0.00000000000000             2
   -0.08333333333334    0.16666666666666    0.00000000000000             2
    0.00000000000000    0.25000000000000    0.00000000000000             2
    0.08333333333334    0.25000000000000    0.00000000000000             2
    0.16666666666666    0.25000000000000    0.00000000000000             2
    0.25000000000000    0.25000000000000    0.00000000000000             2
    0.33333333333334    0.25000000000000    0.00000000000000             2
    0.41666666666666    0.25000000000000    0.00000000000000             2
    0.50000000000000    0.25000000000000    0.00000000000000             2
   -0.41666666666666    0.25000000000000    0.00000000000000             2
   -0.33333333333334    0.25000000000000    0.00000000000000             2
   -0.25000000000000    0.25000000000000    0.00000000000000             2
   -0.16666666666666    0.25000000000000    0.00000000000000             2
   -0.08333333333334    0.25000000000000    0.00000000000000             2
    0.00000000000000    0.33333333333334    0.00000000000000             2
    0.08333333333334    0.33333333333334    0.00000000000000             2
    0.16666666666666    0.33333333333334    0.00000000000000             2
    0.25000000000000    0.33333333333334    0.00000000000000             2
    0.33333333333334    0.33333333333334    0.00000000000000             2
    0.41666666666666    0.33333333333334    0.00000000000000             2
    0.50000000000000    0.33333333333334    0.00000000000000             2
   -0.41666666666666    0.33333333333334    0.00000000000000             2
   -0.33333333333334    0.33333333333334    0.00000000000000             2
   -0.25000000000000    0.33333333333334    0.00000000000000             2
   -0.16666666666666    0.33333333333334    0.00000000000000             2
   -0.08333333333334    0.33333333333334    0.00000000000000             2
    0.00000000000000    0.41666666666666    0.00000000000000             2
    0.08333333333334    0.41666666666666    0.00000000000000             2
    0.16666666666666    0.41666666666666    0.00000000000000             2
    0.25000000000000    0.41666666666666    0.00000000000000             2
    0.33333333333334    0.41666666666666    0.00000000000000             2
    0.41666666666666    0.41666666666666    0.00000000000000             2
    0.50000000000000    0.41666666666666    0.00000000000000             2
   -0.41666666666666    0.41666666666666    0.00000000000000             2
   -0.33333333333334    0.41666666666666    0.00000000000000             2
   -0.25000000000000    0.41666666666666    0.00000000000000             2
   -0.16666666666666    0.41666666666666    0.00000000000000             2
   -0.08333333333334    0.41666666666666    0.00000000000000             2
    0.00000000000000    0.50000000000000    0.00000000000000             1
    0.08333333333334    0.50000000000000    0.00000000000000             2
    0.16666666666666    0.50000000000000    0.00000000000000             2
    0.25000000000000    0.50000000000000    0.00000000000000             2
    0.33333333333334    0.50000000000000    0.00000000000000             2
    0.41666666666666    0.50000000000000    0.00000000000000             2
    0.50000000000000    0.50000000000000    0.00000000000000             1
    0.00000000000000    0.00000000000000    0.25000000000000             2
    0.08333333333334    0.00000000000000    0.25000000000000             4
    0.16666666666666    0.00000000000000    0.25000000000000             4
    0.25000000000000    0.00000000000000    0.25000000000000             4
    0.33333333333334   -0.00000000000000    0.25000000000000             4
    0.41666666666666    0.00000000000000    0.25000000000000             4
    0.50000000000000    0.00000000000000    0.25000000000000             2
    0.00000000000000    0.08333333333334    0.25000000000000             4
    0.08333333333334    0.08333333333334    0.25000000000000             4
    0.16666666666666    0.08333333333334    0.25000000000000             4
    0.25000000000000    0.08333333333334    0.25000000000000             4
    0.33333333333334    0.08333333333334    0.25000000000000             4
    0.41666666666666    0.08333333333334    0.25000000000000             4
    0.50000000000000    0.08333333333334    0.25000000000000             4
   -0.41666666666666    0.08333333333334    0.25000000000000             4
   -0.33333333333334    0.08333333333334    0.25000000000000             4
   -0.25000000000000    0.08333333333334    0.25000000000000             4
   -0.16666666666666    0.08333333333334    0.25000000000000             4
   -0.08333333333334    0.08333333333334    0.25000000000000             4
    0.00000000000000    0.16666666666666    0.25000000000000             4
    0.08333333333334    0.16666666666666    0.25000000000000             4
    0.16666666666666    0.16666666666666    0.25000000000000             4
    0.25000000000000    0.16666666666666    0.25000000000000             4
    0.33333333333334    0.16666666666666    0.25000000000000             4
    0.41666666666666    0.16666666666666    0.25000000000000             4
    0.50000000000000    0.16666666666666    0.25000000000000             4
   -0.41666666666666    0.16666666666666    0.25000000000000             4
   -0.33333333333334    0.16666666666666    0.25000000000000             4
   -0.25000000000000    0.16666666666666    0.25000000000000             4
   -0.16666666666666    0.16666666666666    0.25000000000000             4
   -0.08333333333334    0.16666666666666    0.25000000000000             4
    0.00000000000000    0.25000000000000    0.25000000000000             4
    0.08333333333334    0.25000000000000    0.25000000000000             4
    0.16666666666666    0.25000000000000    0.25000000000000             4
    0.25000000000000    0.25000000000000    0.25000000000000             4
    0.33333333333334    0.25000000000000    0.25000000000000             4
    0.41666666666666    0.25000000000000    0.25000000000000             4
    0.50000000000000    0.25000000000000    0.25000000000000             4
   -0.41666666666666    0.25000000000000    0.25000000000000             4
   -0.33333333333334    0.25000000000000    0.25000000000000             4
   -0.25000000000000    0.25000000000000    0.25000000000000             4
   -0.16666666666666    0.25000000000000    0.25000000000000             4
   -0.08333333333334    0.25000000000000    0.25000000000000             4
    0.00000000000000    0.33333333333334    0.25000000000000             4
    0.08333333333334    0.33333333333334    0.25000000000000             4
    0.16666666666666    0.33333333333334    0.25000000000000             4
    0.25000000000000    0.33333333333334    0.25000000000000             4
    0.33333333333334    0.33333333333334    0.25000000000000             4
    0.41666666666666    0.33333333333334    0.25000000000000             4
    0.50000000000000    0.33333333333334    0.25000000000000             4
   -0.41666666666666    0.33333333333334    0.25000000000000             4
   -0.33333333333334    0.33333333333334    0.25000000000000             4
   -0.25000000000000    0.33333333333334    0.25000000000000             4
   -0.16666666666666    0.33333333333334    0.25000000000000             4
   -0.08333333333334    0.33333333333334    0.25000000000000             4
    0.00000000000000    0.41666666666666    0.25000000000000             4
    0.08333333333334    0.41666666666666    0.25000000000000             4
    0.16666666666666    0.41666666666666    0.25000000000000             4
    0.25000000000000    0.41666666666666    0.25000000000000             4
    0.33333333333334    0.41666666666666    0.25000000000000             4
    0.41666666666666    0.41666666666666    0.25000000000000             4
    0.50000000000000    0.41666666666666    0.25000000000000             4
   -0.41666666666666    0.41666666666666    0.25000000000000             4
   -0.33333333333334    0.41666666666666    0.25000000000000             4
   -0.25000000000000    0.41666666666666    0.25000000000000             4
   -0.16666666666666    0.41666666666666    0.25000000000000             4
   -0.08333333333334    0.41666666666666    0.25000000000000             4
    0.00000000000000    0.50000000000000    0.25000000000000             2
    0.08333333333334    0.50000000000000    0.25000000000000             4
    0.16666666666666    0.50000000000000    0.25000000000000             4
    0.25000000000000    0.50000000000000    0.25000000000000             4
    0.33333333333334    0.50000000000000    0.25000000000000             4
    0.41666666666666    0.50000000000000    0.25000000000000             4
    0.50000000000000    0.50000000000000    0.25000000000000             2
    0.00000000000000    0.00000000000000    0.50000000000000             1
    0.08333333333334    0.00000000000000    0.50000000000000             2
    0.16666666666666    0.00000000000000    0.50000000000000             2
    0.25000000000000    0.00000000000000    0.50000000000000             2
    0.33333333333334   -0.00000000000000    0.50000000000000             2
    0.41666666666666    0.00000000000000    0.50000000000000             2
    0.50000000000000    0.00000000000000    0.50000000000000             1
    0.00000000000000    0.08333333333334    0.50000000000000             2
    0.08333333333334    0.08333333333334    0.50000000000000             2
    0.16666666666666    0.08333333333334    0.50000000000000             2
    0.25000000000000    0.08333333333334    0.50000000000000             2
    0.33333333333334    0.08333333333334    0.50000000000000             2
    0.41666666666666    0.08333333333334    0.50000000000000             2
    0.50000000000000    0.08333333333334    0.50000000000000             2
   -0.41666666666666    0.08333333333334    0.50000000000000             2
   -0.33333333333334    0.08333333333334    0.50000000000000             2
   -0.25000000000000    0.08333333333334    0.50000000000000             2
   -0.16666666666666    0.08333333333334    0.50000000000000             2
   -0.08333333333334    0.08333333333334    0.50000000000000             2
    0.00000000000000    0.16666666666666    0.50000000000000             2
    0.08333333333334    0.16666666666666    0.50000000000000             2
    0.16666666666666    0.16666666666666    0.50000000000000             2
    0.25000000000000    0.16666666666666    0.50000000000000             2
    0.33333333333334    0.16666666666666    0.50000000000000             2
    0.41666666666666    0.16666666666666    0.50000000000000             2
    0.50000000000000    0.16666666666666    0.50000000000000             2
   -0.41666666666666    0.16666666666666    0.50000000000000             2
   -0.33333333333334    0.16666666666666    0.50000000000000             2
   -0.25000000000000    0.16666666666666    0.50000000000000             2
   -0.16666666666666    0.16666666666666    0.50000000000000             2
   -0.08333333333334    0.16666666666666    0.50000000000000             2
    0.00000000000000    0.25000000000000    0.50000000000000             2
    0.08333333333334    0.25000000000000    0.50000000000000             2
    0.16666666666666    0.25000000000000    0.50000000000000             2
    0.25000000000000    0.25000000000000    0.50000000000000             2
    0.33333333333334    0.25000000000000    0.50000000000000             2
    0.41666666666666    0.25000000000000    0.50000000000000             2
    0.50000000000000    0.25000000000000    0.50000000000000             2
   -0.41666666666666    0.25000000000000    0.50000000000000             2
   -0.33333333333334    0.25000000000000    0.50000000000000             2
   -0.25000000000000    0.25000000000000    0.50000000000000             2
   -0.16666666666666    0.25000000000000    0.50000000000000             2
   -0.08333333333334    0.25000000000000    0.50000000000000             2
    0.00000000000000    0.33333333333334    0.50000000000000             2
    0.08333333333334    0.33333333333334    0.50000000000000             2
    0.16666666666666    0.33333333333334    0.50000000000000             2
    0.25000000000000    0.33333333333334    0.50000000000000             2
    0.33333333333334    0.33333333333334    0.50000000000000             2
    0.41666666666666    0.33333333333334    0.50000000000000             2
    0.50000000000000    0.33333333333334    0.50000000000000             2
   -0.41666666666666    0.33333333333334    0.50000000000000             2
   -0.33333333333334    0.33333333333334    0.50000000000000             2
   -0.25000000000000    0.33333333333334    0.50000000000000             2
   -0.16666666666666    0.33333333333334    0.50000000000000             2
   -0.08333333333334    0.33333333333334    0.50000000000000             2
    0.00000000000000    0.41666666666666    0.50000000000000             2
    0.08333333333334    0.41666666666666    0.50000000000000             2
    0.16666666666666    0.41666666666666    0.50000000000000             2
    0.25000000000000    0.41666666666666    0.50000000000000             2
    0.33333333333334    0.41666666666666    0.50000000000000             2
    0.41666666666666    0.41666666666666    0.50000000000000             2
    0.50000000000000    0.41666666666666    0.50000000000000             2
   -0.41666666666666    0.41666666666666    0.50000000000000             2
   -0.33333333333334    0.41666666666666    0.50000000000000             2
   -0.25000000000000    0.41666666666666    0.50000000000000             2
   -0.16666666666666    0.41666666666666    0.50000000000000             2
   -0.08333333333334    0.41666666666666    0.50000000000000             2
    0.00000000000000    0.50000000000000    0.50000000000000             1
    0.08333333333334    0.50000000000000    0.50000000000000             2
    0.16666666666666    0.50000000000000    0.50000000000000             2
    0.25000000000000    0.50000000000000    0.50000000000000             2
    0.33333333333334    0.50000000000000    0.50000000000000             2
    0.41666666666666    0.50000000000000    0.50000000000000             2
    0.50000000000000    0.50000000000000    0.50000000000000             1
Tetrahedra
      1728    0.00028935185185
         2         2         8         9        82
         2         1         2         8        82
         2         1         2        75        82
         2         2         9        82        83
         2         2        76        82        83
         2         2        75        76        82
         2         3         9        10        83
         2         2         3         9        83
         2         2         3        76        83
         2         3        10        83        84
         2         3        77        83        84
         2         3        76        77        83
         2         4        10        11        84
         2         3         4        10        84
         2         3         4        77        84
         2         4        11        84        85
         2         4        78        84        85
         2         4        77        78        84
         2         5        11        12        85
         2         4         5        11        85
         2         4         5        78        85
         2         5        12        85        86
         2         5        79        85        86
         2         5        78        79        85
         2         6        12        13        86
         2         5         6        12        86
         2         5         6        79        86
         2         6        13        86        87
         2         6        80        86        87
         2         6        79        80        86
         2         7        13        14        87
         2         6         7        13        87
         2         6         7        80        87
         2         7        14        87        88
         2         7        81        87        88
         2         7        80        81        87
         2         6        14        15        88
         2         6         7        14        88
         2         6         7        81        88
         2         6        15        88        89
         2         6        80        88        89
         2         6        80        81        88
         2         5        15        16        89
         2         5         6        15        89
         2         5         6        80        89
         2         5        16        89        90
         2         5        79        89        90
         2         5        79        80        89
         2         4        16        17        90
         2         4         5        16        90
         2         4         5        79        90
         2         4        17        90        91
         2         4        78        90        91
         2         4        78        79        90
         2         3        17        18        91
         2         3         4        17        91
         2         3         4        78        91
         2         3        18        91        92
         2         3        77        91        92
         2         3        77        78        91
         2         2        18        19        92
         2         2         3        18        92
         2         2         3        77        92
         2         2        19        92        93
         2         2        76        92        93
         2         2        76        77        92
         2         1         8        19        93
         2         1         2        19        93
         2         1         2        76        93
         2         1         8        82        93
         2         1        75        82        93
         2         1        75        76        93
         2         9        20        21        94
         2         8         9        20        94
         2         8         9        82        94
         2         9        21        94        95
         2         9        83        94        95
         2         9        82        83        94
         2        10        21        22        95
         2         9        10        21        95
         2         9        10        83        95
         2        10        22        95        96
         2        10        84        95        96
         2        10        83        84        95
         2        11        22        23        96
         2        10        11        22        96
         2        10        11        84        96
         2        11        23        96        97
         2        11        85        96        97
         2        11        84        85        96
         2        12        23        24        97
         2        11        12        23        97
         2        11        12        85        97
         2        12        24        97        98
         2        12        86        97        98
         2        12        85        86        97
         2        13        24        25        98
         2        12        13        24        98
         2        12        13        86        98
         2        13        25        98        99
         2        13        87        98        99
         2        13        86        87        98
         2        14        25        26        99
         2        13        14        25        99
         2        13        14        87        99
         2        14        26        99       100
         2        14        88        99       100
         2        14        87        88        99
         2        15        26        27       100
         2        14        15        26       100
         2        14        15        88       100
         2        15        27       100       101
         2        15        89       100       101
         2        15        88        89       100
         2        16        27        28       101
         2        15        16        27       101
         2        15        16        89       101
         2        16        28       101       102
         2        16        90       101       102
         2        16        89        90       101
         2        17        28        29       102
         2        16        17        28       102
         2        16        17        90       102
         2        17        29       102       103
         2        17        91       102       103
         2        17        90        91       102
         2        18        29        30       103
         2        17        18        29       103
         2        17        18        91       103
         2        18        30       103       104
         2        18        92       103       104
         2        18        91        92       103
         2        19        30        31       104
         2        18        19        30       104
         2        18        19        92       104
         2        19        31       104       105
         2        19        93       104       105
         2        19        92        93       104
         2         8        20        31       105
         2         8        19        31       105
         2         8        19        93       105
         2         8        20        94       105
         2         8        82        94       105
         2         8        82        93       105
         2        21        32        33       106
         2        20        21        32       106
         2        20        21        94       106
         2        21        33       106       107
         2        21        95       106       107
         2        21        94        95       106
         2        22        33        34       107
         2        21        22        33       107
         2        21        22        95       107
         2        22        34       107       108
         2        22        96       107       108
         2        22        95        96       107
         2        23        34        35       108
         2        22        23        34       108
         2        22        23        96       108
         2        23        35       108       109
         2        23        97       108       109
         2        23        96        97       108
         2        24        35        36       109
         2        23        24        35       109
         2        23        24        97       109
         2        24        36       109       110
         2        24        98       109       110
         2        24        97        98       109
         2        25        36        37       110
         2        24        25        36       110
         2        24        25        98       110
         2        25        37       110       111
         2        25        99       110       111
         2        25        98        99       110
         2        26        37        38       111
         2        25        26        37       111
         2        25        26        99       111
         2        26        38       111       112
         2        26       100       111       112
         2        26        99       100       111
         2        27        38        39       112
         2        26        27        38       112
         2        26        27       100       112
         2        27        39       112       113
         2        27       101       112       113
         2        27       100       101       112
         2        28        39        40       113
         2        27        28        39       113
         2        27        28       101       113
         2        28        40       113       114
         2        28       102       113       114
         2        28       101       102       113
         2        29        40        41       114
         2        28        29        40       114
         2        28        29       102       114
         2        29        41       114       115
         2        29       103       114       115
         2        29       102       103       114
         2        30        41        42       115
         2        29        30        41       115
         2        29        30       103       115
         2        30        42       115       116
         2        30       104       115       116
         2        30       103       104       115
         2        31        42        43       116
         2        30        31        42       116
         2        30        31       104       116
         2        31        43       116       117
         2        31       105       116       117
         2        31       104       105       116
         2        20        32        43       117
         2        20        31        43       117
         2        20        31       105       117
         2        20        32       106       117
         2        20        94       106       117
         2        20        94       105       117
         2        33        44        45       118
         2        32        33        44       118
         2        32        33       106       118
         2        33        45       118       119
         2        33       107       118       119
         2        33       106       107       118
         2        34        45        46       119
         2        33        34        45       119
         2        33        34       107       119
         2        34        46       119       120
         2        34       108       119       120
         2        34       107       108       119
         2        35        46        47       120
         2        34        35        46       120
         2        34        35       108       120
         2        35        47       120       121
         2        35       109       120       121
         2        35       108       109       120
         2        36        47        48       121
         2        35        36        47       121
         2        35        36       109       121
         2        36        48       121       122
         2        36       110       121       122
         2        36       109       110       121
         2        37        48        49       122
         2        36        37        48       122
         2        36        37       110       122
         2        37        49       122       123
         2        37       111       122       123
         2        37       110       111       122
         2        38        49        50       123
         2        37        38        49       123
         2        37        38       111       123
         2        38        50       123       124
         2        38       112       123       124
         2        38       111       112       123
         2        39        50        51       124
         2        38        39        50       124
         2        38        39       112       124
         2        39        51       124       125
         2        39       113       124       125
         2        39       112       113       124
         2        40        51        52       125