 running on   12 total cores
 distrk:  each k-point on   12 cores,    1 groups
 distr:  one band on    6 cores,    2 groups
 using from now: INCAR     
 vasp.6.1.2 22Jul20 (build Mar 20 2021 11:25:07) complex                        
  
 POSCAR found type information on POSCAR LiP N O 
 POSCAR found :  4 types and      12 ions
 scaLAPACK will be used
 LDA part: xc-table for Pade appr. of Perdew
 generate k-points for:    7    7    7
 POSCAR, INCAR and KPOINTS ok, starting setup
 FFT: planning ...
 WAVECAR not read
 entering main loop
       N       E                     dE             d eps       ncg     rms          rms(c)
DAV:   1     0.420038262856E+03    0.42004E+03   -0.27793E+04 16008   0.147E+03
DAV:   2    -0.438052265105E+02   -0.46384E+03   -0.44485E+03 18696   0.379E+02
DAV:   3    -0.807161531027E+02   -0.36911E+02   -0.36739E+02 23504   0.990E+01
DAV:   4    -0.839921120125E+02   -0.32760E+01   -0.32634E+01 25568   0.237E+01
DAV:   5    -0.841957857457E+02   -0.20367E+00   -0.20366E+00 22320   0.462E+00    0.370E+01
RMM:   6    -0.755776586560E+02    0.86181E+01   -0.30188E+01 17087   0.236E+01    0.162E+01
RMM:   7    -0.759814242424E+02   -0.40377E+00   -0.52457E+00 23727   0.105E+01    0.793E+00
RMM:   8    -0.761761817359E+02   -0.19476E+00   -0.83870E-01 25857   0.488E+00    0.392E+00
RMM:   9    -0.762124696568E+02   -0.36288E-01   -0.31004E-01 26248   0.317E+00    0.109E+00
RMM:  10    -0.762413100038E+02   -0.28840E-01   -0.21011E-01 29803   0.195E+00    0.370E-01
RMM:  11    -0.762521625270E+02   -0.10853E-01   -0.89996E-02 30938   0.114E+00    0.298E-01
RMM:  12    -0.762566157283E+02   -0.44532E-02   -0.34934E-02 31169   0.707E-01    0.205E-01
RMM:  13    -0.762582858054E+02   -0.16701E-02   -0.13041E-02 30833   0.455E-01    0.761E-02
RMM:  14    -0.762590428077E+02   -0.75700E-03   -0.58389E-03 30810   0.312E-01    0.363E-02
RMM:  15    -0.762593199072E+02   -0.27710E-03   -0.24640E-03 30314   0.194E-01    0.307E-02
RMM:  16    -0.762594309129E+02   -0.11101E-03   -0.10791E-03 29753   0.124E-01    0.151E-02
RMM:  17    -0.762594702692E+02   -0.39356E-04   -0.39278E-04 29374   0.807E-02    0.527E-03
RMM:  18    -0.762594889023E+02   -0.18633E-04   -0.16848E-04 26683   0.540E-02    0.404E-03
RMM:  19    -0.762594935893E+02   -0.46870E-05   -0.44510E-05 21459   0.397E-02
   1 F= -.76259494E+02 E0= -.76259494E+02  d E =0.000000E+00  mag=    -0.0000
