       N       E                     dE             d eps       ncg     rms          rms(c)
DAV:   1     0.612128419502E+03    0.61213E+03   -0.37193E+04 10752   0.145E+03
DAV:   2    -0.473292474791E+02   -0.65946E+03   -0.62395E+03 12328   0.386E+02
DAV:   3    -0.102867040690E+03   -0.55538E+02   -0.55240E+02 14960   0.103E+02
DAV:   4    -0.108379697153E+03   -0.55127E+01   -0.54816E+01 17392   0.267E+01
DAV:   5    -0.108829145500E+03   -0.44945E+00   -0.44935E+00 15264   0.566E+00    0.417E+01
RMM:   6    -0.985481876929E+02    0.10281E+02   -0.37296E+01 11692   0.222E+01    0.173E+01
RMM:   7    -0.994687537392E+02   -0.92057E+00   -0.45084E+00 15323   0.810E+00    0.903E+00
RMM:   8    -0.997197570912E+02   -0.25100E+00   -0.90367E-01 17407   0.404E+00    0.435E+00
RMM:   9    -0.997880495547E+02   -0.68292E-01   -0.34984E-01 17375   0.287E+00    0.871E-01
RMM:  10    -0.998200994470E+02   -0.32050E-01   -0.24308E-01 20077   0.171E+00    0.392E-01
RMM:  11    -0.998336922163E+02   -0.13593E-01   -0.10348E-01 20732   0.100E+00    0.330E-01
RMM:  12    -0.998392741779E+02   -0.55820E-02   -0.39289E-02 20888   0.610E-01    0.239E-01
RMM:  13    -0.998414030741E+02   -0.21289E-02   -0.13533E-02 19982   0.420E-01    0.102E-01
RMM:  14    -0.998422238263E+02   -0.82075E-03   -0.73153E-03 20628   0.290E-01    0.232E-02
RMM:  15    -0.998426084041E+02   -0.38458E-03   -0.33761E-03 20396   0.178E-01    0.272E-02
RMM:  16    -0.998427552361E+02   -0.14683E-03   -0.13110E-03 19840   0.112E-01    0.251E-02
RMM:  17    -0.998428012710E+02   -0.46035E-04   -0.47960E-04 19564   0.742E-02    0.159E-02
RMM:  18    -0.998428233692E+02   -0.22098E-04   -0.23281E-04 18928   0.491E-02    0.117E-02
RMM:  19    -0.998428280572E+02   -0.46880E-05   -0.79650E-05 17146   0.345E-02
   1 F= -.99842828E+02 E0= -.99842828E+02  d E =0.000000E+00  mag=     0.0000
