Automatically generated mesh
     277
Reciprocal lattice
    0.00000000000000    0.00000000000000    0.00000000000000             1
    0.08333333333334   -0.00000000000000   -0.00000000000000             4
    0.16666666666666   -0.00000000000000   -0.00000000000000             4
    0.25000000000000   -0.00000000000000   -0.00000000000000             4
    0.33333333333334   -0.00000000000000   -0.00000000000000             4
    0.41666666666666   -0.00000000000000   -0.00000000000000             4
    0.50000000000000   -0.00000000000000   -0.00000000000000             2
    0.08333333333334    0.08333333333334   -0.00000000000000             2
    0.16666666666666    0.08333333333334   -0.00000000000000             4
    0.25000000000000    0.08333333333334   -0.00000000000000             4
    0.33333333333334    0.08333333333334   -0.00000000000000             4
    0.41666666666666    0.08333333333334   -0.00000000000000             4
    0.50000000000000    0.08333333333334   -0.00000000000000             4
   -0.41666666666666    0.08333333333334    0.00000000000000             4
   -0.33333333333334    0.08333333333334   -0.00000000000000             4
   -0.25000000000000    0.08333333333334    0.00000000000000             4
   -0.16666666666666    0.08333333333334   -0.00000000000000             4
   -0.08333333333334    0.08333333333334   -0.00000000000000             2
    0.16666666666666    0.16666666666666   -0.00000000000000             2
    0.25000000000000    0.16666666666666   -0.00000000000000             4
    0.33333333333334    0.16666666666666   -0.00000000000000             4
    0.41666666666666    0.16666666666666   -0.00000000000000             4
    0.50000000000000    0.16666666666666   -0.00000000000000             4
   -0.41666666666666    0.16666666666666   -0.00000000000000             4
   -0.33333333333334    0.16666666666666    0.00000000000000             4
   -0.25000000000000    0.16666666666666   -0.00000000000000             4
   -0.16666666666666    0.16666666666666   -0.00000000000000             2
    0.25000000000000    0.25000000000000   -0.00000000000000             2
    0.33333333333334    0.25000000000000   -0.00000000000000             4
    0.41666666666666    0.25000000000000   -0.00000000000000             4
    0.50000000000000    0.25000000000000   -0.00000000000000             4
   -0.41666666666666    0.25000000000000    0.00000000000000             4
   -0.33333333333334    0.25000000000000   -0.00000000000000             4
   -0.25000000000000    0.25000000000000   -0.00000000000000             2
    0.33333333333334    0.33333333333334   -0.00000000000000             2
    0.41666666666666    0.33333333333334   -0.00000000000000             4
    0.50000000000000    0.33333333333334   -0.00000000000000             4
   -0.41666666666666    0.33333333333334   -0.00000000000000             4
   -0.33333333333334    0.33333333333334   -0.00000000000000             2
    0.41666666666666    0.41666666666666   -0.00000000000000             2
    0.50000000000000    0.41666666666666   -0.00000000000000             4
   -0.41666666666666    0.41666666666666   -0.00000000000000             2
    0.50000000000000    0.50000000000000   -0.00000000000000             1
   -0.00000000000000   -0.00000000000000    0.14285714285714             2
    0.08333333333334   -0.00000000000000    0.14285714285714             4
    0.16666666666666   -0.00000000000000    0.14285714285714             4
    0.25000000000000   -0.00000000000000    0.14285714285714             4
    0.33333333333334   -0.00000000000000    0.14285714285714             4
    0.41666666666666    0.00000000000000    0.14285714285714             4
    0.50000000000000   -0.00000000000000    0.14285714285714             4
   -0.41666666666666    0.00000000000000    0.14285714285714             4
   -0.33333333333334    0.00000000000000    0.14285714285714             4
   -0.25000000000000    0.00000000000000    0.14285714285714             4
   -0.16666666666666    0.00000000000000    0.14285714285714             4
   -0.08333333333334    0.00000000000000    0.14285714285714             4
    0.08333333333334    0.08333333333334    0.14285714285714             2
    0.16666666666666    0.08333333333334    0.14285714285714             4
    0.25000000000000    0.08333333333334    0.14285714285714             4
    0.33333333333334    0.08333333333334    0.14285714285714             4
    0.41666666666666    0.08333333333334    0.14285714285714             4
    0.50000000000000    0.08333333333334    0.14285714285714             4
   -0.41666666666666    0.08333333333334    0.14285714285714             4
   -0.33333333333334    0.08333333333334    0.14285714285714             4
   -0.25000000000000    0.08333333333334    0.14285714285714             4
   -0.16666666666666    0.08333333333334    0.14285714285714             4
   -0.08333333333334    0.08333333333334    0.14285714285714             4
    0.16666666666666    0.16666666666666    0.14285714285714             2
    0.25000000000000    0.16666666666666    0.14285714285714             4
    0.33333333333334    0.16666666666666    0.14285714285714             4
    0.41666666666666    0.16666666666666    0.14285714285714             4
    0.50000000000000    0.16666666666666    0.14285714285714             4
   -0.41666666666666    0.16666666666666    0.14285714285714             4
   -0.33333333333334    0.16666666666666    0.14285714285714             4
   -0.25000000000000    0.16666666666666    0.14285714285714             4
   -0.16666666666666    0.16666666666666    0.14285714285714             4
   -0.08333333333334    0.16666666666666    0.14285714285714             4
    0.25000000000000    0.25000000000000    0.14285714285714             2
    0.33333333333334    0.25000000000000    0.14285714285714             4
    0.41666666666666    0.25000000000000    0.14285714285714             4
    0.50000000000000    0.25000000000000    0.14285714285714             4
   -0.41666666666666    0.25000000000000    0.14285714285714             4
   -0.33333333333334    0.25000000000000    0.14285714285714             4
   -0.25000000000000    0.25000000000000    0.14285714285714             4
   -0.16666666666666    0.25000000000000    0.14285714285714             4
   -0.08333333333334    0.25000000000000    0.14285714285714             4
    0.33333333333334    0.33333333333334    0.14285714285714             2
    0.41666666666666    0.33333333333334    0.14285714285714             4
    0.50000000000000    0.33333333333334    0.14285714285714             4
   -0.41666666666666    0.33333333333334    0.14285714285714             4
   -0.33333333333334    0.33333333333334    0.14285714285714             4
   -0.25000000000000    0.33333333333334    0.14285714285714             4
   -0.16666666666666    0.33333333333334    0.14285714285714             4
   -0.08333333333334    0.33333333333334    0.14285714285714             4
    0.41666666666666    0.41666666666666    0.14285714285714             2
    0.50000000000000    0.41666666666666    0.14285714285714             4
   -0.41666666666666    0.41666666666666    0.14285714285714             4
   -0.33333333333334    0.41666666666666    0.14285714285714             4
   -0.25000000000000    0.41666666666666    0.14285714285714             4
   -0.16666666666666    0.41666666666666    0.14285714285714             4
   -0.08333333333334    0.41666666666666    0.14285714285714             4
    0.50000000000000    0.50000000000000    0.14285714285714             2
   -0.41666666666666    0.50000000000000    0.14285714285714             4
   -0.33333333333334    0.50000000000000    0.14285714285714             4
   -0.25000000000000    0.50000000000000    0.14285714285714             4
   -0.16666666666666    0.50000000000000    0.14285714285714             4
   -0.08333333333334    0.50000000000000    0.14285714285714             4
   -0.41666666666666   -0.41666666666666    0.14285714285714             2
   -0.33333333333334   -0.41666666666666    0.14285714285714             4
   -0.25000000000000   -0.41666666666666    0.14285714285714             4
   -0.16666666666666   -0.41666666666666    0.14285714285714             4
   -0.08333333333334   -0.41666666666666    0.14285714285714             4
   -0.33333333333334   -0.33333333333334    0.14285714285714             2
   -0.25000000000000   -0.33333333333334    0.14285714285714             4
   -0.16666666666666   -0.33333333333334    0.14285714285714             4
   -0.08333333333334   -0.33333333333334    0.14285714285714             4
   -0.25000000000000   -0.25000000000000    0.14285714285714             2
   -0.16666666666666   -0.25000000000000    0.14285714285714             4
   -0.08333333333334   -0.25000000000000    0.14285714285714             4
   -0.16666666666666   -0.16666666666666    0.14285714285714             2
   -0.08333333333334   -0.16666666666666    0.14285714285714             4
   -0.08333333333334   -0.08333333333334    0.14285714285714             2
   -0.00000000000000   -0.00000000000000    0.28571428571429             2
    0.08333333333334   -0.00000000000000    0.28571428571429             4
    0.16666666666666   -0.00000000000000    0.28571428571429             4
    0.25000000000000   -0.00000000000000    0.28571428571429             4
    0.33333333333334   -0.00000000000000    0.28571428571429             4
    0.41666666666666   -0.00000000000000    0.28571428571429             4
    0.50000000000000   -0.00000000000000    0.28571428571429             4
   -0.41666666666666    0.00000000000000    0.28571428571429             4
   -0.33333333333334    0.00000000000000    0.28571428571429             4
   -0.25000000000000    0.00000000000000    0.28571428571429             4
   -0.16666666666666    0.00000000000000    0.28571428571429             4
   -0.08333333333334    0.00000000000000    0.28571428571429             4
    0.08333333333334    0.08333333333334    0.28571428571429             2
    0.16666666666666    0.08333333333334    0.28571428571429             4
    0.25000000000000    0.08333333333334    0.28571428571429             4
    0.33333333333334    0.08333333333334    0.28571428571429             4
    0.41666666666666    0.08333333333334    0.28571428571429             4
    0.50000000000000    0.08333333333334    0.28571428571429             4
   -0.41666666666666    0.08333333333334    0.28571428571429             4
   -0.33333333333334    0.08333333333334    0.28571428571429             4
   -0.25000000000000    0.08333333333334    0.28571428571429             4
   -0.16666666666666    0.08333333333334    0.28571428571429             4
   -0.08333333333334    0.08333333333334    0.28571428571429             4
    0.16666666666666    0.16666666666666    0.28571428571429             2
    0.25000000000000    0.16666666666666    0.28571428571429             4
    0.33333333333334    0.16666666666666    0.28571428571429             4
    0.41666666666666    0.16666666666666    0.28571428571429             4
    0.50000000000000    0.16666666666666    0.28571428571429             4
   -0.41666666666666    0.16666666666666    0.28571428571429             4
   -0.33333333333334    0.16666666666666    0.28571428571429             4
   -0.25000000000000    0.16666666666666    0.28571428571429             4
   -0.16666666666666    0.16666666666666    0.28571428571429             4
   -0.08333333333334    0.16666666666666    0.28571428571429             4
    0.25000000000000    0.25000000000000    0.28571428571429             2
    0.33333333333334    0.25000000000000    0.28571428571429             4
    0.41666666666666    0.25000000000000    0.28571428571429             4
    0.50000000000000    0.25000000000000    0.28571428571429             4
   -0.41666666666666    0.25000000000000    0.28571428571429             4
   -0.33333333333334    0.25000000000000    0.28571428571429             4
   -0.25000000000000    0.25000000000000    0.28571428571429             4
   -0.16666666666666    0.25000000000000    0.28571428571429             4
   -0.08333333333334    0.25000000000000    0.28571428571429             4
    0.33333333333334    0.33333333333334    0.28571428571429             2
    0.41666666666666    0.33333333333334    0.28571428571429             4
    0.50000000000000    0.33333333333334    0.28571428571429             4
   -0.41666666666666    0.33333333333334    0.28571428571429             4
   -0.33333333333334    0.33333333333334    0.28571428571429             4
   -0.25000000000000    0.33333333333334    0.28571428571429             4
   -0.16666666666666    0.33333333333334    0.28571428571429             4
   -0.08333333333334    0.33333333333334    0.28571428571429             4
    0.41666666666666    0.41666666666666    0.28571428571429             2
    0.50000000000000    0.41666666666666    0.28571428571429             4
   -0.41666666666666    0.41666666666666    0.28571428571429             4
   -0.33333333333334    0.41666666666666    0.28571428571429             4
   -0.25000000000000    0.41666666666666    0.28571428571429             4
   -0.16666666666666    0.41666666666666    0.28571428571429             4
   -0.08333333333334    0.41666666666666    0.28571428571429             4
    0.50000000000000    0.50000000000000    0.28571428571429             2
   -0.41666666666666    0.50000000000000    0.28571428571429             4
   -0.33333333333334    0.50000000000000    0.28571428571429             4
   -0.25000000000000    0.50000000000000    0.28571428571429             4
   -0.16666666666666    0.50000000000000    0.28571428571429             4
   -0.08333333333334    0.50000000000000    0.28571428571429             4
   -0.41666666666666   -0.41666666666666    0.28571428571429             2
   -0.33333333333334   -0.41666666666666    0.28571428571429             4
   -0.25000000000000   -0.41666666666666    0.28571428571429             4
   -0.16666666666666   -0.41666666666666    0.28571428571429             4
   -0.08333333333334   -0.41666666666666    0.28571428571429             4
   -0.33333333333334   -0.33333333333334    0.28571428571429             2
   -0.25000000000000   -0.33333333333334    0.28571428571429             4
   -0.16666666666666   -0.33333333333334    0.28571428571429             4
   -0.08333333333334   -0.33333333333334    0.28571428571429             4
   -0.25000000000000   -0.25000000000000    0.28571428571429             2
   -0.16666666666666   -0.25000000000000    0.28571428571429             4
   -0.08333333333334   -0.25000000000000    0.28571428571429             4
   -0.16666666666666   -0.16666666666666    0.28571428571429             2
   -0.08333333333334   -0.16666666666666    0.28571428571429             4
   -0.08333333333334   -0.08333333333334    0.28571428571429             2
    0.00000000000000    0.00000000000000    0.42857142857143             2
    0.08333333333334   -0.00000000000000    0.42857142857143             4
    0.16666666666666   -0.00000000000000    0.42857142857143             4
    0.25000000000000   -0.00000000000000    0.42857142857143             4
    0.33333333333334   -0.00000000000000    0.42857142857143             4
    0.41666666666666    0.00000000000000    0.42857142857143             4
    0.50000000000000   -0.00000000000000    0.42857142857143             4
   -0.41666666666666    0.00000000000000    0.42857142857143             4
   -0.33333333333334    0.00000000000000    0.42857142857143             4
   -0.25000000000000    0.00000000000000    0.42857142857143             4
   -0.16666666666666   -0.00000000000000    0.42857142857143             4
   -0.08333333333334    0.00000000000000    0.42857142857143             4
    0.08333333333334    0.08333333333334    0.42857142857143             2
    0.16666666666666    0.08333333333334    0.42857142857143             4
    0.25000000000000    0.08333333333334    0.42857142857143             4
    0.33333333333334    0.08333333333334    0.42857142857143             4
    0.41666666666666    0.08333333333334    0.42857142857143             4
    0.50000000000000    0.08333333333334    0.42857142857143             4
   -0.41666666666666    0.08333333333334    0.42857142857143             4
   -0.33333333333334    0.08333333333334    0.42857142857143             4
   -0.25000000000000    0.08333333333334    0.42857142857143             4
   -0.16666666666666    0.08333333333334    0.42857142857143             4
   -0.08333333333334    0.08333333333334    0.42857142857143             4
    0.16666666666666    0.16666666666666    0.42857142857143             2
    0.25000000000000    0.16666666666666    0.42857142857143             4
    0.33333333333334    0.16666666666666    0.42857142857143             4
    0.41666666666666    0.16666666666666    0.42857142857143             4
    0.50000000000000    0.16666666666666    0.42857142857143             4
   -0.41666666666666    0.16666666666666    0.42857142857143             4
   -0.33333333333334    0.16666666666666    0.42857142857143             4
   -0.25000000000000    0.16666666666666    0.42857142857143             4
   -0.16666666666666    0.16666666666666    0.42857142857143             4
   -0.08333333333334    0.16666666666666    0.42857142857143             4
    0.25000000000000    0.25000000000000    0.42857142857143             2
    0.33333333333334    0.25000000000000    0.42857142857143             4
    0.41666666666666    0.25000000000000    0.42857142857143             4
    0.50000000000000    0.25000000000000    0.42857142857143             4
   -0.41666666666666    0.25000000000000    0.42857142857143             4
   -0.33333333333334    0.25000000000000    0.42857142857143             4
   -0.25000000000000    0.25000000000000    0.42857142857143             4
   -0.16666666666666    0.25000000000000    0.42857142857143             4
   -0.08333333333334    0.25000000000000    0.42857142857143             4
    0.33333333333334    0.33333333333334    0.42857142857143             2
    0.41666666666666    0.33333333333334    0.42857142857143             4
    0.50000000000000    0.33333333333334    0.42857142857143             4
   -0.41666666666666    0.33333333333334    0.42857142857143             4
   -0.33333333333334    0.33333333333334    0.42857142857143             4
   -0.25000000000000    0.33333333333334    0.42857142857143             4
   -0.16666666666666    0.33333333333334    0.42857142857143             4
   -0.08333333333334    0.33333333333334    0.42857142857143             4
    0.41666666666666    0.41666666666666    0.42857142857143             2
    0.50000000000000    0.41666666666666    0.42857142857143             4
   -0.41666666666666    0.41666666666666    0.42857142857143             4
   -0.33333333333334    0.41666666666666    0.42857142857143             4
   -0.25000000000000    0.41666666666666    0.42857142857143             4
   -0.16666666666666    0.41666666666666    0.42857142857143             4
   -0.08333333333334    0.41666666666666    0.42857142857143             4
    0.50000000000000    0.50000000000000    0.42857142857143             2
   -0.41666666666666    0.50000000000000    0.42857142857143             4
   -0.33333333333334    0.50000000000000    0.42857142857143             4
   -0.25000000000000    0.50000000000000    0.42857142857143             4
   -0.16666666666666    0.50000000000000    0.42857142857143             4
   -0.08333333333334    0.50000000000000    0.42857142857143             4
   -0.41666666666666   -0.41666666666666    0.42857142857143             2
   -0.33333333333334   -0.41666666666666    0.42857142857143             4
   -0.25000000000000   -0.41666666666666    0.42857142857143             4
   -0.16666666666666   -0.41666666666666    0.42857142857143             4
   -0.08333333333334   -0.41666666666666    0.42857142857143             4
   -0.33333333333334   -0.33333333333334    0.42857142857143             2
   -0.25000000000000   -0.33333333333334    0.42857142857143             4
   -0.16666666666666   -0.33333333333334    0.42857142857143             4
   -0.08333333333334   -0.33333333333334    0.42857142857143             4
   -0.25000000000000   -0.25000000000000    0.42857142857143             2
   -0.16666666666666   -0.25000000000000    0.42857142857143             4
   -0.08333333333334   -0.25000000000000    0.42857142857143             4
   -0.16666666666666   -0.16666666666666    0.42857142857143             2
   -0.08333333333334   -0.16666666666666    0.42857142857143             4
   -0.08333333333334   -0.08333333333334    0.42857142857143             2
Tetrahedra
      1518    0.00016534391534
         4         1         2         8        56
         4         1         2        45        56
         4         1        44        45        56
         4         2         8         9        57
         4         2         3         9        57
         4         2         3        46        57
         4         2         8        56        57
         4         2        45        56        57
         4         2        45        46        57
         4         3         9        10        58
         4         3         4        10        58
         4         3         4        47        58
         4         3         9        57        58
         4         3        46        57        58
         4         3        46        47        58
         4         4        10        11        59
         4         4         5        11        59
         4         4         5        48        59
         4         4        10        58        59
         4         4        47        58        59
         4         4        47        48        59
         4         5        11        12        60
         4         5         6        12        60
         4         5         6        49        60
         4         5        11        59        60
         4         5        48        59        60
         4         5        48        49        60
         4         6        12        13        61
         4         6         7        13        61
         4         6         7        50        61
         4         6        12        60        61
         4         6        49        60        61
         4         6        49        50        61
         4         7        13        14        62
         4         6         7        14        62
         4         6         7        51        62
         4         7        13        61        62
         4         7        50        61        62
         4         7        50        51        62
         4         6        14        15        63
         4         5         6        15        63
         4         5         6        52        63
         4         6        14        62        63
         4         6        51        62        63
         4         6        51        52        63
         4         5        15        16        64
         4         4         5        16        64
         4         4         5        53        64
         4         5        15        63        64
         4         5        52        63        64
         4         5        52        53        64
         4         4        16        17        65
         4         3         4        17        65
         4         3         4        54        65
         4         4        16        64        65
         4         4        53        64        65
         4         4        53        54        65
         4         3        17        18        66
         4         2         3        18        66
         4         2         3        55        66
         4         3        17        65        66
         4         3        54        65        66
         4         3        54        55        66
         4         2         2        18        45
         4         1         2         2        45
         4         1         2        44        45
         4         2        18        45        66
         4         2        45        55        66
         4         2        44        45        55
         4         8         9        19        67
         4         8         9        57        67
         4         8        56        57        67
         4         9        19        20        68
         4         9        10        20        68
         4         9        10        58        68
         4         9        19        67        68
         4         9        57        67        68
         4         9        57        58        68
         4        10        20        21        69
         4        10        11        21        69
         4        10        11        59        69
         4        10        20        68        69
         4        10        58        68        69
         4        10        58        59        69
         4        11        21        22        70
         4        11        12        22        70
         4        11        12        60        70
         4        11        21        69        70
         4        11        59        69        70
         4        11        59        60        70
         4        12        22        23        71
         4        12        13        23        71
         4        12        13        61        71
         4        12        22        70        71
         4        12        60        70        71
         4        12        60        61        71
         4        13        23        24        72
         4        13        14        24        72
         4        13        14        62        72
         4        13        23        71        72
         4        13        61        71        72
         4        13        61        62        72
         4        14        24        25        73
         4        14        15        25        73
         4        14        15        63        73
         4        14        24        72        73
         4        14        62        72        73
         4        14        62        63        73
         4        15        25        26        74
         4        15        16        26        74
         4        15        16        64        74
         4        15        25        73        74
         4        15        63        73        74
         4        15        63        64        74
         4        16        26        27        75
         4        16        17        27        75
         4        16        17        65        75
         4        16        26        74        75
         4        16        64        74        75
         4        16        64        65        75
         4        17        17        27        76
         4        17        17        18        76
         4        17        18        66        76
         4        17        27        75        76
         4        17        65        75        76
         4        17        65        66        76
         4         3        17        18        46
         4         2         3        18        46
         4         2        18        45        46
         4        17        18        46        76
         4        18        46        66        76
         4        18        45        46        66
         4        19        20        28        77
         4        19        20        68        77
         4        19        67        68        77
         4        20        28        29        78
         4        20        21        29        78
         4        20        21        69        78
         4        20        28        77        78
         4        20        68        77        78
         4        20        68        69        78
         4        21        29        30        79
         4        21        22        30        79
         4        21        22        70        79
         4        21        29        78        79
         4        21        69        78        79
         4        21        69        70        79
         4        22        30        31        80
         4        22        23        31        80
         4        22        23        71        80
         4        22        30        79        80
         4        22        70        79        80
         4        22        70        71        80
         4        23        31        32        81
         4        23        24        32        81
         4        23        24        72        81
         4        23        31        80        81
         4        23        71        80        81
         4        23        71        72        81
         4        24        32        33        82
         4        24        25        33        82
         4        24        25        73        82
         4        24        32        81        82
         4        24        72        81        82
         4        24        72        73        82
         4        25        33        34        83
         4        25        26        34        83
         4        25        26        74        83
         4        25        33        82        83
         4        25        73        82        83
         4        25        73        74        83
         4        26        26        34        84
         4        26        26        27        84
         4        26        27        75        84
         4        26        34        83        84
         4        26        74        83        84
         4        26        74        75        84
         4        16        26        27        85