       N       E                     dE             d eps       ncg     rms          rms(c)
DAV:   1     0.791752701365E+02    0.79175E+02   -0.85495E+03 17736   0.105E+03
DAV:   2    -0.242326125963E+02   -0.10341E+03   -0.99820E+02 24024   0.253E+02
DAV:   3    -0.287438187388E+02   -0.45112E+01   -0.44953E+01 25680   0.546E+01
DAV:   4    -0.288770389853E+02   -0.13322E+00   -0.13317E+00 24632   0.817E+00
DAV:   5    -0.288784551287E+02   -0.14161E-02   -0.14161E-02 24352   0.793E-01    0.135E+01
RMM:   6    -0.273685478009E+02    0.15099E+01   -0.32881E+00 19451   0.115E+01    0.625E+00
RMM:   7    -0.272528346280E+02    0.11571E+00   -0.58555E-01 22149   0.629E+00    0.367E+00
RMM:   8    -0.272263280840E+02    0.26507E-01   -0.20014E-01 23825   0.347E+00    0.184E+00
RMM:   9    -0.272352426253E+02   -0.89145E-02   -0.44488E-02 25478   0.175E+00    0.673E-01
RMM:  10    -0.272364237444E+02   -0.11811E-02   -0.12980E-02 27240   0.860E-01    0.165E-01
RMM:  11    -0.272373275804E+02   -0.90384E-03   -0.32711E-03 27890   0.457E-01    0.843E-02
RMM:  12    -0.272376570100E+02   -0.32943E-03   -0.16010E-03 29754   0.274E-01    0.433E-02
RMM:  13    -0.272377763260E+02   -0.11932E-03   -0.59043E-04 29166   0.161E-01    0.118E-02
RMM:  14    -0.272378209613E+02   -0.44635E-04   -0.29715E-04 28436   0.107E-01    0.839E-03
RMM:  15    -0.272378394542E+02   -0.18493E-04   -0.13182E-04 26012   0.676E-02    0.450E-03
RMM:  16    -0.272378472677E+02   -0.78135E-05   -0.57649E-05 23027   0.460E-02
   1 F= -.27237847E+02 E0= -.27237847E+02  d E =0.000000E+00  mag=    -0.0000
