 running on   12 total cores
 distrk:  each k-point on   12 cores,    1 groups
 distr:  one band on    6 cores,    2 groups
 using from now: INCAR     
 vasp.6.1.2 22Jul20 (build Mar 20 2021 11:25:07) complex                        
  
 POSCAR found type information on POSCAR LiP N O 
 POSCAR found :  4 types and      12 ions
 scaLAPACK will be used
 LDA part: xc-table for Pade appr. of Perdew
 generate k-points for:    7    7    7
 POSCAR, INCAR and KPOINTS ok, starting setup
 FFT: planning ...
 WAVECAR not read
 entering main loop
       N       E                     dE             d eps       ncg     rms          rms(c)
DAV:   1     0.414978889616E+03    0.41498E+03   -0.27369E+04 16016   0.145E+03
DAV:   2    -0.434340959682E+02   -0.45841E+03   -0.43938E+03 18616   0.370E+02
DAV:   3    -0.815244130303E+02   -0.38090E+02   -0.37904E+02 23496   0.997E+01
DAV:   4    -0.847018434906E+02   -0.31774E+01   -0.31643E+01 26232   0.233E+01
DAV:   5    -0.849340902687E+02   -0.23225E+00   -0.23223E+00 22472   0.459E+00    0.330E+01
RMM:   6    -0.769357630629E+02    0.79983E+01   -0.30176E+01 17054   0.228E+01    0.137E+01
RMM:   7    -0.774303926481E+02   -0.49463E+00   -0.45749E+00 23760   0.983E+00    0.703E+00
RMM:   8    -0.776045379336E+02   -0.17415E+00   -0.84359E-01 26056   0.470E+00    0.365E+00
RMM:   9    -0.776398026056E+02   -0.35265E-01   -0.27239E-01 25913   0.305E+00    0.103E+00
RMM:  10    -0.776666689018E+02   -0.26866E-01   -0.19283E-01 29646   0.186E+00    0.353E-01
WARNING in EDDRMM: call to ZHEGV failed, returncode =   8  4      4
RMM:  11    -0.776768628927E+02   -0.10194E-01   -0.84696E-02 30648   0.109E+00    0.266E-01
RMM:  12    -0.776813070871E+02   -0.44442E-02   -0.33494E-02 31127   0.689E-01    0.176E-01
RMM:  13    -0.776831152754E+02   -0.18082E-02   -0.13487E-02 30752   0.445E-01    0.651E-02
RMM:  14    -0.776838545178E+02   -0.73924E-03   -0.57576E-03 30701   0.308E-01    0.348E-02
RMM:  15    -0.776841416454E+02   -0.28713E-03   -0.25795E-03 30135   0.192E-01    0.278E-02
RMM:  16    -0.776842526892E+02   -0.11104E-03   -0.10650E-03 29724   0.125E-01    0.153E-02
RMM:  17    -0.776842949384E+02   -0.42249E-04   -0.45006E-04 29331   0.834E-02    0.644E-03
RMM:  18    -0.776843206511E+02   -0.25713E-04   -0.20158E-04 28038   0.577E-02    0.621E-03
RMM:  19    -0.776843254808E+02   -0.48298E-05   -0.51099E-05 21651   0.400E-02
   1 F= -.77684325E+02 E0= -.77684325E+02  d E =0.000000E+00  mag=    -0.0000
