 running on   12 total cores
 distrk:  each k-point on   12 cores,    1 groups
 distr:  one band on    6 cores,    2 groups
 using from now: INCAR     
 vasp.6.1.2 22Jul20 (build Mar 20 2021 11:25:07) complex                        
  
 POSCAR found type information on POSCAR LiO 
 POSCAR found :  2 types and       8 ions
 scaLAPACK will be used
 -----------------------------------------------------------------------------
|                                                                             |
|               ----> ADVICE to this user running VASP <----                  |
|                                                                             |
|     You have a (more or less) 'small supercell' and for smaller cells       |
|     it is recommended to use the reciprocal-space projection scheme!        |
|     The real-space optimization is not efficient for small cells and it     |
|     is also less accurate ...                                               |
|     Therefore, set LREAL=.FALSE. in the INCAR file.                         |
|                                                                             |
 -----------------------------------------------------------------------------

 LDA part: xc-table for Pade appr. of Perdew
 generate k-points for:   11   12    4
 POSCAR, INCAR and KPOINTS ok, starting setup
 FFT: planning ...
 WAVECAR not read
 entering main loop
       N       E                     dE             d eps       ncg     rms          rms(c)
DAV:   1     0.259503134944E+03    0.25950E+03   -0.17514E+04 20904   0.147E+03
DAV:   2    -0.142722113046E+02   -0.27378E+03   -0.26457E+03 25240   0.366E+02
DAV:   3    -0.372825047437E+02   -0.23010E+02   -0.22849E+02 33210   0.907E+01
DAV:   4    -0.392282747845E+02   -0.19458E+01   -0.19397E+01 31592   0.236E+01
DAV:   5    -0.392903432609E+02   -0.62068E-01   -0.62063E-01 29054   0.354E+00    0.177E+01
RMM:   6    -0.381694733684E+02    0.11209E+01   -0.51721E+00 23042   0.120E+01    0.784E+00
RMM:   7    -0.387727894710E+02   -0.60332E+00   -0.83346E-01 26487   0.569E+00    0.389E+00
RMM:   8    -0.388509512619E+02   -0.78162E-01   -0.38362E-01 31314   0.354E+00    0.157E+00
RMM:   9    -0.388628963658E+02   -0.11945E-01   -0.12957E-01 32525   0.235E+00    0.384E-01
RMM:  10    -0.388740297813E+02   -0.11133E-01   -0.70439E-02 36865   0.132E+00    0.194E-01
RMM:  11    -0.388784077922E+02   -0.43780E-02   -0.26966E-02 37859   0.781E-01    0.136E-01
WARNING in EDDRMM: call to ZHEGV failed, returncode =   6  3      3
RMM:  12    -0.388800755228E+02   -0.16677E-02   -0.12121E-02 39125   0.473E-01    0.103E-01
WARNING in EDDRMM: call to ZHEGV failed, returncode =   6  3     11
RMM:  13    -0.388805367448E+02   -0.46122E-03   -0.42136E-03 36926   0.338E-01    0.517E-02
RMM:  14    -0.388809040905E+02   -0.36735E-03   -0.23954E-03 37645   0.241E-01    0.138E-02
RMM:  15    -0.388810415615E+02   -0.13747E-03   -0.12182E-03 35721   0.143E-01    0.108E-02
RMM:  16    -0.388810955234E+02   -0.53962E-04   -0.48886E-04 34441   0.937E-02    0.100E-02
RMM:  17    -0.388811124639E+02   -0.16941E-04   -0.19069E-04 33367   0.650E-02    0.378E-03
RMM:  18    -0.388811201490E+02   -0.76851E-05   -0.77034E-05 27524   0.460E-02
   1 F= -.38881120E+02 E0= -.38881120E+02  d E =0.000000E+00  mag=    -0.0000
