       N       E                     dE             d eps       ncg     rms          rms(c)
DAV:   1     0.441660007578E+02    0.44166E+02   -0.56765E+03 22888   0.103E+03
DAV:   2    -0.977575542791E+01   -0.53942E+02   -0.51997E+02 27716   0.226E+02
DAV:   3    -0.152759042436E+02   -0.55001E+01   -0.54584E+01 42616   0.533E+01
DAV:   4    -0.153249708041E+02   -0.49067E-01   -0.49059E-01 26448   0.650E+00
DAV:   5    -0.153254014888E+02   -0.43068E-03   -0.43068E-03 31628   0.452E-01    0.116E+01
RMM:   6    -0.142007652557E+02    0.11246E+01   -0.34778E+00 24902   0.124E+01    0.498E+00
RMM:   7    -0.143166137041E+02   -0.11585E+00   -0.11800E-01 28166   0.289E+00    0.210E+00
RMM:   8    -0.143224101352E+02   -0.57964E-02   -0.47180E-02 31949   0.214E+00    0.116E+00
RMM:   9    -0.143351431705E+02   -0.12733E-01   -0.30940E-02 31955   0.196E+00    0.246E-01
RMM:  10    -0.143362240948E+02   -0.10809E-02   -0.84764E-03 36953   0.706E-01    0.141E-01
RMM:  11    -0.143372220218E+02   -0.99793E-03   -0.57793E-03 35202   0.595E-01    0.182E-01
RMM:  12    -0.143369837532E+02    0.23827E-03   -0.15013E-03 35974   0.327E-01    0.802E-02
RMM:  13    -0.143369748847E+02    0.88685E-05   -0.76785E-04 36495   0.226E-01    0.200E-02
RMM:  14    -0.143370088285E+02   -0.33944E-04   -0.26113E-04 35216   0.118E-01    0.294E-02
RMM:  15    -0.143370217223E+02   -0.12894E-04   -0.98897E-05 32513   0.764E-02    0.276E-02
RMM:  16    -0.143370248994E+02   -0.31771E-05   -0.48292E-05 29708   0.549E-02
   1 F= -.14337025E+02 E0= -.14337025E+02  d E =0.000000E+00  mag=    -0.0000
