       N       E                     dE             d eps       ncg     rms          rms(c)
DAV:   1     0.401181123792E+03    0.40118E+03   -0.25953E+04 10304   0.137E+03
DAV:   2    -0.363904150704E+01   -0.40482E+03   -0.37212E+03 11592   0.328E+02
DAV:   3    -0.557833120967E+02   -0.52144E+02   -0.51482E+02 14812   0.911E+01
DAV:   4    -0.633858179095E+02   -0.76025E+01   -0.75354E+01 18362   0.341E+01
DAV:   5    -0.641311958140E+02   -0.74538E+00   -0.74506E+00 14804   0.778E+00    0.212E+01
DAV:   6    -0.654629131579E+02   -0.13317E+01   -0.28003E+00 13702   0.659E+00    0.113E+01
DAV:   7    -0.667448311220E+02   -0.12819E+01   -0.73345E-01 12552   0.419E+00    0.601E+00
DAV:   8    -0.669762871898E+02   -0.23146E+00   -0.63897E-01 13362   0.301E+00    0.125E+00
DAV:   9    -0.670068016066E+02   -0.30514E-01   -0.79357E-02 15552   0.112E+00    0.498E-01
DAV:  10    -0.670107879714E+02   -0.39864E-02   -0.63730E-03 13314   0.375E-01    0.205E-01
DAV:  11    -0.670122435371E+02   -0.14556E-02   -0.19232E-03 12674   0.205E-01    0.923E-02
DAV:  12    -0.670125087820E+02   -0.26524E-03   -0.61144E-04 13032   0.105E-01    0.395E-02
DAV:  13    -0.670125511328E+02   -0.42351E-04   -0.89364E-05 12338   0.511E-02    0.203E-02
DAV:  14    -0.670125629039E+02   -0.11771E-04   -0.25058E-05 10016   0.270E-02    0.593E-03
DAV:  15    -0.670125644485E+02   -0.15445E-05   -0.40596E-06  7168   0.129E-02
   1 F= -.67012564E+02 E0= -.67012564E+02  d E =0.000000E+00  mag=    -0.0002
