    8    8    1    2
  0.9109756E+01  0.3434791E-09  0.3180362E-09  0.7703522E-09  0.5000000E-15
  1.000000000000000E-004
  CAR 
 unknown system                          
     36    201     26
 
  0.0000000E+00  0.0000000E+00  0.0000000E+00  0.1893939E-02
    1      -42.501523    -42.501347   1.000000   1.000000
    2      -42.497251    -42.497074   1.000000   1.000000
    3      -42.139239    -42.139096   1.000000   1.000000
    4      -42.135698    -42.135554   1.000000   1.000000
    5      -18.420454    -18.420509   1.000000   1.000000
    6      -18.245640    -18.245699   1.000000   1.000000
    7      -13.365856    -13.365917   1.000000   1.000000
    8      -12.701712    -12.701791   1.000000   1.000000
    9       -4.244202     -4.244216   1.000000   1.000000
   10       -2.615837     -2.615890   1.000000   1.000000
   11       -1.576283     -1.576337   1.000000   1.000000
   12       -1.399345     -1.399403   1.000000   1.000000
   13       -1.345465     -1.345523   1.000000   1.000000
   14       -1.186877     -1.186938   1.000000   1.000000
   15        1.569541      1.569463   1.000000   1.000000
   16        1.759787      1.759707   1.000000   1.000000
   17        1.833734      1.833650   1.000000   1.000000
   18        1.995467      1.995381   1.000000   1.000000
   19        4.039267      4.039257   0.000000   0.000001
   20        6.212439      6.212366   0.000000   0.000000
   21        7.231240      7.231273   0.000000   0.000000
   22        7.484316      7.484374   0.000000   0.000000
   23        9.979670      9.979669   0.000000   0.000000
   24       10.182514     10.182491   0.000000   0.000000
   25       12.322122     12.322395   0.000000   0.000000
   26       13.418076     13.400124   0.000000   0.000000
 
  0.9090909E-01  0.1744722E-16  0.0000000E+00  0.3787879E-02
    1      -42.500854    -42.500678   1.000000   1.000000
    2      -42.496874    -42.496697   1.000000   1.000000
    3      -42.138577    -42.138434   1.000000   1.000000
    4      -42.135282    -42.135138   1.000000   1.000000
    5      -18.411475    -18.411530   1.000000   1.000000
    6      -18.241124    -18.241183   1.000000   1.000000
    7      -13.341414    -13.341476   1.000000   1.000000
    8      -12.693414    -12.693493   1.000000   1.000000
    9       -4.228598     -4.228612   1.000000   1.000000
   10       -2.635022     -2.635074   1.000000   1.000000
   11       -1.724879     -1.724929   1.000000   1.000000
   12       -1.505044     -1.505100   1.000000   1.000000
   13       -1.396262     -1.396319   1.000000   1.000000
   14       -1.204606     -1.204667   1.000000   1.000000
   15        1.392178      1.392105   1.000000   1.000000
   16        1.701707      1.701628   1.000000   1.000000
   17        1.704206      1.704126   1.000000   1.000000
   18        2.007691      2.007604   1.000000   1.000000
   19        4.118217      4.118202   0.000000   0.000000
   20        6.204508      6.204436   0.000000   0.000000
   21        7.437864      7.437890   0.000000   0.000000
   22        7.666273      7.666326   0.000000   0.000000
   23       10.108787     10.108783   0.000000   0.000000
   24       10.413668     10.413646   0.000000   0.000000
   25       12.189650     12.190001   0.000000   0.000000
   26       13.508534     13.585464   0.000000   0.000000
 
  0.1818182E+00  0.3292547E-16  0.0000000E+00  0.3787879E-02
    1      -42.499048    -42.498872   1.000000   1.000000
    2      -42.495811    -42.495635   1.000000   1.000000
    3      -42.136763    -42.136620   1.000000   1.000000
    4      -42.134120    -42.133977   1.000000   1.000000
    5      -18.386245    -18.386301   1.000000   1.000000
    6      -18.228908    -18.228968   1.000000   1.000000
    7      -13.273026    -13.273090   1.000000   1.000000
    8      -12.673501    -12.673580   1.000000   1.000000
    9       -4.184047     -4.184062   1.000000   1.000000
   10       -2.707819     -2.707867   1.000000   1.000000
   11       -2.070201     -2.070243   1.000000   1.000000
   12       -1.784343     -1.784391   1.000000   1.000000
   13       -1.520849     -1.520904   1.000000   1.000000
   14       -1.256978     -1.257039   1.000000   1.000000
   15        0.985076      0.985014   1.000000   1.000000
   16        1.343890      1.343821   1.000000   1.000000
   17        1.585182      1.585106   1.000000   1.000000
   18        2.018670      2.018582   1.000000   1.000000
   19        4.303279      4.303253   0.000000   0.000000
   20        6.168050      6.167977   0.000000   0.000000
   21        7.978440      7.978451   0.000000   0.000000
   22        8.148988      8.149031   0.000000   0.000000
   23       10.457848     10.457837   0.000000   0.000000
   24       11.024305     11.024246   0.000000   0.000000
   25       11.871647     11.871804   0.000000   0.000000
   26       13.631378     13.631498   0.000000   0.000000
 
  0.2727273E+00  0.5037269E-16  0.0000000E+00  0.3787879E-02
    1      -42.496736    -42.496559   1.000000   1.000000
    2      -42.494383    -42.494207   1.000000   1.000000
    3      -42.134389    -42.134246   1.000000   1.000000
    4      -42.132587    -42.132444   1.000000   1.000000
    5      -18.351140    -18.351199   1.000000   1.000000
    6      -18.214413    -18.214474   1.000000   1.000000
    7      -13.174874    -13.174940   1.000000   1.000000
    8      -12.653952    -12.654031   1.000000   1.000000
    9       -4.117422     -4.117440   1.000000   1.000000
   10       -2.896373     -2.896410   1.000000   1.000000
   11       -2.389905     -2.389944   1.000000   1.000000
   12       -2.128615     -2.128655   1.000000   1.000000
   13       -1.662828     -1.662881   1.000000   1.000000
   14       -1.333327     -1.333387   1.000000   1.000000
   15        0.544478      0.544427   1.000000   1.000000
   16        0.892912      0.892853   1.000000   1.000000
   17        1.455072      1.454998   1.000000   1.000000
   18        2.012018      2.011931   1.000000   1.000000
   19        4.518305      4.518270   0.000000   0.000000
   20        6.090060      6.089989   0.000000   0.000000
   21        8.627176      8.627181   0.000000   0.000000
   22        8.819581      8.819605   0.000000   0.000000
   23       10.913763     10.913900   0.000000   0.000000
   24       11.545727     11.545884   0.000000   0.000000
   25       11.836661     11.836098   0.000000   0.000000
   26       13.237848     13.218633   0.000000   0.000000
 
  0.3636364E+00  0.5678580E-16  0.0000000E+00  0.3787879E-02
    1      -42.494597    -42.494421   1.000000   1.000000
    2      -42.493052    -42.492876   1.000000   1.000000
    3      -42.132240    -42.132097   1.000000   1.000000
    4      -42.131096    -42.130953   1.000000   1.000000
    5      -18.315856    -18.315916   1.000000   1.000000
    6      -18.203309    -18.203371   1.000000   1.000000
    7      -13.072107    -13.072176   1.000000   1.000000
    8      -12.646419    -12.646498   1.000000   1.000000
    9       -4.040191     -4.040211   1.000000   1.000000
   10       -3.190734     -3.190757   1.000000   1.000000
   11       -2.566064     -2.566102   1.000000   1.000000
   12       -2.399299     -2.399339   1.000000   1.000000
   13       -1.782502     -1.782554   1.000000   1.000000
   14       -1.406652     -1.406711   1.000000   1.000000
   15        0.205601      0.205559   1.000000   1.000000
   16        0.489873      0.489819   1.000000   1.000000
   17        1.348014      1.347943   1.000000   1.000000
   18        1.996188      1.996100   1.000000   1.000000
   19        4.715841      4.715799   0.000000   0.000000
   20        5.984628      5.984559   0.000000   0.000000
   21        9.115520      9.115580   0.000000   0.000000
   22        9.551583      9.551606   0.000000   0.000000
   23       11.307244     11.307802   0.000000   0.000000
   24       11.343086     11.343129   0.000000   0.000000
   25       12.616896     12.614009   0.000000   0.000000
   26       12.900468     12.893313   0.000000   0.000000
 
  0.4545455E+00  0.5588325E-16  0.0000000E+00  0.3787879E-02
    1      -42.493338    -42.493161   1.000000   1.000000
    2      -42.492262    -42.492086   1.000000   1.000000
    3      -42.131016    -42.130872   1.000000   1.000000
    4      -42.130167    -42.130023   1.000000   1.000000
    5      -18.292733    -18.292795   1.000000   1.000000
    6      -18.198478    -18.198540   1.000000   1.000000
    7      -13.001391    -13.001462   1.000000   1.000000
    8      -12.650765    -12.650843   1.000000   1.000000
    9       -3.975041     -3.975063   1.000000   1.000000
   10       -3.407171     -3.407187   1.000000   1.000000
   11       -2.673165     -2.673197   1.000000   1.000000
   12       -2.513562     -2.513607   1.000000   1.000000
   13       -1.850231     -1.850281   1.000000   1.000000
   14       -1.450799     -1.450857   1.000000   1.000000
   15        0.035788      0.035751   1.000000   1.000000
   16        0.245372      0.245320   1.000000   1.000000
   17        1.288140      1.288071   1.000000   1.000000
   18        1.984158      1.984070   1.000000   1.000000
   19        4.845236      4.845190   0.000000   0.000000
   20        5.899690      5.899622   0.000000   0.000000
   21        9.349412      9.349690   0.000000   0.000000
   22       10.080691     10.080719   0.000000   0.000000
   23       11.160129     11.160090   0.000000   0.000000
   24       11.615543     11.615526   0.000000   0.000000
   25       12.737355     12.731478   0.000000   0.000000
   26       13.028283     13.031032   0.000000   0.000000
 
 -0.1915630E-17  0.8333333E-01  0.0000000E+00  0.3787879E-02
    1      -42.500710    -42.500534   1.000000   1.000000
    2      -42.496758    -42.496581   1.000000   1.000000
    3      -42.138401    -42.138258   1.000000   1.000000
    4      -42.135103    -42.134960   1.000000   1.000000
    5      -18.409109    -18.409165   1.000000   1.000000
    6      -18.238150    -18.238209   1.000000   1.000000
    7      -13.339674    -13.339737   1.000000   1.000000
    8      -12.689758    -12.689838   1.000000   1.000000
    9       -4.227013     -4.227027   1.000000   1.000000
   10       -2.624778     -2.624831   1.000000   1.000000
   11       -1.644139     -1.644191   1.000000   1.000000
   12       -1.520460     -1.520514   1.000000   1.000000
   13       -1.397580     -1.397637   1.000000   1.000000
   14       -1.284825     -1.284883   1.000000   1.000000
   15        1.489714      1.489639   1.000000   1.000000
   16        1.598154      1.598078   1.000000   1.000000
   17        1.815089      1.815007   1.000000   1.000000
   18        1.908947      1.908861   1.000000   1.000000
   19        4.111841      4.111826   0.000000   0.000000
   20        6.206604      6.206533   0.000000   0.000000
   21        7.382091      7.382118   0.000000   0.000000
   22        7.624280      7.624332   0.000000   0.000000
   23       10.093510     10.093505   0.000000   0.000000
   24       10.391099     10.391078   0.000000   0.000000
   25       12.482064     12.482110   0.000000   0.000000
   26       13.031370     13.030633   0.000000   0.000000
 
  0.9090909E-01  0.8333333E-01  0.0000000E+00  0.3787879E-02
    1      -42.499444    -42.499268   1.000000   1.000000
    2      -42.495968    -42.495792   1.000000   1.000000
    3      -42.137099    -42.136956   1.000000   1.000000
    4      -42.134240    -42.134097   1.000000   1.000000
    5      -18.391116    -18.391172   1.000000   1.000000
    6      -18.228763    -18.228823   1.000000   1.000000
    7      -13.292572    -13.292635   1.000000   1.000000
    8      -12.674267    -12.674346   1.000000   1.000000
    9       -4.196077     -4.196092   1.000000   1.000000
   10       -2.663841     -2.663892   1.000000   1.000000
   11       -1.908289     -1.908334   1.000000   1.000000
   12       -1.710544     -1.710594   1.000000   1.000000
   13       -1.482703     -1.482759   1.000000   1.000000
   14       -1.321189     -1.321247   1.000000   1.000000
   15        1.180843      1.180776   1.000000   1.000000
   16        1.414272      1.414203   1.000000   1.000000
   17        1.667774      1.667695   1.000000   1.000000
   18        1.934840      1.934753   1.000000   1.000000
   19        4.242425      4.242402   0.000000   0.000000
   20        6.185120      6.185048   0.000000   0.000000
   21        7.737376      7.737396   0.000000   0.000000
   22        7.946959      7.947003   0.000000   0.000000
   23       10.324961     10.324951   0.000000   0.000000
   24       10.809649     10.809630   0.000000   0.000000
   25       12.170336     12.170728   0.000000   0.000000
   26       13.365836     13.400140   0.000000   0.000000
 
  0.1818182E+00  0.8333333E-01  0.0000000E+00  0.3787879E-02
    1      -42.497366    -42.497190   1.000000   1.000000
    2      -42.494689    -42.494513   1.000000   1.000000
    3      -42.134981    -42.134838   1.000000   1.000000
    4      -42.132861    -42.132717   1.000000   1.000000
    5      -18.360164    -18.360222   1.000000   1.000000
    6      -18.215007    -18.215067   1.000000   1.000000
    7      -13.207971    -13.208036   1.000000   1.000000
    8      -12.654054    -12.654134   1.000000   1.000000
    9       -4.138350     -4.138367   1.000000   1.000000
   10       -2.784131     -2.784175   1.000000   1.000000
   11       -2.259394     -2.259434   1.000000   1.000000
   12       -2.030655     -2.030697   1.000000   1.000000
   13       -1.610609     -1.610663   1.000000   1.000000
   14       -1.381740     -1.381797   1.000000   1.000000
   15        0.748121      0.748065   1.000000   1.000000
   16        1.056341      1.056281   1.000000   1.000000
   17        1.508930      1.508854   1.000000   1.000000
   18        1.931176      1.931090   1.000000   1.000000
   19        4.444148      4.444116   0.000000   0.000000
   20        6.125955      6.125883   0.000000   0.000000
   21        8.360121      8.360121   0.000000   0.000000
   22        8.507777      8.507812   0.000000   0.000000
   23       10.729255     10.729265   0.000000   0.000000
   24       11.522445     11.522394   0.000000   0.000000
   25       11.757934     11.758334   0.000000   0.000000
   26       13.468934     13.475492   0.000000   0.000000
 
  0.2727273E+00  0.8333333E-01  0.0000000E+00  0.3787879E-02
    1      -42.495128    -42.494951   1.000000   1.000000
    2      -42.493297    -42.493120   1.000000   1.000000
    3      -42.132688    -42.132545   1.000000   1.000000
    4      -42.131347    -42.131203   1.000000   1.000000
    5      -18.324158    -18.324218   1.000000   1.000000
    6      -18.202598    -18.202659   1.000000   1.000000
    7      -13.104704    -13.104772   1.000000   1.000000
    8      -12.642224    -12.642303   1.000000   1.000000
    9       -4.061204     -4.061223   1.000000   1.000000
   10       -3.042532     -3.042562   1.000000   1.000000
   11       -2.493735     -2.493774   1.000000   1.000000
   12       -2.342153     -2.342192   1.000000   1.000000
   13       -1.747965     -1.748016   1.000000   1.000000
   14       -1.451748     -1.451804   1.000000   1.000000
   15        0.359710      0.359664   1.000000   1.000000
   16        0.663433      0.663378   1.000000   1.000000
   17        1.357755      1.357683   1.000000   1.000000
   18        1.911370      1.911285   1.000000   1.000000
   19        4.658669      4.658629   0.000000   0.000000
   20        6.027767      6.027697   0.000000   0.000000
   21        9.011361      9.011356   0.000000   0.000000
   22        9.214388      9.214410   0.000000   0.000000
   23       11.185483     11.185761   0.000000   0.000000
   24       11.431440     11.431679   0.000000   0.000000
   25       12.335603     12.334968   0.000000   0.000000
   26       13.033686     13.034070   0.000000   0.000000
 
  0.3636364E+00  0.8333333E-01  0.0000000E+00  0.3787879E-02
    1      -42.493449    -42.493273   1.000000   1.000000
    2      -42.492276    -42.492100   1.000000   1.000000
    3      -42.131019    -42.130876   1.000000   1.000000
    4      -42.130185    -42.130042   1.000000   1.000000
    5      -18.293899    -18.293960   1.000000   1.000000
    6      -18.196264    -18.196326   1.000000   1.000000
    7      -13.012778    -13.012849   1.000000   1.000000
    8      -12.646198    -12.646276   1.000000   1.000000
    9       -3.978259     -3.978281   1.000000   1.000000
   10       -3.318635     -3.318655   1.000000   1.000000
   11       -2.635364     -2.635397   1.000000   1.000000
   12       -2.524573     -2.524617   1.000000   1.000000
   13       -1.850672     -1.850721   1.000000   1.000000
   14       -1.507322     -1.507378   1.000000   1.000000
   15        0.114340      0.114300   1.000000   1.000000
   16        0.358404      0.358352   1.000000   1.000000
   17        1.248315      1.248247   1.000000   1.000000
   18        1.886380      1.886295   1.000000   1.000000
   19        4.838545      4.838499   0.000000   0.000000
   20        5.918933      5.918865   0.000000   0.000000
   21        9.434289      9.434305   0.000000   0.000000
   22        9.937019      9.937019   0.000000   0.000000
   23       11.216812     11.216825   0.000000   0.000000
   24       11.565591     11.565555   0.000000   0.000000
   25       12.762970     12.761930   0.000000   0.000000
   26       12.920079     12.919228   0.000000   0.000000
 
  0.4545455E+00  0.8333333E-01  0.0000000E+00  0.3787879E-02
    1      -42.492852    -42.492676   1.000000   1.000000
    2      -42.491933    -42.491756   1.000000   1.000000
    3      -42.130486    -42.130342   1.000000   1.000000
    4      -42.129752    -42.129608   1.000000   1.000000
    5      -18.281769    -18.281830   1.000000   1.000000
    6      -18.196015    -18.196077   1.000000   1.000000
    7      -12.972929    -12.973001   1.000000   1.000000
    8      -12.654471    -12.654549   1.000000   1.000000
    9       -3.931966     -3.931990   1.000000   1.000000
   10       -3.438981     -3.438996   1.000000   1.000000
   11       -2.699984     -2.700016   1.000000   1.000000
   12       -2.571081     -2.571126   1.000000   1.000000
   13       -1.891460     -1.891508   1.000000   1.000000
   14       -1.528900     -1.528956   1.000000   1.000000
   15        0.041879      0.041842   1.000000   1.000000
   16        0.241024      0.240972   1.000000   1.000000
   17        1.200924      1.200857   1.000000   1.000000
   18        1.870951      1.870866   1.000000   1.000000
   19        4.918218      4.918170   0.000000   0.000000
   20        5.863825      5.863758   0.000000   0.000000
   21        9.576880      9.577068   0.000000   0.000000
   22       10.319422     10.319451   0.000000   0.000000
   23       11.127856     11.127797   0.000000   0.000000
   24       11.731240     11.731214   0.000000   0.000000
   25       12.686331     12.685938   0.000000   0.000000
   26       13.018062     13.025015   0.000000   0.000000
 
 -0.4545455E+00  0.8333333E-01  0.0000000E+00  0.3787879E-02
    1      -42.493528    -42.493352   1.000000   1.000000
    2      -42.492334    -42.492158   1.000000   1.000000
    3      -42.131139    -42.130996   1.000000   1.000000
    4      -42.130261    -42.130118   1.000000   1.000000
    5      -18.294774    -18.294835   1.000000   1.000000
    6      -18.198835    -18.198897   1.000000   1.000000
    7      -13.012043    -13.012114   1.000000   1.000000
    8      -12.650834    -12.650912   1.000000   1.000000
    9       -3.976459     -3.976480   1.000000   1.000000
   10       -3.317251     -3.317271   1.000000   1.000000
   11       -2.640517     -2.640553   1.000000   1.000000
   12       -2.520673     -2.520715   1.000000   1.000000
   13       -1.860054     -1.860103   1.000000   1.000000
   14       -1.509074     -1.509129   1.000000   1.000000
   15        0.127582      0.127542   1.000000   1.000000
   16        0.365974      0.365921   1.000000   1.000000
   17        1.224517      1.224450   1.000000   1.000000
   18        1.873722      1.873637   1.000000   1.000000
   19        4.849165      4.849118   0.000000   0.000000
   20        5.912259      5.912191   0.000000   0.000000
   21        9.463895      9.463907   0.000000   0.000000
   22       10.016139     10.016137   0.000000   0.000000
   23       11.271941     11.271867   0.000000   0.000000
   24       11.587575     11.587507   0.000000   0.000000
   25       12.762515     12.763154   0.000000   0.000000
   26       12.854168     12.854062   0.000000   0.000000
 
 -0.3636364E+00  0.8333333E-01  0.0000000E+00  0.3787879E-02
    1      -42.495283    -42.495107   1.000000   1.000000
    2      -42.493447    -42.493271   1.000000   1.000000
    3      -42.132880    -42.132737   1.000000   1.000000
    4      -42.131557    -42.131414   1.000000   1.000000
    5      -18.326093    -18.326153   1.000000   1.000000
    6      -18.206569    -18.206630   1.000000   1.000000
    7      -13.104595    -13.104664   1.000000   1.000000
    8      -12.649083    -12.649162   1.000000   1.000000
    9       -4.059473     -4.059492   1.000000   1.000000
   10       -3.046343     -3.046374   1.000000   1.000000
   11       -2.500434     -2.500474   1.000000   1.000000
   12       -2.334104     -2.334143   1.000000   1.000000
   13       -1.758937     -1.758986   1.000000   1.000000
   14       -1.454359     -1.454415   1.000000   1.000000
   15        0.375987      0.375940   1.000000   1.000000
   16        0.679865      0.679809   1.000000   1.000000
   17        1.317763      1.317694   1.000000   1.000000
   18        1.892965      1.892880   1.000000   1.000000
   19        4.674805      4.674763   0.000000   0.000000
   20        6.019290      6.019220   0.000000   0.000000
   21        9.080790      9.080782   0.000000   0.000000
   22        9.329235      9.329252   0.000000   0.000000
   23       11.216488     11.216388   0.000000   0.000000
   24       11.480739     11.480097   0.000000   0.000000
   25       12.310890     12.307581   0.000000   0.000000
   26       12.988431     12.985055   0.000000   0.000000
 
 -0.2727273E+00  0.8333333E-01  0.0000000E+00  0.3787879E-02
    1      -42.497541    -42.497365   1.000000   1.000000
    2      -42.494826    -42.494650   1.000000   1.000000
    3      -42.135155    -42.135012   1.000000   1.000000
    4      -42.133106    -42.132963   1.000000   1.000000
    5      -18.362540    -18.362597   1.000000   1.000000
    6      -18.219047    -18.219108   1.000000   1.000000
    7      -13.208438    -13.208503   1.000000   1.000000
    8      -12.660572    -12.660651   1.000000   1.000000
    9       -4.137894     -4.137911   1.000000   1.000000
   10       -2.798649     -2.798693   1.000000   1.000000
   11       -2.252701     -2.252741   1.000000   1.000000
   12       -2.040651     -2.040695   1.000000   1.000000
   13       -1.604043     -1.604095   1.000000   1.000000
   14       -1.383645     -1.383702   1.000000   1.000000
   15        0.756731      0.756674   1.000000   1.000000
   16        1.072137      1.072075   1.000000   1.000000
   17        1.471483      1.471410   1.000000   1.000000
   18        1.917786      1.917701   1.000000   1.000000
   19        4.461077      4.461044   0.000000   0.000000
   20        6.119041      6.118969   0.000000   0.000000
   21        8.460890      8.460891   0.000000   0.000000
   22        8.593565      8.593601   0.000000   0.000000
   23       10.759700     10.759717   0.000000   0.000000
   24       11.534322     11.534197   0.000000   0.000000
   25       11.740681     11.739984   0.000000   0.000000
   26       13.292180     13.292208   0.000000   0.000000
 
 -0.1818182E+00  0.8333333E-01  0.0000000E+00  0.3787879E-02
    1      -42.499576    -42.499400   1.000000   1.000000
    2      -42.496090    -42.495914   1.000000   1.000000
    3      -42.137253    -42.137110   1.000000   1.000000
    4      -42.134433    -42.134289   1.000000   1.000000
    5      -18.393028    -18.393085   1.000000   1.000000
    6      -18.231840    -18.231900   1.000000   1.000000
    7      -13.293247    -13.293310   1.000000   1.000000
    8      -12.678814    -12.678894   1.000000   1.000000
    9       -4.196561     -4.196576   1.000000   1.000000
   10       -2.676386     -2.676436   1.000000   1.000000
   11       -1.906979     -1.907025   1.000000   1.000000
   12       -1.746792     -1.746842   1.000000   1.000000
   13       -1.443572     -1.443627   1.000000   1.000000
   14       -1.319210     -1.319268   1.000000   1.000000
   15        1.170846      1.170778   1.000000   1.000000
   16        1.416328      1.416257   1.000000   1.000000
   17        1.654871      1.654794   1.000000   1.000000
   18        1.937400      1.937316   1.000000   1.000000
   19        4.255191      4.255167   0.000000   0.000000
   20        6.181034      6.180961   0.000000   0.000000
   21        7.810440      7.810458   0.000000   0.000000
   22        8.000068      8.000113   0.000000   0.000000
   23       10.347600     10.347593   0.000000   0.000000
   24       10.825519     10.825493   0.000000   0.000000
   25       12.031449     12.031516   0.000000   0.000000
   26       13.507013     13.524919   0.000000   0.000000
 
 -0.9090909E-01  0.8333333E-01  0.0000000E+00  0.3787879E-02
    1      -42.500756    -42.500580   1.000000   1.000000
    2      -42.496793    -42.496616   1.000000   1.000000
    3      -42.138460    -42.138317   1.000000   1.000000
    4      -42.135161    -42.135017   1.000000   1.000000
    5      -18.409816    -18.409872   1.000000   1.000000
    6      -18.239293    -18.239352   1.000000   1.000000
    7      -13.340052    -13.340115   1.000000   1.000000
    8      -12.691298    -12.691378   1.000000   1.000000
    9       -4.227359     -4.227373   1.000000   1.000000
   10       -2.629157     -2.629209   1.000000   1.000000
   11       -1.658853     -1.658905   1.000000   1.000000
   12       -1.532959     -1.533013   1.000000   1.000000
   13       -1.380500     -1.380557   1.000000   1.000000
   14       -1.271646     -1.271704   1.000000   1.000000
   15        1.462021      1.461945   1.000000   1.000000
   16        1.622338      1.622262   1.000000   1.000000
   17        1.786623      1.786541   1.000000   1.000000
   18        1.934853      1.934769   1.000000   1.000000
   19        4.116466      4.116450   0.000000   0.000000
   20        6.205309      6.205237   0.000000   0.000000
   21        7.407094      7.407122   0.000000   0.000000
   22        7.642482      7.642537   0.000000   0.000000
   23       10.102421     10.102416   0.000000   0.000000
   24       10.396394     10.396374   0.000000   0.000000
   25       12.309395     12.309242   0.000000   0.000000
   26       13.309751     13.311907   0.000000   0.000000
 
  0.3099377E-17  0.1666667E+00  0.0000000E+00  0.3787879E-02
    1      -42.498567    -42.498391   1.000000   1.000000
    2      -42.495298    -42.495122   1.000000   1.000000
    3      -42.136095    -42.135952   1.000000   1.000000
    4      -42.133442    -42.133299   1.000000   1.000000
    5      -18.376816    -18.376873   1.000000   1.000000
    6      -18.217962    -18.218022   1.000000   1.000000
    7      -13.264994    -13.265058   1.000000   1.000000
    8      -12.659353    -12.659433   1.000000   1.000000
    9       -4.176984     -4.177000   1.000000   1.000000
   10       -2.658482     -2.658533   1.000000   1.000000
   11       -1.890806     -1.890850   1.000000   1.000000
   12       -1.788444     -1.788495   1.000000   1.000000
   13       -1.574817     -1.574866   1.000000   1.000000
   14       -1.477473     -1.477531   1.000000   1.000000
   15        1.177750      1.177685   1.000000   1.000000
   16        1.366523      1.366451   1.000000   1.000000
   17        1.514594      1.514526   1.000000   1.000000
   18        1.870994      1.870906   1.000000   1.000000
   19        4.287903      4.287877   0.000000   0.000000
   20        6.176378      6.176306   0.000000   0.000000
   21        7.768732      7.768748   0.000000   0.000000
   22        8.012360      8.012403   0.000000   0.000000
   23       10.392674     10.392665   0.000000   0.000000
   24       10.953976     10.954119   0.000000   0.000000
   25       12.436627     12.436151   0.000000   0.000000
   26       12.981028     12.981948   0.000000   0.000000
 
  0.9090909E-01  0.1666667E+00  0.0000000E+00  0.3787879E-02
    1      -42.496989    -42.496813   1.000000   1.000000
    2      -42.494332    -42.494156   1.000000   1.000000
    3      -42.134462    -42.134319   1.000000   1.000000
    4      -42.132383    -42.132240   1.000000   1.000000
    5      -18.352450    -18.352508   1.000000   1.000000
    6      -18.206821    -18.206882   1.000000   1.000000
    7      -13.200079    -13.200144   1.000000   1.000000
    8      -12.643905    -12.643985   1.000000   1.000000
    9       -4.131226     -4.131243   1.000000   1.000000
   10       -2.733066     -2.733114   1.000000   1.000000
   11       -2.157020     -2.157059   1.000000   1.000000
   12       -2.053609     -2.053652   1.000000   1.000000
   13       -1.624418     -1.624468   1.000000   1.000000
   14       -1.565583     -1.565639   1.000000   1.000000
   15        0.876628      0.876568   1.000000   1.000000
   16        1.079754      1.079696   1.000000   1.000000
   17        1.432460      1.432388   1.000000   1.000000
   18        1.827277      1.827191   1.000000   1.000000
   19        4.440649      4.440617   0.000000   0.000000
   20        6.130363      6.130291   0.000000   0.000000
   21        8.187532      8.187547   0.000000   0.000000
   22        8.443196      8.443227   0.000000   0.000000
   23       10.674174     10.674166   0.000000   0.000000
   24       11.475594     11.475590   0.000000   0.000000
   25       12.059943     12.059946   0.000000   0.000000