       N       E                     dE             d eps       ncg     rms          rms(c)
DAV:   1     0.261063885084E+03    0.26106E+03   -0.17324E+04 20904   0.146E+03
DAV:   2    -0.133998340290E+02   -0.27446E+03   -0.26510E+03 25068   0.364E+02
DAV:   3    -0.371115861543E+02   -0.23712E+02   -0.23541E+02 33000   0.919E+01
DAV:   4    -0.390671846562E+02   -0.19556E+01   -0.19486E+01 31882   0.238E+01
DAV:   5    -0.391380011453E+02   -0.70816E-01   -0.70810E-01 28970   0.367E+00    0.177E+01
RMM:   6    -0.379780834562E+02    0.11599E+01   -0.53801E+00 23136   0.121E+01    0.781E+00
RMM:   7    -0.385707679787E+02   -0.59268E+00   -0.83599E-01 26789   0.563E+00    0.388E+00
RMM:   8    -0.386482159848E+02   -0.77448E-01   -0.37911E-01 31530   0.351E+00    0.158E+00
RMM:   9    -0.386611766784E+02   -0.12961E-01   -0.12754E-01 32322   0.237E+00    0.380E-01
RMM:  10    -0.386724854400E+02   -0.11309E-01   -0.69752E-02 36916   0.132E+00    0.191E-01
RMM:  11    -0.386769480422E+02   -0.44626E-02   -0.26929E-02 38033   0.782E-01    0.131E-01
RMM:  12    -0.386786637253E+02   -0.17157E-02   -0.12034E-02 39151   0.476E-01    0.975E-02
RMM:  13    -0.386791716379E+02   -0.50791E-03   -0.42787E-03 37090   0.336E-01    0.481E-02
RMM:  14    -0.386795336841E+02   -0.36205E-03   -0.23877E-03 38057   0.240E-01    0.132E-02
RMM:  15    -0.386796705693E+02   -0.13689E-03   -0.12030E-03 35885   0.142E-01    0.109E-02
RMM:  16    -0.386797254849E+02   -0.54916E-04   -0.49273E-04 34766   0.944E-02    0.986E-03
RMM:  17    -0.386797429975E+02   -0.17513E-04   -0.19149E-04 32915   0.653E-02    0.334E-03
RMM:  18    -0.386797512277E+02   -0.82302E-05   -0.80396E-05 27803   0.473E-02
   1 F= -.38679751E+02 E0= -.38679751E+02  d E =0.000000E+00  mag=    -0.0000
