    8    8    1    2
  0.9661259E+01  0.4898388E-09  0.4898388E-09  0.4898388E-09  0.5000000E-15
  1.000000000000000E-004
  CAR 
 unknown system                          
     36    169     26
 
  0.0000000E+00  0.0000000E+00  0.0000000E+00  0.1562500E-02
    1      -38.721085    -38.721013   1.000000   1.000000
    2      -38.699126    -38.699054   1.000000   1.000000
    3      -13.994381    -13.994404   1.000000   1.000000
    4       -9.589899     -9.589926   1.000000   1.000000
    5       -9.589899     -9.589926   1.000000   1.000000
    6       -9.336614     -9.336642   1.000000   1.000000
    7       -7.353839     -7.353869   1.000000   1.000000
    8       -2.380337     -2.380357   1.000000   1.000000
    9       -2.380337     -2.380357   1.000000   1.000000
   10       -1.692142     -1.692164   1.000000   1.000000
   11        0.903993      0.903978   1.000000   1.000000
   12        1.752575      1.752570   1.000000   1.000000
   13        2.254717      2.254704   1.000000   1.000000
   14        3.327019      3.327006   1.000000   1.000000
   15        3.327020      3.327006   1.000000   1.000000
   16        3.651697      3.651684   1.000000   1.000000
   17        3.651697      3.651684   1.000000   1.000000
   18        3.798337      3.798310   1.000000   1.000000
   19        8.433826      8.433851   0.000004   0.000004
   20       10.573134     10.573145   0.000000   0.000000
   21       12.947801     12.947777   0.000000   0.000000
   22       12.947805     12.947794   0.000000   0.000000
   23       13.385539     13.385548   0.000000   0.000000
   24       13.385542     13.385558   0.000000   0.000000
   25       14.016308     14.016204   0.000000   0.000000
   26       14.722753     14.723969   0.000000   0.000000
 
  0.1250000E+00 -0.4094036E-17  0.4094036E-17  0.6250000E-02
    1      -38.720420    -38.720348   1.000000   1.000000
    2      -38.699757    -38.699685   1.000000   1.000000
    3      -13.918645    -13.918667   1.000000   1.000000
    4       -9.892868     -9.892895   1.000000   1.000000
    5       -9.610900     -9.610927   1.000000   1.000000
    6       -9.415532     -9.415560   1.000000   1.000000
    7       -6.986483     -6.986513   1.000000   1.000000
    8       -2.411513     -2.411533   1.000000   1.000000
    9       -2.358312     -2.358332   1.000000   1.000000
   10       -1.618400     -1.618422   1.000000   1.000000
   11        0.843077      0.843063   1.000000   1.000000
   12        1.882019      1.882012   1.000000   1.000000
   13        2.246989      2.246976   1.000000   1.000000
   14        3.144752      3.144736   1.000000   1.000000
   15        3.341773      3.341756   1.000000   1.000000
   16        3.618989      3.618978   1.000000   1.000000
   17        3.642612      3.642595   1.000000   1.000000
   18        3.796514      3.796498   1.000000   1.000000
   19        8.755623      8.755645  -0.000000  -0.000000
   20       10.841575     10.841584   0.000000   0.000000
   21       12.281527     12.281517   0.000000   0.000000
   22       12.547470     12.547460   0.000000   0.000000
   23       13.197436     13.197431   0.000000   0.000000
   24       13.625690     13.625653   0.000000   0.000000
   25       14.142371     14.140834   0.000000   0.000000
   26       14.897914     14.887559   0.000000   0.000000
 
  0.2500000E+00 -0.8188071E-17  0.8188071E-17  0.6250000E-02
    1      -38.718745    -38.718673   1.000000   1.000000
    2      -38.701389    -38.701317   1.000000   1.000000
    3      -13.705982    -13.706006   1.000000   1.000000
    4      -10.574356    -10.574382   1.000000   1.000000
    5       -9.648429     -9.648455   1.000000   1.000000
    6       -9.475045     -9.475072   1.000000   1.000000
    7       -6.311744     -6.311773   1.000000   1.000000
    8       -2.503999     -2.504020   1.000000   1.000000
    9       -2.229611     -2.229632   1.000000   1.000000
   10       -1.478076     -1.478099   1.000000   1.000000
   11        0.784950      0.784939   1.000000   1.000000
   12        2.007598      2.007580   1.000000   1.000000
   13        2.271241      2.271227   1.000000   1.000000
   14        2.503201      2.503197   1.000000   1.000000
   15        3.229846      3.229830   1.000000   1.000000
   16        3.547679      3.547658   1.000000   1.000000
   17        3.752930      3.752921   1.000000   1.000000
   18        4.150467      4.150451   1.000000   1.000000
   19        9.616122      9.616137   0.000000   0.000000
   20       11.341288     11.341298   0.000000   0.000000
   21       11.374264     11.374257   0.000000   0.000000
   22       12.030119     12.030113   0.000000   0.000000
   23       12.711638     12.711623   0.000000   0.000000
   24       14.085735     14.083169   0.000000   0.000000
   25       14.330621     14.329240   0.000000   0.000000
   26       15.157091     15.135046   0.000000   0.000000
 
  0.3750000E+00 -0.4353094E-16 -0.1198021E-16  0.6250000E-02
    1      -38.716620    -38.716548   1.000000   1.000000
    2      -38.703474    -38.703402   1.000000   1.000000
    3      -13.420895    -13.420920   1.000000   1.000000
    4      -11.209256    -11.209281   1.000000   1.000000
    5       -9.667405     -9.667432   1.000000   1.000000
    6       -9.537584     -9.537611   1.000000   1.000000
    7       -5.753826     -5.753853   1.000000   1.000000
    8       -2.566338     -2.566362   1.000000   1.000000
    9       -2.003656     -2.003679   1.000000   1.000000
   10       -1.436084     -1.436107   1.000000   1.000000
   11        0.873836      0.873824   1.000000   1.000000
   12        1.494231      1.494218   1.000000   1.000000
   13        2.072156      2.072147   1.000000   1.000000
   14        2.595554      2.595542   1.000000   1.000000
   15        3.086676      3.086663   1.000000   1.000000
   16        3.417847      3.417831   1.000000   1.000000
   17        4.016149      4.016135   1.000000   1.000000
   18        4.505578      4.505556   1.000000   1.000000
   19       10.590103     10.590098   0.000000   0.000000
   20       10.828101     10.828110   0.000000   0.000000
   21       11.640174     11.640182   0.000000   0.000000
   22       11.995588     11.995621   0.000000   0.000000
   23       12.265684     12.266147   0.000000   0.000000
   24       14.105570     14.106884   0.000000   0.000000
   25       14.500326     14.717262   0.000000   0.000000
   26       14.756054     15.119633   0.000000   0.000000
 
  0.5000000E+00 -0.1637614E-16  0.1637614E-16  0.6250000E-02
    1      -38.715495    -38.715423   1.000000   1.000000
    2      -38.704531    -38.704459   1.000000   1.000000
    3      -13.259254    -13.259279   1.000000   1.000000
    4      -11.495078    -11.495103   1.000000   1.000000
    5       -9.666205     -9.666231   1.000000   1.000000
    6       -9.571493     -9.571520   1.000000   1.000000
    7       -5.539579     -5.539605   1.000000   1.000000
    8       -2.576260     -2.576286   1.000000   1.000000
    9       -1.842404     -1.842429   1.000000   1.000000
   10       -1.489115     -1.489137   1.000000   1.000000
   11        0.945648      0.945641   1.000000   1.000000
   12        1.250399      1.250384   1.000000   1.000000
   13        1.871462      1.871455   1.000000   1.000000
   14        2.810377      2.810363   1.000000   1.000000
   15        3.005228      3.005211   1.000000   1.000000
   16        3.318309      3.318299   1.000000   1.000000
   17        4.160073      4.160056   1.000000   1.000000
   18        4.634204      4.634180   1.000000   1.000000
   19       10.392557     10.392556   0.000000   0.000000
   20       11.402158     11.402159   0.000000   0.000000
   21       11.802386     11.802362   0.000000   0.000000
   22       11.954435     11.954411   0.000000   0.000000
   23       12.317262     12.317273   0.000000   0.000000
   24       13.748979     13.746731   0.000000   0.000000
   25       14.092333     14.091184   0.000000   0.000000
   26       14.547163     14.549634   0.000000   0.000000
 
  0.1250000E+00  0.1250000E+00  0.4982143E-16  0.3125000E-02
    1      -38.719427    -38.719355   1.000000   1.000000
    2      -38.700718    -38.700646   1.000000   1.000000
    3      -13.797437    -13.797460   1.000000   1.000000
    4      -10.288861    -10.288888   1.000000   1.000000
    5       -9.649339     -9.649366   1.000000   1.000000
    6       -9.494894     -9.494922   1.000000   1.000000
    7       -6.516313     -6.516342   1.000000   1.000000
    8       -2.524611     -2.524630   1.000000   1.000000
    9       -2.145306     -2.145328   1.000000   1.000000
   10       -1.611717     -1.611740   1.000000   1.000000
   11        0.852409      0.852397   1.000000   1.000000
   12        2.006474      2.006462   1.000000   1.000000
   13        2.188652      2.188639   1.000000   1.000000
   14        2.747256      2.747244   1.000000   1.000000
   15        3.232657      3.232640   1.000000   1.000000
   16        3.604544      3.604526   1.000000   1.000000
   17        3.805466      3.805451   1.000000   1.000000
   18        3.858327      3.858317   1.000000   1.000000
   19        9.240932      9.240950  -0.000000  -0.000000
   20       11.053236     11.053245   0.000000   0.000000
   21       11.917244     11.917239   0.000000   0.000000
   22       11.961292     11.961288   0.000000   0.000000
   23       13.042177     13.042192   0.000000   0.000000
   24       13.769823     13.769955   0.000000   0.000000
   25       14.200103     14.283001   0.000000   0.000000
   26       14.840167     15.487268   0.000000   0.000000
 
  0.2500000E+00  0.1250000E+00  0.7128651E-16  0.6250000E-02
    1      -38.717497    -38.717425   1.000000   1.000000
    2      -38.702577    -38.702505   1.000000   1.000000
    3      -13.550177    -13.550200   1.000000   1.000000
    4      -10.919085    -10.919111   1.000000   1.000000
    5       -9.694471     -9.694497   1.000000   1.000000
    6       -9.543412     -9.543439   1.000000   1.000000
    7       -5.902233     -5.902261   1.000000   1.000000
    8       -2.655254     -2.655276   1.000000   1.000000
    9       -1.946910     -1.946932   1.000000   1.000000
   10       -1.506983     -1.507007   1.000000   1.000000
   11        0.899320      0.899309   1.000000   1.000000
   12        1.695609      1.695596   1.000000   1.000000
   13        2.148065      2.148052   1.000000   1.000000
   14        2.500597      2.500588   1.000000   1.000000
   15        3.108542      3.108527   1.000000   1.000000
   16        3.600942      3.600923   1.000000   1.000000
   17        3.937812      3.937798   1.000000   1.000000
   18        4.213163      4.213146   1.000000   1.000000
   19       10.119737     10.119748   0.000000   0.000000
   20       10.959153     10.959159   0.000000   0.000000
   21       11.293582     11.293583   0.000000   0.000000
   22       11.988168     11.988156   0.000000   0.000000
   23       12.757338     12.757317   0.000000   0.000000
   24       13.792611     13.792606   0.000000   0.000000
   25       14.421505     14.421547   0.000000   0.000000
   26       14.995119     14.994619   0.000000   0.000000
 
  0.3750000E+00  0.1250000E+00  0.4413172E-16  0.1250000E-01
    1      -38.715500    -38.715428   1.000000   1.000000
    2      -38.704535    -38.704463   1.000000   1.000000
    3      -13.268431    -13.268457   1.000000   1.000000
    4      -11.449274    -11.449300   1.000000   1.000000
    5       -9.711261     -9.711286   1.000000   1.000000
    6       -9.589792     -9.589818   1.000000   1.000000
    7       -5.461069     -5.461096   1.000000   1.000000
    8       -2.758695     -2.758721   1.000000   1.000000
    9       -1.765026     -1.765050   1.000000   1.000000
   10       -1.465180     -1.465203   1.000000   1.000000
   11        0.967113      0.967106   1.000000   1.000000
   12        1.244483      1.244470   1.000000   1.000000
   13        1.956472      1.956462   1.000000   1.000000
   14        2.666973      2.666958   1.000000   1.000000
   15        3.083226      3.083214   1.000000   1.000000
   16        3.540472      3.540455   1.000000   1.000000
   17        4.100786      4.100770   1.000000   1.000000
   18        4.493325      4.493303   1.000000   1.000000
   19       10.478993     10.478992   0.000000   0.000000
   20       11.160856     11.160858   0.000000   0.000000
   21       11.291103     11.291129   0.000000   0.000000
   22       11.875715     11.875718   0.000000   0.000000
   23       12.797022     12.797173   0.000000   0.000000
   24       13.825048     13.827596   0.000000   0.000000
   25       14.442275     14.474760   0.000000   0.000000
   26       14.584692     14.583718   0.000000   0.000000
 
  0.5000000E+00  0.1250000E+00  0.3784122E-16  0.1250000E-01
    1      -38.715046    -38.714974   1.000000   1.000000
    2      -38.704928    -38.704856   1.000000   1.000000
    3      -13.201781    -13.201806   1.000000   1.000000
    4      -11.553262    -11.553287   1.000000   1.000000
    5       -9.716396     -9.716421   1.000000   1.000000
    6       -9.585861     -9.585888   1.000000   1.000000
    7       -5.406049     -5.406076   1.000000   1.000000
    8       -2.831298     -2.831324   1.000000   1.000000
    9       -1.786454     -1.786478   1.000000   1.000000
   10       -1.365337     -1.365360   1.000000   1.000000
   11        0.797332      0.797325   1.000000   1.000000
   12        1.274295      1.274284   1.000000   1.000000
   13        1.988469      1.988459   1.000000   1.000000
   14        2.846437      2.846420   1.000000   1.000000
   15        3.078371      3.078357   1.000000   1.000000
   16        3.452184      3.452172   1.000000   1.000000
   17        4.115760      4.115744   1.000000   1.000000
   18        4.550598      4.550575   1.000000   1.000000
   19       10.356091     10.356089   0.000000   0.000000
   20       11.272805     11.272807   0.000000   0.000000
   21       11.583070     11.583061   0.000000   0.000000
   22       12.020442     12.020434   0.000000   0.000000
   23       12.783631     12.783648   0.000000   0.000000
   24       13.695491     13.695944   0.000000   0.000000
   25       14.211364     14.209381   0.000000   0.000000
   26       14.436115     14.454335   0.000000   0.000000
 
 -0.3750000E+00  0.1250000E+00  0.6349796E-16  0.6250000E-02
    1      -38.716719    -38.716647   1.000000   1.000000
    2      -38.703309    -38.703237   1.000000   1.000000
    3      -13.440002    -13.440026   1.000000   1.000000
    4      -11.135288    -11.135313   1.000000   1.000000
    5       -9.707645     -9.707671   1.000000   1.000000
    6       -9.526610     -9.526637   1.000000   1.000000
    7       -5.772454     -5.772482   1.000000   1.000000
    8       -2.848793     -2.848815   1.000000   1.000000
    9       -1.959390     -1.959412   1.000000   1.000000
   10       -1.273729     -1.273753   1.000000   1.000000
   11        0.641168      0.641158   1.000000   1.000000
   12        1.622529      1.622517   1.000000   1.000000
   13        2.302715      2.302701   1.000000   1.000000
   14        2.702044      2.702033   1.000000   1.000000
   15        3.188863      3.188844   1.000000   1.000000
   16        3.429835      3.429821   1.000000   1.000000
   17        3.941596      3.941583   1.000000   1.000000
   18        4.382107      4.382087   1.000000   1.000000
   19       10.344642     10.344644   0.000000   0.000000
   20       10.874989     10.874999   0.000000   0.000000
   21       11.639624     11.639624   0.000000   0.000000
   22       12.150754     12.150776   0.000000   0.000000
   23       12.590891     12.590895   0.000000   0.000000
   24       13.809371     13.809296   0.000000   0.000000
   25       14.300700     14.301324   0.000000   0.000000
   26       14.758224     14.772039   0.000000   0.000000
 
 -0.2500000E+00  0.1250000E+00  0.1696312E-17  0.6250000E-02
    1      -38.718825    -38.718753   1.000000   1.000000
    2      -38.701284    -38.701212   1.000000   1.000000
    3      -13.716708    -13.716731   1.000000   1.000000
    4      -10.517009    -10.517035   1.000000   1.000000
    5       -9.667702     -9.667728   1.000000   1.000000
    6       -9.452941     -9.452968   1.000000   1.000000
    7       -6.378111     -6.378139   1.000000   1.000000
    8       -2.773143     -2.773163   1.000000   1.000000
    9       -2.126081     -2.126102   1.000000   1.000000
   10       -1.341629     -1.341653   1.000000   1.000000
   11        0.601662      0.601652   1.000000   1.000000
   12        2.074632      2.074615   1.000000   1.000000
   13        2.414863      2.414847   1.000000   1.000000
   14        2.674575      2.674570   1.000000   1.000000
   15        3.312197      3.312178   1.000000   1.000000
   16        3.472125      3.472104   1.000000   1.000000
   17        3.776735      3.776727   1.000000   1.000000
   18        4.045477      4.045464   1.000000   1.000000
   19        9.468444      9.468459   0.000000   0.000000
   20       11.267573     11.267572   0.000000   0.000000
   21       11.693952     11.693945   0.000000   0.000000
   22       12.326335     12.326332   0.000000   0.000000
   23       12.814111     12.814118   0.000000   0.000000
   24       13.432903     13.432904   0.000000   0.000000
   25       14.473333     14.474213   0.000000   0.000000
   26       14.849297     14.854741   0.000000   0.000000
 
 -0.1250000E+00  0.1250000E+00 -0.2114562E-16  0.3125000E-02
    1      -38.720228    -38.720156   1.000000   1.000000
    2      -38.699939    -38.699867   1.000000   1.000000
    3      -13.889993    -13.890016   1.000000   1.000000
    4      -10.006183    -10.006211   1.000000   1.000000
    5       -9.622728     -9.622754   1.000000   1.000000
    6       -9.383851     -9.383879   1.000000   1.000000
    7       -6.918654     -6.918683   1.000000   1.000000
    8       -2.613947     -2.613966   1.000000   1.000000
    9       -2.255537     -2.255558   1.000000   1.000000
   10       -1.500108     -1.500131   1.000000   1.000000
   11        0.727763      0.727751   1.000000   1.000000
   12        1.939558      1.939549   1.000000   1.000000
   13        2.337738      2.337724   1.000000   1.000000
   14        3.111977      3.111963   1.000000   1.000000
   15        3.354056      3.354039   1.000000   1.000000
   16        3.580993      3.580971   1.000000   1.000000
   17        3.697407      3.697395   1.000000   1.000000
   18        3.787201      3.787191   1.000000   1.000000
   19        8.837994      8.838018   0.000000   0.000000
   20       10.946628     10.946635   0.000000   0.000000
   21       12.374380     12.374368   0.000000   0.000000
   22       12.612112     12.612100   0.000000   0.000000
   23       13.000083     13.000064   0.000000   0.000000
   24       13.301038     13.301048   0.000000   0.000000
   25       14.546984     14.514829   0.000000   0.000000
   26       14.851733     14.881615   0.000000   0.000000
 
  0.2500000E+00  0.2500000E+00  0.9964287E-16  0.6250000E-02
    1      -38.715489    -38.715417   1.000000   1.000000
    2      -38.704510    -38.704438   1.000000   1.000000
    3      -13.277388    -13.277412   1.000000   1.000000
    4      -11.401013    -11.401039   1.000000   1.000000
    5       -9.767471     -9.767496   1.000000   1.000000
    6       -9.598847     -9.598873   1.000000   1.000000
    7       -5.377708     -5.377735   1.000000   1.000000
    8       -2.923432     -2.923456   1.000000   1.000000
    9       -1.713571     -1.713592   1.000000   1.000000
   10       -1.433231     -1.433256   1.000000   1.000000
   11        1.066285      1.066274   1.000000   1.000000
   12        1.129768      1.129762   1.000000   1.000000
   13        2.005654      2.005641   1.000000   1.000000
   14        2.691815      2.691800   1.000000   1.000000
   15        3.173942      3.173927   1.000000   1.000000
   16        3.658853      3.658835   1.000000   1.000000
   17        4.086923      4.086904   1.000000   1.000000
   18        4.291725      4.291707   1.000000   1.000000
   19       10.530472     10.530474   0.000000   0.000000
   20       10.859777     10.859782   0.000000   0.000000
   21       11.149003     11.149011   0.000000   0.000000
   22       11.832909     11.832889   0.000000   0.000000
   23       13.327852     13.327872   0.000000   0.000000
   24       13.382463     13.382262   0.000000   0.000000
   25       14.358538     14.359288   0.000000   0.000000
   26       15.084824     15.110048   0.000000   0.000000
 
  0.3750000E+00  0.2500000E+00 -0.1766993E-16  0.6250000E-02
    1      -38.713595    -38.713523   1.000000   1.000000
    2      -38.706328    -38.706256   1.000000   1.000000
    3      -13.000316    -13.000340   1.000000   1.000000
    4      -11.799323    -11.799349   1.000000   1.000000
    5       -9.788388     -9.788414   1.000000   1.000000
    6       -9.646648     -9.646674   1.000000   1.000000
    7       -5.009735     -5.009762   1.000000   1.000000
    8       -3.223844     -3.223871   1.000000   1.000000
    9       -1.568745     -1.568767   1.000000   1.000000
   10       -1.359937     -1.359960   1.000000   1.000000
   11        0.792733      0.792728   1.000000   1.000000
   12        1.306747      1.306733   1.000000   1.000000
   13        1.821831      1.821820   1.000000   1.000000
   14        2.733925      2.733906   1.000000   1.000000
   15        3.375307      3.375292   1.000000   1.000000
   16        3.719183      3.719166   1.000000   1.000000
   17        4.090174      4.090156   1.000000   1.000000
   18        4.390383      4.390361   1.000000   1.000000
   19       10.374819     10.374818   0.000000   0.000000
   20       11.193857     11.193861   0.000000   0.000000
   21       11.441960     11.441950   0.000000   0.000000
   22       11.660256     11.660252   0.000000   0.000000
   23       13.405948     13.405932   0.000000   0.000000
   24       13.784448     13.784652   0.000000   0.000000
   25       14.044096     14.043680   0.000000   0.000000
   26       14.631759     14.641662   0.000000   0.000000
 
  0.5000000E+00  0.2500000E+00  0.1425730E-15  0.1250000E-01
    1      -38.713835    -38.713763   1.000000   1.000000
    2      -38.706105    -38.706033   1.000000   1.000000
    3      -13.032823    -13.032847   1.000000   1.000000
    4      -11.743748    -11.743774   1.000000   1.000000
    5       -9.773503     -9.773528   1.000000   1.000000
    6       -9.644700     -9.644727   1.000000   1.000000
    7       -5.080084     -5.080110   1.000000   1.000000
    8       -3.374210     -3.374234   1.000000   1.000000
    9       -1.590846     -1.590869   1.000000   1.000000
   10       -1.192887     -1.192911   1.000000   1.000000
   11        0.652013      0.652006   1.000000   1.000000
   12        1.304187      1.304178   1.000000   1.000000
   13        2.096737      2.096724   1.000000   1.000000
   14        2.705324      2.705305   1.000000   1.000000
   15        3.405293      3.405277   1.000000   1.000000
   16        3.697611      3.697594   1.000000   1.000000
   17        4.068449      4.068434   1.000000   1.000000
   18        4.387397      4.387375   1.000000   1.000000
   19       10.402718     10.402714   0.000000   0.000000
   20       11.037257     11.037248   0.000000   0.000000
   21       11.597478     11.597471   0.000000   0.000000
   22       12.160961     12.160924   0.000000   0.000000
   23       13.085809     13.085776   0.000000   0.000000
   24       13.694004     13.694776   0.000000   0.000000
   25       13.923514     13.924004   0.000000   0.000000
   26       14.283912     14.297358   0.000000   0.000000
 
 -0.3750000E+00  0.2500000E+00  0.9190193E-16  0.6250000E-02
    1      -38.715863    -38.715791   1.000000   1.000000
    2      -38.704142    -38.704070   1.000000   1.000000
    3      -13.323333    -13.323358   1.000000   1.000000
    4      -11.289997    -11.290023   1.000000   1.000000
    5       -9.740918     -9.740943   1.000000   1.000000
    6       -9.589565     -9.589591   1.000000   1.000000
    7       -5.541706     -5.541734   1.000000   1.000000
    8       -3.293705     -3.293726   1.000000   1.000000
    9       -1.718640     -1.718662   1.000000   1.000000
   10       -1.094101     -1.094127   1.000000   1.000000
   11        0.447430      0.447423   1.000000   1.000000
   12        1.689335      1.689324   1.000000   1.000000
   13        2.456641      2.456625   1.000000   1.000000
   14        2.635925      2.635906   1.000000   1.000000
   15        3.294384      3.294369   1.000000   1.000000
   16        3.491187      3.491172   1.000000   1.000000
   17        4.039468      4.039454   1.000000   1.000000
   18        4.279128      4.279110   1.000000   1.000000
   19       10.303699     10.303704   0.000000   0.000000
   20       10.971200     10.971188   0.000000   0.000000
   21       11.852838     11.852854   0.000000   0.000000
   22       12.363209     12.363160   0.000000   0.000000
   23       12.795407     12.795457   0.000000   0.000000
   24       13.183100     13.183135   0.000000   0.000000
   25       14.059150     14.066099   0.000000   0.000000
   26       14.285026     14.277482   0.000000   0.000000
 
 -0.2500000E+00  0.2500000E+00 -0.4229125E-16  0.3125000E-02
    1      -38.717781    -38.717709   1.000000   1.000000
    2      -38.702297    -38.702225   1.000000   1.000000
    3      -13.581379    -13.581402   1.000000   1.000000
    4      -10.801989    -10.802016   1.000000   1.000000
    5       -9.696383     -9.696409   1.000000   1.000000
    6       -9.517817     -9.517844   1.000000   1.000000
    7       -6.061014     -6.061042   1.000000   1.000000
    8       -3.082633     -3.082652   1.000000   1.000000
    9       -1.911020     -1.911042   1.000000   1.000000
   10       -1.174345     -1.174371   1.000000   1.000000
   11        0.430064      0.430056   1.000000   1.000000
   12        2.116736      2.116717   1.000000   1.000000
   13        2.581158      2.581140   1.000000   1.000000
   14        2.589730      2.589723   1.000000   1.000000
   15        3.281075      3.281058   1.000000   1.000000
   16        3.325013      3.324996   1.000000   1.000000
   17        3.937248      3.937234   1.000000   1.000000
   18        4.106122      4.106111   1.000000   1.000000
   19        9.754844      9.754858   0.000000   0.000000
   20       11.350389     11.350370   0.000000   0.000000
   21       12.014781     12.014789   0.000000   0.000000
   22       12.248308     12.248275   0.000000   0.000000
   23       12.659672     12.659715   0.000000   0.000000
   24       13.062416     13.062408   0.000000   0.000000
   25       14.233315     14.233513   0.000000   0.000000
   26       14.548196     14.552544   0.000000   0.000000
 
  0.3750000E+00  0.3750000E+00  0.1425730E-15  0.3125000E-02
    1      -38.711546    -38.711474   1.000000   1.000000
    2      -38.708346    -38.708274   1.000000   1.000000
    3      -12.686105    -12.686130   1.000000   1.000000
    4      -12.159352    -12.159377   1.000000   1.000000
    5       -9.798817     -9.798842   1.000000   1.000000
    6       -9.704157     -9.704182   1.000000   1.000000
    7       -4.607033     -4.607059   1.000000   1.000000
    8       -3.777439     -3.777465   1.000000   1.000000
    9       -1.365235     -1.365256   1.000000   1.000000
   10       -1.278059     -1.278082   1.000000   1.000000
   11        0.778780      0.778774   1.000000   1.000000
   12        1.276001      1.275988   1.000000   1.000000
   13        1.839020      1.839009   1.000000   1.000000
   14        2.560917      2.560900   1.000000   1.000000
   15        3.760357      3.760338   1.000000   1.000000
   16        3.887987      3.887968   1.000000   1.000000
   17        4.068004      4.067987   1.000000   1.000000
   18        4.259168      4.259147   1.000000   1.000000
   19       10.404312     10.404305   0.000000   0.000000
   20       11.067938     11.067927   0.000000   0.000000
   21       11.621443     11.621454   0.000000   0.000000
   22       11.856617     11.856614   0.000000   0.000000
   23       13.460075     13.459264   0.000000   0.000000
   24       13.511175     13.510970   0.000000   0.000000
   25       14.166616     14.165530   0.000000   0.000000
   26       14.455949     14.471429   0.000000   0.000000
 
  0.5000000E+00  0.3750000E+00  0.2985441E-16  0.1250000E-01
    1      -38.712039    -38.711967   1.000000   1.000000
    2      -38.707850    -38.707778   1.000000   1.000000
    3      -12.764302    -12.764327   1.000000   1.000000
    4      -12.057039    -12.057065   1.000000   1.000000
    5       -9.772324     -9.772349   1.000000   1.000000
    6       -9.712295     -9.712321   1.000000   1.000000
    7       -4.705425     -4.705451   1.000000   1.000000
    8       -3.916543     -3.916566   1.000000   1.000000
    9       -1.338615     -1.338637   1.000000   1.000000
   10       -1.093245     -1.093270   1.000000   1.000000
   11        0.687707      0.687699   1.000000   1.000000
   12        1.232511      1.232502   1.000000   1.000000
   13        2.128781      2.128768   1.000000   1.000000
   14        2.390839      2.390822   1.000000   1.000000
   15        3.793190      3.793171   1.000000   1.000000
   16        3.875601      3.875583   1.000000   1.000000
   17        4.120902      4.120884   1.000000   1.000000
   18        4.240377      4.240357   1.000000   1.000000
   19       10.559966     10.559960   0.000000   0.000000
   20       10.769804     10.769795   0.000000   0.000000
   21       11.988746     11.988722   0.000000   0.000000
   22       12.220312     12.220310   0.000000   0.000000
   23       13.170952     13.170720   0.000000   0.000000
   24       13.353095     13.352948   0.000000   0.000000
   25       13.803992     13.797249   0.000000   0.000000