   8   8   1   0
  0.9521515E+01  0.4871811E-09  0.4871811E-09  0.4871811E-09  0.5000000E-15
  1.000000000000000E-004
  CAR 
 unknown system                          
     17.20366995    -41.15258895  301      4.97317069      1.00000000
    -41.153  0.0000E+00  0.0000E+00  0.0000E+00  0.0000E+00
    -40.958  0.0000E+00  0.0000E+00  0.0000E+00  0.0000E+00
    -40.764  0.0000E+00  0.0000E+00  0.0000E+00  0.0000E+00
    -40.569  0.0000E+00  0.0000E+00  0.0000E+00  0.0000E+00
    -40.375  0.0000E+00  0.0000E+00  0.0000E+00  0.0000E+00
    -40.180  0.0000E+00  0.0000E+00  0.0000E+00  0.0000E+00
    -39.985  0.0000E+00  0.0000E+00  0.0000E+00  0.0000E+00
    -39.791  0.0000E+00  0.0000E+00  0.0000E+00  0.0000E+00
    -39.596  0.0000E+00  0.0000E+00  0.0000E+00  0.0000E+00
    -39.402  0.0000E+00  0.0000E+00  0.0000E+00  0.0000E+00
    -39.207  0.0000E+00  0.0000E+00  0.0000E+00  0.0000E+00
    -39.013  0.0000E+00  0.0000E+00  0.0000E+00  0.0000E+00
    -38.818  0.0000E+00  0.0000E+00  0.0000E+00  0.0000E+00
    -38.624  0.0000E+00  0.0000E+00  0.0000E+00  0.0000E+00
    -38.429  0.0000E+00  0.0000E+00  0.2020E-01  0.2020E-01
    -38.235  0.0000E+00  0.0000E+00  0.2020E-01  0.2020E-01
    -38.040  0.0000E+00  0.0000E+00  0.2020E-01  0.2020E-01
    -37.846  0.0000E+00  0.0000E+00  0.2020E-01  0.2020E-01
    -37.651  0.0000E+00  0.0000E+00  0.2020E-01  0.2020E-01
    -37.457  0.0000E+00  0.0000E+00  0.2020E-01  0.2020E-01
    -37.262  0.0000E+00  0.0000E+00  0.2020E-01  0.2020E-01
    -37.068  0.0000E+00  0.0000E+00  0.2020E-01  0.2020E-01
    -36.873  0.0000E+00  0.0000E+00  0.2020E-01  0.2020E-01
    -36.679  0.0000E+00  0.0000E+00  0.2020E-01  0.2020E-01
    -36.484  0.0000E+00  0.0000E+00  0.2020E-01  0.2020E-01
    -36.290  0.0000E+00  0.0000E+00  0.2020E-01  0.2020E-01
    -36.095  0.0000E+00  0.0000E+00  0.2020E-01  0.2020E-01
    -35.901  0.0000E+00  0.0000E+00  0.2020E-01  0.2020E-01
    -35.706  0.0000E+00  0.0000E+00  0.2020E-01  0.2020E-01
    -35.511  0.0000E+00  0.0000E+00  0.2020E-01  0.2020E-01
    -35.317  0.0000E+00  0.0000E+00  0.2020E-01  0.2020E-01
    -35.122  0.0000E+00  0.0000E+00  0.2020E-01  0.2020E-01
    -34.928  0.0000E+00  0.0000E+00  0.2020E-01  0.2020E-01
    -34.733  0.0000E+00  0.0000E+00  0.2020E-01  0.2020E-01
    -34.539  0.0000E+00  0.0000E+00  0.2020E-01  0.2020E-01
    -34.344  0.0000E+00  0.0000E+00  0.2020E-01  0.2020E-01
    -34.150  0.0000E+00  0.0000E+00  0.2020E-01  0.2020E-01
    -33.955  0.0000E+00  0.0000E+00  0.2020E-01  0.2020E-01
    -33.761  0.0000E+00  0.0000E+00  0.2020E-01  0.2020E-01
    -33.566  0.0000E+00  0.0000E+00  0.2020E-01  0.2020E-01
    -33.372  0.0000E+00  0.0000E+00  0.2020E-01  0.2020E-01
    -33.177  0.0000E+00  0.0000E+00  0.2020E-01  0.2020E-01
    -32.983  0.0000E+00  0.0000E+00  0.2020E-01  0.2020E-01
    -32.788  0.0000E+00  0.0000E+00  0.2020E-01  0.2020E-01
    -32.594  0.0000E+00  0.0000E+00  0.2020E-01  0.2020E-01
    -32.399  0.0000E+00  0.0000E+00  0.2020E-01  0.2020E-01
    -32.205  0.0000E+00  0.0000E+00  0.2020E-01  0.2020E-01
    -32.010  0.0000E+00  0.0000E+00  0.2020E-01  0.2020E-01
    -31.816  0.0000E+00  0.0000E+00  0.2020E-01  0.2020E-01
    -31.621  0.0000E+00  0.0000E+00  0.2020E-01  0.2020E-01
    -31.427  0.0000E+00  0.0000E+00  0.2020E-01  0.2020E-01
    -31.232  0.0000E+00  0.0000E+00  0.2020E-01  0.2020E-01
    -31.038  0.0000E+00  0.0000E+00  0.2020E-01  0.2020E-01
    -30.843  0.0000E+00  0.0000E+00  0.2020E-01  0.2020E-01
    -30.648  0.0000E+00  0.0000E+00  0.2020E-01  0.2020E-01
    -30.454  0.0000E+00  0.0000E+00  0.2020E-01  0.2020E-01
    -30.259  0.0000E+00  0.0000E+00  0.2020E-01  0.2020E-01
    -30.065  0.0000E+00  0.0000E+00  0.2020E-01  0.2020E-01
    -29.870  0.0000E+00  0.0000E+00  0.2020E-01  0.2020E-01
    -29.676  0.0000E+00  0.0000E+00  0.2020E-01  0.2020E-01
    -29.481  0.0000E+00  0.0000E+00  0.2020E-01  0.2020E-01
    -29.287  0.0000E+00  0.0000E+00  0.2020E-01  0.2020E-01
    -29.092  0.0000E+00  0.0000E+00  0.2020E-01  0.2020E-01
    -28.898  0.0000E+00  0.0000E+00  0.2020E-01  0.2020E-01
    -28.703  0.0000E+00  0.0000E+00  0.2020E-01  0.2020E-01
    -28.509  0.0000E+00  0.0000E+00  0.2020E-01  0.2020E-01
    -28.314  0.0000E+00  0.0000E+00  0.2020E-01  0.2020E-01
    -28.120  0.0000E+00  0.0000E+00  0.2020E-01  0.2020E-01
    -27.925  0.0000E+00  0.0000E+00  0.2020E-01  0.2020E-01
    -27.731  0.0000E+00  0.0000E+00  0.2020E-01  0.2020E-01
    -27.536  0.0000E+00  0.0000E+00  0.2020E-01  0.2020E-01
    -27.342  0.0000E+00  0.0000E+00  0.2020E-01  0.2020E-01
    -27.147  0.0000E+00  0.0000E+00  0.2020E-01  0.2020E-01
    -26.953  0.0000E+00  0.0000E+00  0.2020E-01  0.2020E-01
    -26.758  0.0000E+00  0.0000E+00  0.2020E-01  0.2020E-01
    -26.564  0.0000E+00  0.0000E+00  0.2020E-01  0.2020E-01
    -26.369  0.0000E+00  0.0000E+00  0.2020E-01  0.2020E-01
    -26.174  0.0000E+00  0.0000E+00  0.2020E-01  0.2020E-01
    -25.980  0.0000E+00  0.0000E+00  0.2020E-01  0.2020E-01
    -25.785  0.0000E+00  0.0000E+00  0.2020E-01  0.2020E-01
    -25.591  0.0000E+00  0.0000E+00  0.2020E-01  0.2020E-01
    -25.396  0.0000E+00  0.0000E+00  0.2020E-01  0.2020E-01
    -25.202  0.0000E+00  0.0000E+00  0.2020E-01  0.2020E-01
    -25.007  0.0000E+00  0.0000E+00  0.2020E-01  0.2020E-01
    -24.813  0.0000E+00  0.0000E+00  0.2020E-01  0.2020E-01
    -24.618  0.0000E+00  0.0000E+00  0.2020E-01  0.2020E-01
    -24.424  0.0000E+00  0.0000E+00  0.2020E-01  0.2020E-01
    -24.229  0.0000E+00  0.0000E+00  0.2020E-01  0.2020E-01
    -24.035  0.0000E+00  0.0000E+00  0.2020E-01  0.2020E-01
    -23.840  0.0000E+00  0.0000E+00  0.2020E-01  0.2020E-01
    -23.646  0.0000E+00  0.0000E+00  0.2020E-01  0.2020E-01
    -23.451  0.0000E+00  0.0000E+00  0.2020E-01  0.2020E-01
    -23.257  0.0000E+00  0.0000E+00  0.2020E-01  0.2020E-01
    -23.062  0.0000E+00  0.0000E+00  0.2020E-01  0.2020E-01
    -22.868  0.0000E+00  0.0000E+00  0.2020E-01  0.2020E-01
    -22.673  0.0000E+00  0.0000E+00  0.2020E-01  0.2020E-01
    -22.479  0.0000E+00  0.0000E+00  0.2020E-01  0.2020E-01
    -22.284  0.0000E+00  0.0000E+00  0.2020E-01  0.2020E-01
    -22.090  0.0000E+00  0.0000E+00  0.2020E-01  0.2020E-01
    -21.895  0.0000E+00  0.0000E+00  0.2020E-01  0.2020E-01
    -21.701  0.0000E+00  0.0000E+00  0.2020E-01  0.2020E-01
    -21.506  0.0000E+00  0.0000E+00  0.2020E-01  0.2020E-01
    -21.311  0.0000E+00  0.0000E+00  0.2020E-01  0.2020E-01
    -21.117  0.0000E+00  0.0000E+00  0.2020E-01  0.2020E-01
    -20.922  0.0000E+00  0.0000E+00  0.2020E-01  0.2020E-01
    -20.728  0.0000E+00  0.0000E+00  0.2020E-01  0.2020E-01
    -20.533  0.0000E+00  0.0000E+00  0.2020E-01  0.2020E-01
    -20.339  0.0000E+00  0.0000E+00  0.2020E-01  0.2020E-01
    -20.144  0.0000E+00  0.0000E+00  0.2020E-01  0.2020E-01
    -19.950  0.0000E+00  0.0000E+00  0.2020E-01  0.2020E-01
    -19.755  0.0000E+00  0.0000E+00  0.2020E-01  0.2020E-01
    -19.561  0.0000E+00  0.0000E+00  0.2020E-01  0.2020E-01
    -19.366  0.0000E+00  0.0000E+00  0.2020E-01  0.2020E-01
    -19.172  0.0000E+00  0.0000E+00  0.2020E-01  0.2020E-01
    -18.977  0.0000E+00  0.0000E+00  0.2020E-01  0.2020E-01
    -18.783  0.0000E+00  0.0000E+00  0.2020E-01  0.2020E-01
    -18.588  0.0000E+00  0.0000E+00  0.2020E-01  0.2020E-01
    -18.394  0.0000E+00  0.0000E+00  0.2020E-01  0.2020E-01
    -18.199  0.0000E+00  0.0000E+00  0.2020E-01  0.2020E-01
    -18.005  0.0000E+00  0.0000E+00  0.2020E-01  0.2020E-01
    -17.810  0.0000E+00  0.0000E+00  0.2020E-01  0.2020E-01
    -17.616  0.0000E+00  0.0000E+00  0.2020E-01  0.2020E-01
    -17.421  0.0000E+00  0.0000E+00  0.2020E-01  0.2020E-01
    -17.227  0.0000E+00  0.0000E+00  0.2020E-01  0.2020E-01
    -17.032  0.0000E+00  0.0000E+00  0.2020E-01  0.2020E-01
    -16.837  0.0000E+00  0.0000E+00  0.2020E-01  0.2020E-01
    -16.643  0.0000E+00  0.0000E+00  0.2020E-01  0.2020E-01
    -16.448  0.0000E+00  0.0000E+00  0.2020E-01  0.2020E-01
    -16.254  0.0000E+00  0.0000E+00  0.2020E-01  0.2020E-01
    -16.059  0.0000E+00  0.0000E+00  0.2020E-01  0.2020E-01
    -15.865  0.0000E+00  0.0000E+00  0.2020E-01  0.2020E-01
    -15.670  0.0000E+00  0.0000E+00  0.2020E-01  0.2020E-01
    -15.476  0.0000E+00  0.0000E+00  0.2020E-01  0.2020E-01
    -15.281  0.0000E+00  0.0000E+00  0.2020E-01  0.2020E-01
    -15.087  0.0000E+00  0.0000E+00  0.2020E-01  0.2020E-01
    -14.892  0.0000E+00  0.0000E+00  0.2020E-01  0.2020E-01
    -14.698  0.0000E+00  0.0000E+00  0.2020E-01  0.2020E-01
    -14.503  0.0000E+00  0.0000E+00  0.2020E-01  0.2020E-01
    -14.309  0.0000E+00  0.0000E+00  0.2020E-01  0.2020E-01
    -14.114  0.0000E+00  0.0000E+00  0.2020E-01  0.2020E-01
    -13.920  0.6343E-03  0.6341E-03  0.2021E-01  0.2021E-01
    -13.725  0.3810E-02  0.3810E-02  0.2070E-01  0.2070E-01
    -13.531  0.5676E-02  0.5676E-02  0.2160E-01  0.2160E-01
    -13.336  0.8208E-02  0.8208E-02  0.2292E-01  0.2292E-01
    -13.142  0.1192E-01  0.1192E-01  0.2503E-01  0.2503E-01
    -12.947  0.9861E-02  0.9861E-02  0.2720E-01  0.2720E-01
    -12.753  0.8811E-02  0.8810E-02  0.2892E-01  0.2892E-01
    -12.558  0.3292E-02  0.3292E-02  0.3008E-01  0.3008E-01
    -12.364  0.1846E-03  0.1846E-03  0.3031E-01  0.3031E-01
    -12.169  0.3269E-02  0.3269E-02  0.3058E-01  0.3058E-01
    -11.974  0.6490E-02  0.6490E-02  0.3169E-01  0.3169E-01
    -11.780  0.7508E-02  0.7508E-02  0.3306E-01  0.3306E-01
    -11.585  0.8331E-02  0.8331E-02  0.3461E-01  0.3461E-01
    -11.391  0.7726E-02  0.7726E-02  0.3630E-01  0.3630E-01
    -11.196  0.4886E-02  0.4886E-02  0.3746E-01  0.3746E-01
    -11.002  0.3613E-02  0.3613E-02  0.3828E-01  0.3828E-01
    -10.807  0.2737E-02  0.2737E-02  0.3889E-01  0.3889E-01
    -10.613  0.2101E-02  0.2101E-02  0.3936E-01  0.3936E-01
    -10.418  0.1591E-02  0.1591E-02  0.3971E-01  0.3971E-01
    -10.224  0.1226E-02  0.1226E-02  0.3999E-01  0.3999E-01
    -10.029  0.7955E-03  0.7955E-03  0.4018E-01  0.4018E-01
     -9.835  0.5973E-03  0.5973E-03  0.4031E-01  0.4031E-01
     -9.640  0.7075E-01  0.7075E-01  0.4654E-01  0.4654E-01
     -9.446  0.2806E-01  0.2806E-01  0.5845E-01  0.5845E-01
     -9.251  0.2927E-03  0.2927E-03  0.6060E-01  0.6060E-01
     -9.057  0.0000E+00  0.0000E+00  0.6061E-01  0.6061E-01
     -8.862  0.0000E+00  0.0000E+00  0.6061E-01  0.6061E-01
     -8.668  0.0000E+00  0.0000E+00  0.6061E-01  0.6061E-01
     -8.473  0.0000E+00  0.0000E+00  0.6061E-01  0.6061E-01
     -8.279  0.0000E+00  0.0000E+00  0.6061E-01  0.6061E-01
     -8.084  0.0000E+00  0.0000E+00  0.6061E-01  0.6061E-01
     -7.890  0.0000E+00  0.0000E+00  0.6061E-01  0.6061E-01
     -7.695  0.0000E+00  0.0000E+00  0.6061E-01  0.6061E-01
     -7.500  0.0000E+00  0.0000E+00  0.6061E-01  0.6061E-01
     -7.306  0.0000E+00  0.0000E+00  0.6061E-01  0.6061E-01
     -7.111  0.4242E-04  0.4242E-04  0.6061E-01  0.6061E-01
     -6.917  0.3021E-03  0.3021E-03  0.6064E-01  0.6064E-01
     -6.722  0.6164E-03  0.6164E-03  0.6074E-01  0.6074E-01
     -6.528  0.8879E-03  0.8879E-03  0.6088E-01  0.6088E-01
     -6.333  0.1295E-02  0.1295E-02  0.6110E-01  0.6110E-01
     -6.139  0.1696E-02  0.1696E-02  0.6138E-01  0.6138E-01
     -5.944  0.2248E-02  0.2248E-02  0.6176E-01  0.6176E-01
     -5.750  0.2940E-02  0.2940E-02  0.6226E-01  0.6226E-01
     -5.555  0.4060E-02  0.4060E-02  0.6293E-01  0.6293E-01
     -5.361  0.6351E-02  0.6351E-02  0.6391E-01  0.6391E-01
     -5.166  0.6552E-02  0.6552E-02  0.6519E-01  0.6519E-01
     -4.972  0.6212E-02  0.6212E-02  0.6644E-01  0.6644E-01
     -4.777  0.6105E-02  0.6105E-02  0.6765E-01  0.6765E-01
     -4.583  0.5387E-02  0.5387E-02  0.6875E-01  0.6875E-01
     -4.388  0.3845E-02  0.3845E-02  0.6976E-01  0.6976E-01
     -4.194  0.1812E-02  0.1812E-02  0.7027E-01  0.7027E-01
     -3.999  0.1639E-02  0.1639E-02  0.7060E-01  0.7060E-01
     -3.805  0.2887E-02  0.2887E-02  0.7101E-01  0.7101E-01
     -3.610  0.3064E-02  0.3064E-02  0.7153E-01  0.7153E-01
     -3.416  0.4371E-02  0.4371E-02  0.7226E-01  0.7226E-01
     -3.221  0.6123E-02  0.6123E-02  0.7327E-01  0.7327E-01
     -3.026  0.7468E-02  0.7468E-02  0.7464E-01  0.7464E-01
     -2.832  0.8817E-02  0.8817E-02  0.7622E-01  0.7622E-01
     -2.637  0.1055E-01  0.1055E-01  0.7806E-01  0.7806E-01
     -2.443  0.6363E-02  0.6363E-02  0.7998E-01  0.7998E-01
     -2.248  0.3481E-02  0.3481E-02  0.8075E-01  0.8075E-01
     -2.054  0.4890E-02  0.4890E-02  0.8152E-01  0.8152E-01
     -1.859  0.8152E-02  0.8152E-02  0.8273E-01  0.8273E-01
     -1.665  0.1623E-01  0.1623E-01  0.8512E-01  0.8512E-01
     -1.470  0.2035E-01  0.2035E-01  0.8866E-01  0.8866E-01
     -1.276  0.2775E-01  0.2775E-01  0.9341E-01  0.9341E-01
     -1.081  0.2292E-01  0.2292E-01  0.9905E-01  0.9905E-01
     -0.887  0.1821E-03  0.1822E-03  0.1010E+00  0.1010E+00
     -0.692  0.0000E+00  0.0000E+00  0.1010E+00  0.1010E+00
     -0.498  0.0000E+00  0.0000E+00  0.1010E+00  0.1010E+00
     -0.303  0.0000E+00  0.0000E+00  0.1010E+00  0.1010E+00
     -0.109  0.0000E+00  0.0000E+00  0.1010E+00  0.1010E+00
      0.086  0.0000E+00  0.0000E+00  0.1010E+00  0.1010E+00
      0.280  0.0000E+00  0.0000E+00  0.1010E+00  0.1010E+00
      0.475  0.0000E+00  0.0000E+00  0.1010E+00  0.1010E+00
      0.669  0.1185E-01  0.1185E-01  0.1021E+00  0.1021E+00
      0.864  0.1987E-01  0.1987E-01  0.1049E+00  0.1049E+00
      1.058  0.1365E-01  0.1365E-01  0.1089E+00  0.1089E+00
      1.253  0.1089E-01  0.1088E-01  0.1107E+00  0.1107E+00
      1.447  0.2709E-01  0.2708E-01  0.1148E+00  0.1148E+00
      1.642  0.8165E-02  0.8166E-02  0.1177E+00  0.1177E+00
      1.837  0.7290E-02  0.7291E-02  0.1190E+00  0.1190E+00
      2.031  0.2111E-01  0.2111E-01  0.1221E+00  0.1221E+00
      2.226  0.1905E-01  0.1905E-01  0.1264E+00  0.1264E+00
      2.420  0.2241E-01  0.2241E-01  0.1301E+00  0.1301E+00
      2.615  0.1741E-01  0.1741E-01  0.1342E+00  0.1342E+00
      2.809  0.2588E-01  0.2588E-01  0.1378E+00  0.1378E+00
      3.004  0.1323E-01  0.1323E-01  0.1416E+00  0.1416E+00
      3.198  0.1731E-01  0.1731E-01  0.1443E+00  0.1443E+00
      3.393  0.1980E-01  0.1980E-01  0.1478E+00  0.1478E+00
      3.587  0.1895E-01  0.1895E-01  0.1510E+00  0.1510E+00
      3.782  0.2276E-01  0.2276E-01  0.1570E+00  0.1570E+00
      3.976  0.1986E-01  0.1986E-01  0.1614E+00  0.1614E+00
      4.171  0.1858E-01  0.1858E-01  0.1649E+00  0.1649E+00
      4.365  0.2663E-01  0.2663E-01  0.1719E+00  0.1719E+00
      4.560  0.3716E-01  0.3716E-01  0.1790E+00  0.1790E+00
      4.754  0.1797E-02  0.1797E-02  0.1818E+00  0.1818E+00
      4.949  0.0000E+00  0.0000E+00  0.1818E+00  0.1818E+00
      5.143  0.0000E+00  0.0000E+00  0.1818E+00  0.1818E+00
      5.338  0.0000E+00  0.0000E+00  0.1818E+00  0.1818E+00
      5.532  0.0000E+00  0.0000E+00  0.1818E+00  0.1818E+00
      5.727  0.0000E+00  0.0000E+00  0.1818E+00  0.1818E+00
      5.921  0.0000E+00  0.0000E+00  0.1818E+00  0.1818E+00
      6.116  0.0000E+00  0.0000E+00  0.1818E+00  0.1818E+00
      6.311  0.0000E+00  0.0000E+00  0.1818E+00  0.1818E+00
      6.505  0.0000E+00  0.0000E+00  0.1818E+00  0.1818E+00
      6.700  0.0000E+00  0.0000E+00  0.1818E+00  0.1818E+00
      6.894  0.0000E+00  0.0000E+00  0.1818E+00  0.1818E+00
      7.089  0.0000E+00  0.0000E+00  0.1818E+00  0.1818E+00
      7.283  0.0000E+00  0.0000E+00  0.1818E+00  0.1818E+00
      7.478  0.0000E+00  0.0000E+00  0.1818E+00  0.1818E+00
      7.672  0.0000E+00  0.0000E+00  0.1818E+00  0.1818E+00
      7.867  0.0000E+00  0.0000E+00  0.1818E+00  0.1818E+00
      8.061  0.0000E+00  0.0000E+00  0.1818E+00  0.1818E+00
      8.256  0.0000E+00  0.0000E+00  0.1818E+00  0.1818E+00
      8.450  0.0000E+00  0.0000E+00  0.1818E+00  0.1818E+00
      8.645  0.3677E-05  0.3677E-05  0.1818E+00  0.1818E+00
      8.839  0.2397E-03  0.2397E-03  0.1818E+00  0.1818E+00
      9.034  0.5100E-03  0.5100E-03  0.1819E+00  0.1819E+00
      9.228  0.6659E-03  0.6659E-03  0.1820E+00  0.1820E+00
      9.423  0.9042E-03  0.9042E-03  0.1822E+00  0.1822E+00
      9.617  0.1064E-02  0.1064E-02  0.1824E+00  0.1824E+00
      9.812  0.1281E-02  0.1281E-02  0.1826E+00  0.1826E+00
     10.006  0.3827E-02  0.3827E-02  0.1831E+00  0.1831E+00
     10.201  0.6868E-02  0.6868E-02  0.1841E+00  0.1841E+00
     10.395  0.9980E-02  0.9979E-02  0.1857E+00  0.1857E+00
     10.590  0.1525E-01  0.1525E-01  0.1881E+00  0.1881E+00
     10.784  0.1528E-01  0.1528E-01  0.1913E+00  0.1913E+00
     10.979  0.6124E-02  0.6124E-02  0.1934E+00  0.1934E+00
     11.174  0.1796E-01  0.1796E-01  0.1960E+00  0.1960E+00
     11.368  0.1842E-01  0.1842E-01  0.2000E+00  0.2000E+00
     11.563  0.7942E-02  0.7943E-02  0.2027E+00  0.2027E+00
     11.757  0.8891E-02  0.8890E-02  0.2040E+00  0.2040E+00
     11.952  0.1315E-01  0.1315E-01  0.2064E+00  0.2064E+00
     12.146  0.2279E-01  0.2279E-01  0.2099E+00  0.2099E+00
     12.341  0.2894E-01  0.2894E-01  0.2148E+00  0.2148E+00
     12.535  0.1580E-01  0.1580E-01  0.2189E+00  0.2189E+00
     12.730  0.1128E-01  0.1128E-01  0.2214E+00  0.2214E+00
     12.924  0.9348E-02  0.9348E-02  0.2233E+00  0.2233E+00
     13.119  0.1675E-01  0.1674E-01  0.2259E+00  0.2259E+00
     13.313  0.1307E-01  0.1307E-01  0.2286E+00  0.2286E+00
     13.508  0.1336E-01  0.1336E-01  0.2311E+00  0.2311E+00
     13.702  0.1418E-01  0.1418E-01  0.2337E+00  0.2337E+00
     13.897  0.1600E-01  0.1600E-01  0.2365E+00  0.2365E+00
     14.091  0.1640E-01  0.1643E-01  0.2401E+00  0.2401E+00
     14.286  0.5497E-02  0.5478E-02  0.2419E+00  0.2419E+00
     14.480  0.2429E-03  0.2408E-03  0.2424E+00  0.2424E+00
     14.675  0.0000E+00  0.0000E+00  0.2424E+00  0.2424E+00
     14.869  0.0000E+00  0.0000E+00  0.2424E+00  0.2424E+00
     15.064  0.0000E+00  0.0000E+00  0.2424E+00  0.2424E+00
     15.258  0.0000E+00  0.0000E+00  0.2424E+00  0.2424E+00
     15.453  0.0000E+00  0.0000E+00  0.2424E+00  0.2424E+00
     15.648  0.0000E+00  0.0000E+00  0.2424E+00  0.2424E+00
     15.842  0.0000E+00  0.0000E+00  0.2424E+00  0.2424E+00
     16.037  0.0000E+00  0.0000E+00  0.2424E+00  0.2424E+00
     16.231  0.0000E+00  0.0000E+00  0.2424E+00  0.2424E+00
     16.426  0.0000E+00  0.0000E+00  0.2424E+00  0.2424E+00
     16.620  0.0000E+00  0.0000E+00  0.2424E+00  0.2424E+00
     16.815  0.0000E+00  0.0000E+00  0.2424E+00  0.2424E+00
     17.009  0.0000E+00  0.0000E+00  0.2424E+00  0.2424E+00
     17.204  0.0000E+00  0.0000E+00  0.2424E+00  0.2424E+00
     17.20366995    -41.15258895  301      4.97317069      1.00000000
    -41.153  0.0000E+00  0.0000E+00  0.0000E+00  0.0000E+00  0.0000E+00  0.0000E+00  0.0000E+00  0.0000E+00  0.0000E+00  0.0000E+00  0.0000E+00  0.0000E+00  0.0000E+00  0.0000E+00  0.0000E+00  0.0000E+00  0.0000E+00  0.0000E+00
    -40.958  0.0000E+00  0.0000E+00  0.0000E+00  0.0000E+00  0.0000E+00  0.0000E+00  0.0000E+00  0.0000E+00  0.0000E+00  0.0000E+00  0.0000E+00  0.0000E+00  0.0000E+00  0.0000E+00  0.0000E+00  0.0000E+00  0.0000E+00  0.0000E+00
    -40.764  0.0000E+00  0.0000E+00  0.0000E+00  0.0000E+00  0.0000E+00  0.0000E+00  0.0000E+00  0.0000E+00  0.0000E+00  0.0000E+00  0.0000E+00  0.0000E+00  0.0000E+00  0.0000E+00  0.0000E+00  0.0000E+00  0.0000E+00  0.0000E+00
    -40.569  0.0000E+00  0.0000E+00  0.0000E+00  0.0000E+00  0.0000E+00  0.0000E+00  0.0000E+00  0.0000E+00  0.0000E+00  0.0000E+00  0.0000E+00  0.0000E+00  0.0000E+00  0.0000E+00  0.0000E+00  0.0000E+00  0.0000E+00  0.0000E+00
    -40.375  0.0000E+00  0.0000E+00  0.0000E+00  0.0000E+00  0.0000E+00  0.0000E+00  0.0000E+00  0.0000E+00  0.0000E+00  0.0000E+00  0.0000E+00  0.0000E+00  0.0000E+00  0.0000E+00  0.0000E+00  0.0000E+00  0.0000E+00  0.0000E+00
    -40.180  0.0000E+00  0.0000E+00  0.0000E+00  0.0000E+00  0.0000E+00  0.0000E+00  0.0000E+00  0.0000E+00  0.0000E+00  0.0000E+00  0.0000E+00  0.0000E+00  0.0000E+00  0.0000E+00  0.0000E+00  0.0000E+00  0.0000E+00  0.0000E+00
    -39.985  0.0000E+00  0.0000E+00  0.0000E+00  0.0000E+00  0.0000E+00  0.0000E+00  0.0000E+00  0.0000E+00  0.0000E+00  0.0000E+00  0.0000E+00  0.0000E+00  0.0000E+00  0.0000E+00  0.0000E+00  0.0000E+00  0.0000E+00  0.0000E+00
    -39.791  0.0000E+00  0.0000E+00  0.0000E+00  0.0000E+00  0.0000E+00  0.0000E+00  0.0000E+00  0.0000E+00  0.0000E+00  0.0000E+00  0.0000E+00  0.0000E+00  0.0000E+00  0.0000E+00  0.0000E+00  0.0000E+00  0.0000E+00  0.0000E+00
    -39.596  0.0000E+00  0.0000E+00  0.0000E+00  0.0000E+00  0.0000E+00  0.0000E+00  0.0000E+00  0.0000E+00  0.0000E+00  0.0000E+00  0.0000E+00  0.0000E+00  0.0000E+00  0.0000E+00  0.0000E+00  0.0000E+00  0.0000E+00  0.0000E+00
    -39.402  0.0000E+00  0.0000E+00  0.0000E+00  0.0000E+00  0.0000E+00  0.0000E+00  0.0000E+00  0.0000E+00  0.0000E+00  0.0000E+00  0.0000E+00  0.0000E+00  0.0000E+00  0.0000E+00  0.0000E+00  0.0000E+00  0.0000E+00  0.0000E+00
    -39.207  0.0000E+00  0.0000E+00  0.0000E+00  0.0000E+00  0.0000E+00  0.0000E+00  0.0000E+00  0.0000E+00  0.0000E+00  0.0000E+00  0.0000E+00  0.0000E+00  0.0000E+00  0.0000E+00  0.0000E+00  0.0000E+00  0.0000E+00  0.0000E+00
    -39.013  0.0000E+00  0.0000E+00  0.0000E+00  0.0000E+00  0.0000E+00  0.0000E+00  0.0000E+00  0.0000E+00  0.0000E+00  0.0000E+00  0.0000E+00  0.0000E+00  0.0000E+00  0.0000E+00  0.0000E+00  0.0000E+00  0.0000E+00  0.0000E+00
    -38.818  0.0000E+00  0.0000E+00  0.0000E+00  0.0000E+00  0.0000E+00  0.0000E+00  0.0000E+00  0.0000E+00  0.0000E+00  0.0000E+00  0.0000E+00  0.0000E+00  0.0000E+00  0.0000E+00  0.0000E+00  0.0000E+00  0.0000E+00  0.0000E+00
    -38.624  0.0000E+00  0.0000E+00  0.0000E+00  0.0000E+00  0.0000E+00  0.0000E+00  0.0000E+00  0.0000E+00  0.0000E+00  0.0000E+00  0.0000E+00  0.0000E+00  0.0000E+00  0.0000E+00  0.0000E+00  0.0000E+00  0.0000E+00  0.0000E+00
    -38.429  0.0000E+00  0.0000E+00  0.0000E+00  0.0000E+00  0.0000E+00  0.0000E+00  0.0000E+00  0.0000E+00  0.0000E+00  0.0000E+00  0.0000E+00  0.0000E+00  0.0000E+00  0.0000E+00  0.0000E+00  0.0000E+00  0.0000E+00  0.0000E+00
    -38.235  0.0000E+00  0.0000E+00  0.0000E+00  0.0000E+00  0.0000E+00  0.0000E+00  0.0000E+00  0.0000E+00  0.0000E+00  0.0000E+00  0.0000E+00  0.0000E+00  0.0000E+00  0.0000E+00  0.0000E+00  0.0000E+00  0.0000E+00  0.0000E+00
    -38.040  0.0000E+00  0.0000E+00  0.0000E+00  0.0000E+00  0.0000E+00  0.0000E+00  0.0000E+00  0.0000E+00  0.0000E+00  0.0000E+00  0.0000E+00  0.0000E+00  0.0000E+00  0.0000E+00  0.0000E+00  0.0000E+00  0.0000E+00  0.0000E+00
    -37.846  0.0000E+00  0.0000E+00  0.0000E+00  0.0000E+00  0.0000E+00  0.0000E+00  0.0000E+00  0.0000E+00  0.0000E+00  0.0000E+00  0.0000E+00  0.0000E+00  0.0000E+00  0.0000E+00  0.0000E+00  0.0000E+00  0.0000E+00  0.0000E+00
    -37.651  0.0000E+00  0.0000E+00  0.0000E+00  0.0000E+00  0.0000E+00  0.0000E+00  0.0000E+00  0.0000E+00  0.0000E+00  0.0000E+00  0.0000E+00  0.0000E+00  0.0000E+00  0.0000E+00  0.0000E+00  0.0000E+00  0.0000E+00  0.0000E+00
    -37.457  0.0000E+00  0.0000E+00  0.0000E+00  0.0000E+00  0.0000E+00  0.0000E+00  0.0000E+00  0.0000E+00  0.0000E+00  0.0000E+00  0.0000E+00  0.0000E+00  0.0000E+00  0.0000E+00  0.0000E+00  0.0000E+00  0.0000E+00  0.0000E+00
    -37.262  0.0000E+00  0.0000E+00  0.0000E+00  0.0000E+00  0.0000E+00  0.0000E+00  0.0000E+00  0.0000E+00  0.0000E+00  0.0000E+00  0.0000E+00  0.0000E+00  0.0000E+00  0.0000E+00  0.0000E+00  0.0000E+00  0.0000E+00  0.0000E+00
    -37.068  0.0000E+00  0.0000E+00  0.0000E+00  0.0000E+00  0.0000E+00  0.0000E+00  0.0000E+00  0.0000E+00  0.0000E+00  0.0000E+00  0.0000E+00  0.0000E+00  0.0000E+00  0.0000E+00  0.0000E+00  0.0000E+00  0.0000E+00  0.0000E+00
    -36.873  0.0000E+00  0.0000E+00  0.0000E+00  0.0000E+00  0.0000E+00  0.0000E+00  0.0000E+00  0.0000E+00  0.0000E+00  0.0000E+00  0.0000E+00  0.0000E+00  0.0000E+00  0.0000E+00  0.0000E+00  0.0000E+00  0.0000E+00  0.0000E+00
    -36.679  0.0000E+00  0.0000E+00  0.0000E+00  0.0000E+00  0.0000E+00  0.0000E+00  0.0000E+00  0.0000E+00  0.0000E+00  0.0000E+00  0.0000E+00  0.0000E+00  0.0000E+00  0.0000E+00  0.0000E+00  0.0000E+00  0.0000E+00  0.0000E+00
    -36.484  0.0000E+00  0.0000E+00  0.0000E+00  0.0000E+00  0.0000E+00  0.0000E+00  0.0000E+00  0.0000E+00  0.0000E+00  0.0000E+00  0.0000E+00  0.0000E+00  0.0000E+00  0.0000E+00  0.0000E+00  0.0000E+00  0.0000E+00  0.0000E+00
    -36.290  0.0000E+00  0.0000E+00  0.0000E+00  0.0000E+00  0.0000E+00  0.0000E+00  0.0000E+00  0.0000E+00  0.0000E+00  0.0000E+00  0.0000E+00  0.0000E+00  0.0000E+00  0.0000E+00  0.0000E+00  0.0000E+00  0.0000E+00  0.0000E+00
    -36.095  0.0000E+00  0.0000E+00  0.0000E+00  0.0000E+00  0.0000E+00  0.0000E+00  0.0000E+00  0.0000E+00  0.0000E+00  0.0000E+00  0.0000E+00  0.0000E+00  0.0000E+00  0.0000E+00  0.0000E+00  0.0000E+00  0.0000E+00  0.0000E+00
    -35.901  0.0000E+00  0.0000E+00  0.0000E+00  0.0000E+00  0.0000E+00  0.0000E+00  0.0000E+00  0.0000E+00  0.0000E+00  0.0000E+00  0.0000E+00  0.0000E+00  0.0000E+00  0.0000E+00  0.0000E+00  0.0000E+00  0.0000E+00  0.0000E+00
    -35.706  0.0000E+00  0.0000E+00  0.0000E+00  0.0000E+00  0.0000E+00  0.0000E+00  0.0000E+00  0.0000E+00  0.0000E+00  0.0000E+00  0.0000E+00  0.0000E+00  0.0000E+00  0.0000E+00  0.0000E+00  0.0000E+00  0.0000E+00  0.0000E+00
    -35.511  0.0000E+00  0.0000E+00  0.0000E+00  0.0000E+00  0.0000E+00  0.0000E+00  0.0000E+00  0.0000E+00  0.0000E+00  0.0000E+00  0.0000E+00  0.0000E+00  0.0000E+00  0.0000E+00  0.0000E+00  0.0000E+00  0.0000E+00  0.0000E+00
    -35.317  0.0000E+00  0.0000E+00  0.0000E+00  0.0000E+00  0.0000E+00  0.0000E+00  0.0000E+00  0.0000E+00  0.0000E+00  0.0000E+00  0.0000E+00  0.0000E+00  0.0000E+00  0.0000E+00  0.0000E+00  0.0000E+00  0.0000E+00  0.0000E+00
    -35.122  0.0000E+00  0.0000E+00  0.0000E+00  0.0000E+00  0.0000E+00  0.0000E+00  0.0000E+00  0.0000E+00  0.0000E+00  0.0000E+00  0.0000E+00  0.0000E+00  0.0000E+00  0.0000E+00  0.0000E+00  0.0000E+00  0.0000E+00  0.0000E+00
    -34.928  0.0000E+00  0.0000E+00  0.0000E+00  0.0000E+00  0.0000E+00  0.0000E+00  0.0000E+00  0.0000E+00  0.0000E+00  0.0000E+00  0.0000E+00  0.0000E+00  0.0000E+00  0.0000E+00  0.0000E+00  0.0000E+00  0.0000E+00  0.0000E+00
    -34.733  0.0000E+00  0.0000E+00  0.0000E+00  0.0000E+00  0.0000E+00  0.0000E+00  0.0000E+00  0.0000E+00  0.0000E+00  0.0000E+00  0.0000E+00  0.0000E+00  0.0000E+00  0.0000E+00  0.0000E+00  0.0000E+00  0.0000E+00  0.0000E+00
    -34.539  0.0000E+00  0.0000E+00  0.0000E+00  0.0000E+00  0.0000E+00  0.0000E+00  0.0000E+00  0.0000E+00  0.0000E+00  0.0000E+00  0.0000E+00  0.0000E+00  0.0000E+00  0.0000E+00  0.0000E+00  0.0000E+00  0.0000E+00  0.0000E+00
    -34.344  0.0000E+00  0.0000E+00  0.0000E+00  0.0000E+00  0.0000E+00  0.0000E+00  0.0000E+00  0.0000E+00  0.0000E+00  0.0000E+00  0.0000E+00  0.0000E+00  0.0000E+00  0.0000E+00  0.0000E+00  0.0000E+00  0.0000E+00  0.0000E+00
    -34.150  0.0000E+00  0.0000E+00  0.0000E+00  0.0000E+00  0.0000E+00  0.0000E+00  0.0000E+00  0.0000E+00  0.0000E+00  0.0000E+00  0.0000E+00  0.0000E+00  0.0000E+00  0.0000E+00  0.0000E+00  0.0000E+00  0.0000E+00  0.0000E+00
    -33.955  0.0000E+00  0.0000E+00  0.0000E+00  0.0000E+00  0.0000E+00  0.0000E+00  0.0000E+00  0.0000E+00  0.0000E+00  0.0000E+00  0.0000E+00  0.0000E+00  0.0000E+00  0.0000E+00  0.0000E+00  0.0000E+00  0.0000E+00  0.0000E+00
    -33.761  0.0000E+00  0.0000E+00  0.0000E+00  0.0000E+00  0.0000E+00  0.0000E+00  0.0000E+00  0.0000E+00  0.0000E+00  0.0000E+00  0.0000E+00  0.0000E+00  0.0000E+00  0.0000E+00  0.0000E+00  0.0000E+00  0.0000E+00  0.0000E+00
    -33.566  0.0000E+00  0.0000E+00  0.0000E+00  0.0000E+00  0.0000E+00  0.0000E+00  0.0000E+00  0.0000E+00  0.0000E+00  0.0000E+00  0.0000E+00  0.0000E+00  0.0000E+00  0.0000E+00  0.0000E+00  0.0000E+00  0.0000E+00  0.0000E+00
    -33.372  0.0000E+00  0.0000E+00  0.0000E+00  0.0000E+00  0.0000E+00  0.0000E+00  0.0000E+00  0.0000E+00  0.0000E+00  0.0000E+00  0.0000E+00  0.0000E+00  0.0000E+00  0.0000E+00  0.0000E+00  0.0000E+00  0.0000E+00  0.0000E+00
    -33.177  0.0000E+00  0.0000E+00  0.0000E+00  0.0000E+00  0.0000E+00  0.0000E+00  0.0000E+00  0.0000E+00  0.0000E+00  0.0000E+00  0.0000E+00  0.0000E+00  0.0000E+00  0.0000E+00  0.0000E+00  0.0000E+00  0.0000E+00  0.0000E+00
    -32.983  0.0000E+00  0.0000E+00  0.0000E+00  0.0000E+00  0.0000E+00  0.0000E+00  0.0000E+00  0.0000E+00  0.0000E+00  0.0000E+00  0.0000E+00  0.0000E+00  0.0000E+00  0.0000E+00  0.0000E+00  0.0000E+00  0.0000E+00  0.0000E+00
    -32.788  0.0000E+00  0.0000E+00  0.0000E+00  0.0000E+00  0.0000E+00  0.0000E+00  0.0000E+00  0.0000E+00  0.0000E+00  0.0000E+00  0.0000E+00  0.0000E+00  0.0000E+00  0.0000E+00  0.0000E+00  0.0000E+00  0.0000E+00  0.0000E+00
    -32.594  0.0000E+00  0.0000E+00  0.0000E+00  0.0000E+00  0.0000E+00  0.0000E+00  0.0000E+00  0.0000E+00  0.0000E+00  0.0000E+00  0.0000E+00  0.0000E+00  0.0000E+00  0.0000E+00  0.0000E+00  0.0000E+00  0.0000E+00  0.0000E+00
    -32.399  0.0000E+00  0.0000E+00  0.0000E+00  0.0000E+00  0.0000E+00  0.0000E+00  0.0000E+00  0.0000E+00  0.0000E+00  0.0000E+00  0.0000E+00  0.0000E+00  0.0000E+00  0.0000E+00  0.0000E+00  0.0000E+00  0.0000E+00  0.0000E+00
    -32.205  0.0000E+00  0.0000E+00  0.0000E+00  0.0000E+00  0.0000E+00  0.0000E+00  0.0000E+00  0.0000E+00  0.0000E+00  0.0000E+00  0.0000E+00  0.0000E+00  0.0000E+00  0.0000E+00  0.0000E+00  0.0000E+00  0.0000E+00  0.0000E+00
    -32.010  0.0000E+00  0.0000E+00  0.0000E+00  0.0000E+00  0.0000E+00  0.0000E+00  0.0000E+00  0.0000E+00  0.0000E+00  0.0000E+00  0.0000E+00  0.0000E+00  0.0000E+00  0.0000E+00  0.0000E+00  0.0000E+00  0.0000E+00  0.0000E+00
    -31.816  0.0000E+00  0.0000E+00  0.0000E+00  0.0000E+00  0.0000E+00  0.0000E+00  0.0000E+00  0.0000E+00  0.0000E+00  0.0000E+00  0.0000E+00  0.0000E+00  0.0000E+00  0.0000E+00  0.0000E+00  0.0000E+00  0.0000E+00  0.0000E+00
    -31.621  0.0000E+00  0.0000E+00  0.0000E+00  0.0000E+00  0.0000E+00  0.0000E+00  0.0000E+00  0.0000E+00  0.0000E+00  0.0000E+00  0.0000E+00  0.0000E+00  0.0000E+00  0.0000E+00  0.0000E+00  0.0000E+00  0.0000E+00  0.0000E+00
    -31.427  0.0000E+00  0.0000E+00  0.0000E+00  0.0000E+00  0.0000E+00  0.0000E+00  0.0000E+00  0.0000E+00  0.0000E+00  0.0000E+00  0.0000E+00  0.0000E+00  0.0000E+00  0.0000E+00  0.0000E+00  0.0000E+00  0.0000E+00  0.0000E+00