    8    8   99    2
  0.9521515E+01  0.4871811E-09  0.4871811E-09  0.4871811E-09  0.5000000E-15
  1.000000000000000E-004
  CAR 
 unknown system                          
     36    169     24
 
  0.0000000E+00  0.0000000E+00  0.0000000E+00  0.1562500E-02
    1      -38.499987    -38.500032   1.000000   1.000000
    2      -38.476168    -38.476213   1.000000   1.000000
    3      -13.960613    -13.960608   1.000000   1.000000
    4       -9.479582     -9.479580   1.000000   1.000000
    5       -9.479582     -9.479580   1.000000   1.000000
    6       -9.222068     -9.222067   1.000000   1.000000
    7       -7.226776     -7.226775   1.000000   1.000000
    8       -2.285953     -2.285952   1.000000   1.000000
    9       -2.285953     -2.285951   1.000000   1.000000
   10       -1.597224     -1.597224   1.000000   1.000000
   11        1.020908      1.020909   1.000000   1.000000
   12        1.952476      1.952524   1.000000   1.000000
   13        2.363790      2.363806   1.000000   1.000000
   14        3.466241      3.466241   1.000000   1.000000
   15        3.466241      3.466241   1.000000   1.000000
   16        3.818351      3.818350   1.000000   1.000000
   17        3.818351      3.818351   1.000000   1.000000
   18        3.957220      3.957224   1.000000   1.000000
   19        8.617252      8.617251   0.000000   0.000000
   20       10.987268     10.987337   0.000000   0.000000
   21       13.316204     13.316206   0.000000   0.000000
   22       13.316205     13.316207   0.000000   0.000000
   23       13.651441     13.651443   0.000000   0.000000
   24       13.651441     13.651443   0.000000   0.000000
 
  0.1250000E+00  0.6938894E-17 -0.6938894E-17  0.6250000E-02
    1      -38.499297    -38.499342   1.000000   1.000000
    2      -38.476852    -38.476897   1.000000   1.000000
    3      -13.883611    -13.883607   1.000000   1.000000
    4       -9.788619     -9.788617   1.000000   1.000000
    5       -9.501644     -9.501642   1.000000   1.000000
    6       -9.302656     -9.302655   1.000000   1.000000
    7       -6.855041     -6.855039   1.000000   1.000000
    8       -2.314457     -2.314454   1.000000   1.000000
    9       -2.263110     -2.263108   1.000000   1.000000
   10       -1.517976     -1.517975   1.000000   1.000000
   11        0.958210      0.958211   1.000000   1.000000
   12        2.080231      2.080270   1.000000   1.000000
   13        2.357552      2.357565   1.000000   1.000000
   14        3.292533      3.292539   1.000000   1.000000
   15        3.487210      3.487210   1.000000   1.000000
   16        3.773683      3.773688   1.000000   1.000000
   17        3.803410      3.803415   1.000000   1.000000
   18        3.959072      3.959074   1.000000   1.000000
   19        8.947066      8.947065   0.000000   0.000000
   20       11.252972     11.253035   0.000000   0.000000
   21       12.612752     12.612757   0.000000   0.000000
   22       12.863402     12.863405   0.000000   0.000000
   23       13.525250     13.525262   0.000000   0.000000
   24       13.936036     13.936031   0.000000   0.000000
 
  0.2500000E+00  0.1387779E-16 -0.1387779E-16  0.6250000E-02
    1      -38.497464    -38.497509   1.000000   1.000000
    2      -38.478691    -38.478736   1.000000   1.000000
    3      -13.667272    -13.667268   1.000000   1.000000
    4      -10.482811    -10.482809   1.000000   1.000000
    5       -9.540828     -9.540826   1.000000   1.000000
    6       -9.363998     -9.363996   1.000000   1.000000
    7       -6.176493     -6.176492   1.000000   1.000000
    8       -2.397345     -2.397341   1.000000   1.000000
    9       -2.129046     -2.129043   1.000000   1.000000
   10       -1.369725     -1.369724   1.000000   1.000000
   11        0.899121      0.899123   1.000000   1.000000
   12        2.184236      2.184244   1.000000   1.000000
   13        2.396507      2.396514   1.000000   1.000000
   14        2.649926      2.649961   1.000000   1.000000
   15        3.386061      3.386062   1.000000   1.000000
   16        3.697450      3.697455   1.000000   1.000000
   17        3.908216      3.908233   1.000000   1.000000
   18        4.317962      4.317963   1.000000   1.000000
   19        9.830390      9.830390   0.000000   0.000000
   20       11.661498     11.661526   0.000000   0.000000
   21       11.753795     11.753819   0.000000   0.000000
   22       12.337021     12.337024   0.000000   0.000000
   23       13.038595     13.038602   0.000000   0.000000
   24       14.416218     14.421859   0.000000   0.000000
 
  0.3750000E+00  0.2775558E-16 -0.2775558E-16  0.6250000E-02
    1      -38.495193    -38.495238   1.000000   1.000000
    2      -38.480923    -38.480968   1.000000   1.000000
    3      -13.377069    -13.377067   1.000000   1.000000
    4      -11.129340    -11.129337   1.000000   1.000000
    5       -9.560329     -9.560326   1.000000   1.000000
    6       -9.429115     -9.429113   1.000000   1.000000
    7       -5.620781     -5.620779   1.000000   1.000000
    8       -2.445103     -2.445100   1.000000   1.000000
    9       -1.891877     -1.891874   1.000000   1.000000
   10       -1.325212     -1.325211   1.000000   1.000000
   11        0.992667      0.992669   1.000000   1.000000
   12        1.635419      1.635427   1.000000   1.000000
   13        2.198266      2.198280   1.000000   1.000000
   14        2.756774      2.756790   1.000000   1.000000
   15        3.245082      3.245094   1.000000   1.000000
   16        3.562750      3.562759   1.000000   1.000000
   17        4.175324      4.175340   1.000000   1.000000
   18        4.681618      4.681619   1.000000   1.000000
   19       10.876735     10.876743   0.000000   0.000000
   20       11.079480     11.079482   0.000000   0.000000
   21       11.952263     11.952283   0.000000   0.000000
   22       12.374411     12.374418   0.000000   0.000000
   23       12.572940     12.572943   0.000000   0.000000
   24       14.415751     14.415786   0.000000   0.000000
 
  0.5000000E+00  0.2775558E-16 -0.2775558E-16  0.6250000E-02
    1      -38.493965    -38.494010   1.000000   1.000000
    2      -38.482078    -38.482124   1.000000   1.000000
    3      -13.212442    -13.212440   1.000000   1.000000
    4      -11.420493    -11.420490   1.000000   1.000000
    5       -9.558606     -9.558602   1.000000   1.000000
    6       -9.464833     -9.464831   1.000000   1.000000
    7       -5.409422     -5.409419   1.000000   1.000000
    8       -2.447213     -2.447212   1.000000   1.000000
    9       -1.718298     -1.718297   1.000000   1.000000
   10       -1.382996     -1.382995   1.000000   1.000000
   11        1.068667      1.068680   1.000000   1.000000
   12        1.381376      1.381376   1.000000   1.000000
   13        1.993563      1.993578   1.000000   1.000000
   14        2.987647      2.987657   1.000000   1.000000
   15        3.152664      3.152676   1.000000   1.000000
   16        3.457444      3.457461   1.000000   1.000000
   17        4.321855      4.321868   1.000000   1.000000
   18        4.813868      4.813870   1.000000   1.000000
   19       10.678144     10.678154   0.000000   0.000000
   20       11.679796     11.679796   0.000000   0.000000
   21       12.082999     12.083010   0.000000   0.000000
   22       12.390596     12.390599   0.000000   0.000000
   23       12.573179     12.573193   0.000000   0.000000
   24       14.048765     14.048766   0.000000   0.000000
 
  0.1250000E+00  0.1250000E+00 -0.1387779E-16  0.3125000E-02
    1      -38.498255    -38.498300   1.000000   1.000000
    2      -38.477953    -38.477998   1.000000   1.000000
    3      -13.760390    -13.760386   1.000000   1.000000
    4      -10.191838    -10.191836   1.000000   1.000000
    5       -9.542013     -9.542011   1.000000   1.000000
    6       -9.384099     -9.384097   1.000000   1.000000
    7       -6.380243     -6.380242   1.000000   1.000000
    8       -2.424546     -2.424542   1.000000   1.000000
    9       -2.044992     -2.044990   1.000000   1.000000
   10       -1.504969     -1.504968   1.000000   1.000000
   11        0.966645      0.966647   1.000000   1.000000
   12        2.198305      2.198332   1.000000   1.000000
   13        2.301432      2.301445   1.000000   1.000000
   14        2.897977      2.897993   1.000000   1.000000
   15        3.382530      3.382530   1.000000   1.000000
   16        3.754092      3.754095   1.000000   1.000000
   17        3.966849      3.966851   1.000000   1.000000
   18        4.018850      4.018859   1.000000   1.000000
   19        9.444946      9.444947   0.000000   0.000000
   20       11.439500     11.439547   0.000000   0.000000
   21       12.222490     12.222495   0.000000   0.000000
   22       12.291669     12.291681   0.000000   0.000000
   23       13.385446     13.385461   0.000000   0.000000
   24       14.079281     14.079299   0.000000   0.000000
 
  0.2500000E+00  0.1250000E+00 -0.2775558E-16  0.6250000E-02
    1      -38.496172    -38.496217   1.000000   1.000000
    2      -38.479978    -38.480023   1.000000   1.000000
    3      -13.508789    -13.508786   1.000000   1.000000
    4      -10.833109    -10.833108   1.000000   1.000000
    5       -9.589347     -9.589344   1.000000   1.000000
    6       -9.434648     -9.434646   1.000000   1.000000
    7       -5.764904     -5.764902   1.000000   1.000000
    8       -2.542660     -2.542654   1.000000   1.000000
    9       -1.840079     -1.840076   1.000000   1.000000
   10       -1.394098     -1.394097   1.000000   1.000000
   11        1.014924      1.014926   1.000000   1.000000
   12        1.843441      1.843453   1.000000   1.000000
   13        2.268776      2.268788   1.000000   1.000000
   14        2.670443      2.670467   1.000000   1.000000
   15        3.261564      3.261567   1.000000   1.000000
   16        3.753181      3.753185   1.000000   1.000000
   17        4.096381      4.096391   1.000000   1.000000
   18        4.381696      4.381701   1.000000   1.000000
   19       10.351432     10.351437   0.000000   0.000000
   20       11.275468     11.275480   0.000000   0.000000
   21       11.590849     11.590862   0.000000   0.000000
   22       12.360344     12.360358   0.000000   0.000000
   23       13.086717     13.086735   0.000000   0.000000
   24       14.103311     14.103323   0.000000   0.000000
 
  0.3750000E+00  0.1250000E+00 -0.2775558E-16  0.1250000E-01
    1      -38.493954    -38.493999   1.000000   1.000000
    2      -38.482072    -38.482117   1.000000   1.000000
    3      -13.221877    -13.221874   1.000000   1.000000
    4      -11.372769    -11.372767   1.000000   1.000000
    5       -9.606612     -9.606608   1.000000   1.000000
    6       -9.483275     -9.483273   1.000000   1.000000
    7       -5.327581     -5.327579   1.000000   1.000000
    8       -2.630109     -2.630106   1.000000   1.000000
    9       -1.648166     -1.648163   1.000000   1.000000
   10       -1.354318     -1.354317   1.000000   1.000000
   11        1.086989      1.087002   1.000000   1.000000
   12        1.374096      1.374102   1.000000   1.000000
   13        2.083725      2.083736   1.000000   1.000000
   14        2.827657      2.827668   1.000000   1.000000
   15        3.243436      3.243446   1.000000   1.000000
   16        3.689549      3.689558   1.000000   1.000000
   17        4.261094      4.261106   1.000000   1.000000
   18        4.669556      4.669559   1.000000   1.000000
   19       10.765287     10.765295   0.000000   0.000000
   20       11.436504     11.436509   0.000000   0.000000
   21       11.591317     11.591329   0.000000   0.000000
   22       12.224980     12.224984   0.000000   0.000000
   23       13.120951     13.120961   0.000000   0.000000
   24       14.138238     14.138241   0.000000   0.000000
 
  0.5000000E+00  0.1250000E+00 -0.5551115E-16  0.1250000E-01
    1      -38.493480    -38.493525   1.000000   1.000000
    2      -38.482516    -38.482562   1.000000   1.000000
    3      -13.153922    -13.153920   1.000000   1.000000
    4      -11.478630    -11.478627   1.000000   1.000000
    5       -9.611983     -9.611979   1.000000   1.000000
    6       -9.479576     -9.479574   1.000000   1.000000
    7       -5.274236     -5.274234   1.000000   1.000000
    8       -2.700773     -2.700771   1.000000   1.000000
    9       -1.670546     -1.670544   1.000000   1.000000
   10       -1.252646     -1.252644   1.000000   1.000000
   11        0.915301      0.915313   1.000000   1.000000
   12        1.404871      1.404880   1.000000   1.000000
   13        2.117004      2.117013   1.000000   1.000000
   14        3.017744      3.017750   1.000000   1.000000
   15        3.232384      3.232396   1.000000   1.000000
   16        3.596580      3.596594   1.000000   1.000000
   17        4.276378      4.276391   1.000000   1.000000
   18        4.728411      4.728413   1.000000   1.000000
   19       10.641945     10.641953   0.000000   0.000000
   20       11.548683     11.548689   0.000000   0.000000
   21       11.944629     11.944633   0.000000   0.000000
   22       12.316511     12.316519   0.000000   0.000000
   23       13.100258     13.100264   0.000000   0.000000
   24       14.003984     14.004003   0.000000   0.000000
 
 -0.3750000E+00  0.1250000E+00  0.1387779E-16  0.6250000E-02
    1      -38.495335    -38.495380   1.000000   1.000000
    2      -38.480778    -38.480823   1.000000   1.000000
    3      -13.396528    -13.396526   1.000000   1.000000
    4      -11.052735    -11.052732   1.000000   1.000000
    5       -9.603090     -9.603086   1.000000   1.000000
    6       -9.418249     -9.418247   1.000000   1.000000
    7       -5.637653     -5.637651   1.000000   1.000000
    8       -2.733644     -2.733639   1.000000   1.000000
    9       -1.851362     -1.851360   1.000000   1.000000
   10       -1.159244     -1.159243   1.000000   1.000000
   11        0.754770      0.754774   1.000000   1.000000
   12        1.767296      1.767307   1.000000   1.000000
   13        2.435023      2.435031   1.000000   1.000000
   14        2.871741      2.871758   1.000000   1.000000
   15        3.342506      3.342511   1.000000   1.000000
   16        3.575270      3.575278   1.000000   1.000000
   17        4.100336      4.100355   1.000000   1.000000
   18        4.555526      4.555529   1.000000   1.000000
   19       10.601477     10.601482   0.000000   0.000000
   20       11.157292     11.157299   0.000000   0.000000
   21       12.010296     12.010304   0.000000   0.000000
   22       12.456512     12.456523   0.000000   0.000000
   23       12.912742     12.912750   0.000000   0.000000
   24       14.125158     14.125199   0.000000   0.000000
 
 -0.2500000E+00  0.1250000E+00  0.0000000E+00  0.6250000E-02
    1      -38.497581    -38.497626   1.000000   1.000000
    2      -38.478549    -38.478594   1.000000   1.000000
    3      -13.678132    -13.678128   1.000000   1.000000
    4      -10.422862    -10.422860   1.000000   1.000000
    5       -9.561311     -9.561308   1.000000   1.000000
    6       -9.342342     -9.342341   1.000000   1.000000
    7       -6.243447     -6.243445   1.000000   1.000000
    8       -2.672343     -2.672337   1.000000   1.000000
    9       -2.024392     -2.024390   1.000000   1.000000
   10       -1.231678     -1.231677   1.000000   1.000000
   11        0.712251      0.712254   1.000000   1.000000
   12        2.262351      2.262361   1.000000   1.000000
   13        2.535556      2.535563   1.000000   1.000000
   14        2.825961      2.825992   1.000000   1.000000
   15        3.462226      3.462226   1.000000   1.000000
   16        3.622773      3.622777   1.000000   1.000000
   17        3.934710      3.934724   1.000000   1.000000
   18        4.212077      4.212083   1.000000   1.000000
   19        9.679795      9.679796   0.000000   0.000000
   20       11.655784     11.655812   0.000000   0.000000
   21       12.036749     12.036761   0.000000   0.000000
   22       12.632384     12.632399   0.000000   0.000000
   23       13.119345     13.119359   0.000000   0.000000
   24       13.736147     13.736158   0.000000   0.000000
 
 -0.1250000E+00  0.1250000E+00  0.0000000E+00  0.3125000E-02
    1      -38.499084    -38.499129   1.000000   1.000000
    2      -38.477116    -38.477161   1.000000   1.000000
    3      -13.854451    -13.854447   1.000000   1.000000
    4       -9.902961     -9.902959   1.000000   1.000000
    5       -9.514137     -9.514135   1.000000   1.000000
    6       -9.271257     -9.271256   1.000000   1.000000
    7       -6.787476     -6.787475   1.000000   1.000000
    8       -2.518958     -2.518954   1.000000   1.000000
    9       -2.158076     -2.158074   1.000000   1.000000
   10       -1.397520     -1.397519   1.000000   1.000000
   11        0.840608      0.840609   1.000000   1.000000
   12        2.138360      2.138394   1.000000   1.000000
   13        2.450736      2.450748   1.000000   1.000000
   14        3.259774      3.259784   1.000000   1.000000
   15        3.498353      3.498353   1.000000   1.000000
   16        3.740768      3.740772   1.000000   1.000000
   17        3.851912      3.851914   1.000000   1.000000
   18        3.953028      3.953037   1.000000   1.000000
   19        9.031751      9.031751   0.000000   0.000000
   20       11.363176     11.363233   0.000000   0.000000
   21       12.713828     12.713839   0.000000   0.000000
   22       12.956412     12.956416   0.000000   0.000000
   23       13.295090     13.295098   0.000000   0.000000
   24       13.579170     13.579178   0.000000   0.000000
 
  0.2500000E+00  0.2500000E+00 -0.2775558E-16  0.6250000E-02
    1      -38.493985    -38.494030   1.000000   1.000000
    2      -38.482086    -38.482131   1.000000   1.000000
    3      -13.231149    -13.231147   1.000000   1.000000
    4      -11.322527    -11.322525   1.000000   1.000000
    5       -9.666311     -9.666308   1.000000   1.000000
    6       -9.492212     -9.492210   1.000000   1.000000
    7       -5.240571     -5.240570   1.000000   1.000000
    8       -2.796919     -2.796915   1.000000   1.000000
    9       -1.603576     -1.603571   1.000000   1.000000
   10       -1.316168     -1.316167   1.000000   1.000000
   11        1.184564      1.184567   1.000000   1.000000
   12        1.254741      1.254763   1.000000   1.000000
   13        2.134036      2.134046   1.000000   1.000000
   14        2.868038      2.868050   1.000000   1.000000
   15        3.321864      3.321868   1.000000   1.000000
   16        3.815802      3.815805   1.000000   1.000000
   17        4.249027      4.249030   1.000000   1.000000
   18        4.461140      4.461152   1.000000   1.000000
   19       10.806697     10.806711   0.000000   0.000000
   20       11.166831     11.166838   0.000000   0.000000
   21       11.413823     11.413826   0.000000   0.000000
   22       12.197605     12.197611   0.000000   0.000000
   23       13.671823     13.671873   0.000000   0.000000
   24       13.678629     13.678630   0.000000   0.000000
 
  0.3750000E+00  0.2500000E+00 -0.5551115E-16  0.6250000E-02
    1      -38.491928    -38.491973   1.000000   1.000000
    2      -38.484045    -38.484090   1.000000   1.000000
    3      -12.948902    -12.948900   1.000000   1.000000
    4      -11.727491    -11.727489   1.000000   1.000000
    5       -9.688569     -9.688565   1.000000   1.000000
    6       -9.542297     -9.542295   1.000000   1.000000
    7       -4.876106     -4.876104   1.000000   1.000000
    8       -3.087628     -3.087626   1.000000   1.000000
    9       -1.453842     -1.453836   1.000000   1.000000
   10       -1.244948     -1.244945   1.000000   1.000000
   11        0.908812      0.908834   1.000000   1.000000
   12        1.435750      1.435755   1.000000   1.000000
   13        1.949629      1.949638   1.000000   1.000000
   14        2.898706      2.898711   1.000000   1.000000
   15        3.534322      3.534328   1.000000   1.000000
   16        3.876937      3.876943   1.000000   1.000000
   17        4.250711      4.250717   1.000000   1.000000
   18        4.563294      4.563300   1.000000   1.000000
   19       10.663306     10.663313   0.000000   0.000000
   20       11.494691     11.494695   0.000000   0.000000
   21       11.783890     11.783900   0.000000   0.000000
   22       11.952897     11.952908   0.000000   0.000000
   23       13.714084     13.714085   0.000000   0.000000
   24       14.098073     14.098071   0.000000   0.000000
 
  0.5000000E+00  0.2500000E+00 -0.5551115E-16  0.1250000E-01
    1      -38.492191    -38.492236   1.000000   1.000000
    2      -38.483770    -38.483815   1.000000   1.000000
    3      -12.981893    -12.981891   1.000000   1.000000
    4      -11.670523    -11.670521   1.000000   1.000000
    5       -9.672868     -9.672863   1.000000   1.000000
    6       -9.541021     -9.541019   1.000000   1.000000
    7       -4.945949     -4.945947   1.000000   1.000000
    8       -3.247610     -3.247606   1.000000   1.000000
    9       -1.476858     -1.476854   1.000000   1.000000
   10       -1.073049     -1.073045   1.000000   1.000000
   11        0.769613      0.769628   1.000000   1.000000
   12        1.434842      1.434859   1.000000   1.000000
   13        2.230118      2.230123   1.000000   1.000000
   14        2.863543      2.863546   1.000000   1.000000
   15        3.572098      3.572105   1.000000   1.000000
   16        3.847346      3.847352   1.000000   1.000000
   17        4.230302      4.230314   1.000000   1.000000
   18        4.561928      4.561931   1.000000   1.000000
   19       10.698675     10.698681   0.000000   0.000000
   20       11.326393     11.326401   0.000000   0.000000
   21       11.947949     11.947953   0.000000   0.000000
   22       12.455904     12.455914   0.000000   0.000000
   23       13.401073     13.401057   0.000000   0.000000
   24       14.000729     14.002112   0.000000   0.000000
 
 -0.3750000E+00  0.2500000E+00  0.0000000E+00  0.6250000E-02
    1      -38.494390    -38.494435   1.000000   1.000000
    2      -38.481654    -38.481699   1.000000   1.000000
    3      -13.277712    -13.277709   1.000000   1.000000
    4      -11.208157    -11.208155   1.000000   1.000000
    5       -9.638526     -9.638522   1.000000   1.000000
    6       -9.484590     -9.484588   1.000000   1.000000
    7       -5.405334     -5.405332   1.000000   1.000000
    8       -3.183382     -3.183375   1.000000   1.000000
    9       -1.608171     -1.608168   1.000000   1.000000
   10       -0.972068     -0.972067   1.000000   1.000000
   11        0.559264      0.559274   1.000000   1.000000
   12        1.834183      1.834198   1.000000   1.000000
   13        2.600504      2.600512   1.000000   1.000000
   14        2.789986      2.789993   1.000000   1.000000
   15        3.454101      3.454110   1.000000   1.000000
   16        3.636560      3.636564   1.000000   1.000000
   17        4.201746      4.201756   1.000000   1.000000
   18        4.452549      4.452556   1.000000   1.000000
   19       10.555575     10.555583   0.000000   0.000000
   20       11.308423     11.308427   0.000000   0.000000
   21       12.188240     12.188245   0.000000   0.000000
   22       12.674786     12.674790   0.000000   0.000000
   23       13.103122     13.103134   0.000000   0.000000
   24       13.482135     13.482176   0.000000   0.000000
 
 -0.2500000E+00  0.2500000E+00  0.0000000E+00  0.3125000E-02
    1      -38.496456    -38.496501   1.000000   1.000000
    2      -38.479639    -38.479684   1.000000   1.000000
    3      -13.540289    -13.540286   1.000000   1.000000
    4      -10.711411    -10.711409   1.000000   1.000000
    5       -9.591571     -9.591568   1.000000   1.000000
    6       -9.410741     -9.410739   1.000000   1.000000
    7       -5.925095     -5.925093   1.000000   1.000000
    8       -2.981219     -2.981212   1.000000   1.000000
    9       -1.805471     -1.805469   1.000000   1.000000
   10       -1.057351     -1.057351   1.000000   1.000000
   11        0.538370      0.538377   1.000000   1.000000
   12        2.293619      2.293619   1.000000   1.000000
   13        2.709721      2.709727   1.000000   1.000000
   14        2.745351      2.745385   1.000000   1.000000
   15        3.436590      3.436598   1.000000   1.000000
   16        3.466954      3.466954   1.000000   1.000000
   17        4.096030      4.096032   1.000000   1.000000
   18        4.277108      4.277125   1.000000   1.000000
   19        9.976733      9.976738   0.000000   0.000000
   20       11.765643     11.765643   0.000000   0.000000
   21       12.345085     12.345127   0.000000   0.000000
   22       12.556741     12.556743   0.000000   0.000000
   23       12.918483     12.918500   0.000000   0.000000
   24       13.369917     13.369921   0.000000   0.000000
 
  0.3750000E+00  0.3750000E+00 -0.5551115E-16  0.3125000E-02
    1      -38.489698    -38.489743   1.000000   1.000000
    2      -38.486227    -38.486272   1.000000   1.000000
    3      -12.628847    -12.628846   1.000000   1.000000
    4      -12.093026    -12.093025   1.000000   1.000000
    5       -9.700421     -9.700416   1.000000   1.000000
    6       -9.602169     -9.602166   1.000000   1.000000
    7       -4.476675     -4.476673   1.000000   1.000000
    8       -3.641734     -3.641732   1.000000   1.000000
    9       -1.247389     -1.247382   1.000000   1.000000
   10       -1.160690     -1.160686   1.000000   1.000000
   11        0.899891      0.899914   1.000000   1.000000
   12        1.411280      1.411294   1.000000   1.000000
   13        1.964232      1.964235   1.000000   1.000000
   14        2.713281      2.713282   1.000000   1.000000
   15        3.924616      3.924620   1.000000   1.000000
   16        4.054045      4.054046   1.000000   1.000000
   17        4.231462      4.231466   1.000000   1.000000
   18        4.427123      4.427127   1.000000   1.000000
   19       10.702578     10.702581   0.000000   0.000000
   20       11.390936     11.390938   0.000000   0.000000
   21       11.945231     11.945233   0.000000   0.000000
   22       12.147338     12.147369   0.000000   0.000000
   23       13.799821     13.799827   0.000000   0.000000
   24       13.826134     13.826195   0.000000   0.000000
 
  0.5000000E+00  0.3750000E+00 -0.5551115E-16  0.1250000E-01
    1      -38.490225    -38.490271   1.000000   1.000000
    2      -38.485684    -38.485729   1.000000   1.000000
    3      -12.708455    -12.708453   1.000000   1.000000
    4      -11.988419    -11.988417   1.000000   1.000000
    5       -9.672588     -9.672584   1.000000   1.000000
    6       -9.611362     -9.611359   1.000000   1.000000
    7       -4.573170     -4.573168   1.000000   1.000000
    8       -3.793418     -3.793414   1.000000   1.000000
    9       -1.220724     -1.220719   1.000000   1.000000
   10       -0.967977     -0.967973   1.000000   1.000000
   11        0.811560      0.811579   1.000000   1.000000
   12        1.368074      1.368096   1.000000   1.000000
   13        2.262503      2.262505   1.000000   1.000000
   14        2.531491      2.531492   1.000000   1.000000
   15        3.957587      3.957590   1.000000   1.000000
   16        4.037574      4.037576   1.000000   1.000000
   17        4.283397      4.283401   1.000000   1.000000
   18        4.415521      4.415524   1.000000   1.000000
   19       10.861375     10.861378   0.000000   0.000000
   20       11.083389     11.083392   0.000000   0.000000
   21       12.308544     12.308559   0.000000   0.000000
   22       12.530301     12.530315   0.000000   0.000000
   23       13.519783     13.519804   0.000000   0.000000
   24       13.674012     13.674060   0.000000   0.000000
 
 -0.3750000E+00  0.3750000E+00  0.0000000E+00  0.3125000E-02
    1      -38.492526    -38.492571   1.000000   1.000000
    2      -38.483417    -38.483462   1.000000   1.000000
    3      -13.032927    -13.032925   1.000000   1.000000
    4      -11.566355    -11.566353   1.000000   1.000000
    5       -9.654068     -9.654064   1.000000   1.000000
    6       -9.560011     -9.560008   1.000000   1.000000
    7       -5.023549     -5.023547   1.000000   1.000000
    8       -3.543560     -3.543553   1.000000   1.000000
    9       -1.363961     -1.363958   1.000000   1.000000
   10       -0.870530     -0.870528   1.000000   1.000000
   11        0.557496      0.557513   1.000000   1.000000
   12        1.740305      1.740326   1.000000   1.000000
   13        2.367845      2.367851   1.000000   1.000000
   14        2.650732      2.650733   1.000000   1.000000
   15        3.740272      3.740275   1.000000   1.000000
   16        3.782204      3.782210   1.000000   1.000000
   17        4.301514      4.301516   1.000000   1.000000
   18        4.460447      4.460456   1.000000   1.000000
   19       10.735783     10.735789   0.000000   0.000000
   20       11.216156     11.216159   0.000000   0.000000
   21       12.565230     12.565234   0.000000   0.000000
   22       12.607113     12.607122   0.000000   0.000000
   23       13.181824     13.181834   0.000000   0.000000
   24       13.509995     13.510046   0.000000   0.000000
 
  0.5000000E+00  0.5000000E+00 -0.5551115E-16  0.3125000E-02
    1      -38.487913    -38.487958   1.000000   1.000000
    2      -38.487913    -38.487958   1.000000   1.000000
    3      -12.360383    -12.360381   1.000000   1.000000
    4      -12.360382    -12.360381   1.000000   1.000000
    5       -9.649869     -9.649865   1.000000   1.000000
    6       -9.649869     -9.649865   1.000000   1.000000
    7       -4.216636     -4.216632   1.000000   1.000000
    8       -4.216636     -4.216632   1.000000   1.000000
    9       -1.013046     -1.013042   1.000000   1.000000
   10       -1.013046     -1.013042   1.000000   1.000000
   11        1.064034      1.064056   1.000000   1.000000