 vasp.5.4.4.18Apr17-6-g9f103f2a35 (build Aug 12 2020 11:57:02) complex          
  
 executed on             LinuxIFC date 2021.01.31  03:18:48
 running on   24 total cores
 distrk:  each k-point on   24 cores,    1 groups
 distr:  one band on NCORES_PER_BAND=   6 cores,    4 groups


--------------------------------------------------------------------------------------------------------


 INCAR:
 POTCAR:    PAW_PBE Li_sv 10Sep2004               
 POTCAR:    PAW_PBE P 06Sep2000                   
 POTCAR:    PAW_PBE N 08Apr2002                   
 POTCAR:    PAW_PBE Li_sv 10Sep2004               
   VRHFIN =Li: 1s2s2p                                                           
   LEXCH  = PE                                                                  
   EATOM  =   202.7858 eV,   14.9043 Ry                                         
                                                                                
   TITEL  = PAW_PBE Li_sv 10Sep2004                                             
   LULTRA =        F    use ultrasoft PP ?                                      
   IUNSCR =        0    unscreen: 0-lin 1-nonlin 2-no                           
   RPACOR =    0.000    partial core radius                                     
   POMASS =    7.010; ZVAL   =    3.000    mass and valenz                      
   RCORE  =    1.700    outmost cutoff radius                                   
   RWIGS  =    2.050; RWIGS  =    1.085    wigner-seitz radius (au A)           
   ENMAX  =  499.034; ENMIN  =  374.276 eV                                      
   ICORE  =        2    local potential                                         
   LCOR   =        T    correct aug charges                                     
   LPAW   =        T    paw PP                                                  
   EAUG   =  628.945                                                            
   RMAX   =    1.732    core radius for proj-oper                               
   RAUG   =    1.300    factor for augmentation sphere                          
   RDEP   =    1.728    radius for radial grids                                 
   RDEPT  =    1.329    core radius for aug-charge                              
                                                                                
   Atomic configuration                                                         
    4 entries                                                                   
     n  l   j            E        occ.                                          
     1  0  0.50       -51.8549   2.0000                                         
     2  0  0.50        -2.8742   1.0000                                         
     2  1  0.50        -1.3606   0.0000                                         
     3  2  1.50        -1.3606   0.0000                                         
   Description                                                                  
     l       E           TYP  RCUT    TYP  RCUT                                 
     0    -51.8548813     23  1.400                                             
     0     -2.8742052     23  1.700                                             
     1     -1.3605826     23  1.400                                             
     2     -1.3605826     23  1.400                                             
  local pseudopotential read in
  atomic valenz-charges read in
  non local Contribution for L=           0  read in
    real space projection operators read in
  non local Contribution for L=           0  read in
    real space projection operators read in
  non local Contribution for L=           1  read in
    real space projection operators read in
    PAW grid and wavefunctions read in
 
   number of l-projection  operators is LMAX  =           3
   number of lm-projection operators is LMMAX =           5
 
 POTCAR:    PAW_PBE P 06Sep2000                   
   VRHFIN =P : s2p3                                                             
   LEXCH  = PE                                                                  
   EATOM  =   176.0430 eV,   12.9388 Ry                                         
                                                                                
   TITEL  = PAW_PBE P 06Sep2000                                                 
   LULTRA =        F    use ultrasoft PP ?                                      
   IUNSCR =        1    unscreen: 0-lin 1-nonlin 2-no                           
   RPACOR =    1.500    partial core radius                                     
   POMASS =   30.974; ZVAL   =    5.000    mass and valenz                      
   RCORE  =    1.900    outmost cutoff radius                                   
   RWIGS  =    2.330; RWIGS  =    1.233    wigner-seitz radius (au A)           
   ENMAX  =  255.040; ENMIN  =  191.280 eV                                      
   ICORE  =        2    local potential                                         
   LCOR   =        T    correct aug charges                                     
   LPAW   =        T    paw PP                                                  
   EAUG   =  342.924                                                            
   DEXC   =    0.000                                                            
   RMAX   =    1.935    core radius for proj-oper                               
   RAUG   =    1.300    factor for augmentation sphere                          
   RDEP   =    1.931    radius for radial grids                                 
   RDEPT  =    1.794    core radius for aug-charge                              
                                                                                
   Atomic configuration                                                         
    6 entries                                                                   
     n  l   j            E        occ.                                          
     1  0  0.50     -2084.0982   2.0000                                         
     2  0  0.50      -173.9859   2.0000                                         
     2  1  1.50      -124.4865   6.0000                                         
     3  0  0.50       -13.9692   2.0000                                         
     3  1  0.50        -5.5067   3.0000                                         
     3  2  1.50        -5.4423   0.0000                                         
   Description                                                                  
     l       E           TYP  RCUT    TYP  RCUT                                 
     0    -13.9691527     23  1.900                                             
     0    -11.7794650     23  1.900                                             
     1     -5.5066937     23  1.900                                             
     1     -0.2556953     23  1.900                                             
     2     -5.4423304     23  1.900                                             
  local pseudopotential read in
  partial core-charges read in
  partial kinetic energy density read in
  atomic valenz-charges read in
  non local Contribution for L=           0  read in
    real space projection operators read in
  non local Contribution for L=           0  read in
    real space projection operators read in
  non local Contribution for L=           1  read in
    real space projection operators read in
  non local Contribution for L=           1  read in
    real space projection operators read in
    PAW grid and wavefunctions read in
 
   number of l-projection  operators is LMAX  =           4
   number of lm-projection operators is LMMAX =           8
 
 POTCAR:    PAW_PBE N 08Apr2002                   
   VRHFIN =N: s2p3                                                              
   LEXCH  = PE                                                                  
   EATOM  =   264.5486 eV,   19.4438 Ry                                         
                                                                                
   TITEL  = PAW_PBE N 08Apr2002                                                 
   LULTRA =        F    use ultrasoft PP ?                                      
   IUNSCR =        1    unscreen: 0-lin 1-nonlin 2-no                           
   RPACOR =    1.200    partial core radius                                     
   POMASS =   14.001; ZVAL   =    5.000    mass and valenz                      
   RCORE  =    1.500    outmost cutoff radius                                   
   RWIGS  =    1.400; RWIGS  =    0.741    wigner-seitz radius (au A)           
   ENMAX  =  400.000; ENMIN  =  300.000 eV                                      
   ICORE  =        2    local potential                                         
   LCOR   =        T    correct aug charges                                     
   LPAW   =        T    paw PP                                                  
   EAUG   =  627.112                                                            
   DEXC   =    0.000                                                            
   RMAX   =    1.529    core radius for proj-oper                               
   RAUG   =    1.300    factor for augmentation sphere                          
   RDEP   =    1.514    radius for radial grids                                 
   RDEPT  =    1.338    core radius for aug-charge                              
                                                                                
   Atomic configuration                                                         
    4 entries                                                                   
     n  l   j            E        occ.                                          
     1  0  0.50      -384.7179   2.0000                                         
     2  0  0.50       -18.5828   2.0000                                         
     2  1  0.50        -7.0898   3.0000                                         
     3  2  1.50        -6.8029   0.0000                                         
   Description                                                                  
     l       E           TYP  RCUT    TYP  RCUT                                 
     0    -18.5828119     23  1.200                                             
     0    -13.5018863     23  1.200                                             
     1     -7.0897853     23  1.500                                             
     1      9.5240782     23  1.500                                             
     2     -6.8029130      7  1.500                                             
  local pseudopotential read in
  partial core-charges read in
  partial kinetic energy density read in
  atomic valenz-charges read in
  non local Contribution for L=           0  read in
    real space projection operators read in
  non local Contribution for L=           0  read in
    real space projection operators read in
  non local Contribution for L=           1  read in
    real space projection operators read in
  non local Contribution for L=           1  read in
    real space projection operators read in
    PAW grid and wavefunctions read in
 
   number of l-projection  operators is LMAX  =           4
   number of lm-projection operators is LMMAX =           8
 

 ----------------------------------------------------------------------------- 
|                                                                             |
|  ADVICE TO THIS USER RUNNING 'VASP/VAMP'   (HEAR YOUR MASTER'S VOICE ...):  |
|                                                                             |
|      You have a (more or less) 'small supercell' and for smaller cells      |
|      it is recommended  to use the reciprocal-space projection scheme!      |
|      The real space optimization is not  efficient for small cells and it   |
|      is also less accurate ...                                              |
|      Therefore set LREAL=.FALSE. in the  INCAR file                         |
|                                                                             |
 ----------------------------------------------------------------------------- 

 Optimization of the real space projectors (new method)

 maximal supplied QI-value         = 22.11
 optimisation between [QCUT,QGAM] = [ 11.50, 23.22] = [ 37.02,150.92] Ry 
 Optimized for a Real-space Cutoff    1.08 Angstroem

   l    n(q)    QCUT    max X(q) W(low)/X(q) W(high)/X(q)  e(spline) 
   0      7    11.497    10.506    0.36E-04    0.62E-04    0.14E-07
   0      7    11.497     8.367    0.65E-04    0.14E-03    0.28E-07
   1      7    11.497     8.983    0.21E-03    0.43E-03    0.90E-07
 Optimization of the real space projectors (new method)

 maximal supplied QI-value         = 19.84
 optimisation between [QCUT,QGAM] = [ 11.51, 23.22] = [ 37.09,150.92] Ry 
 Optimized for a Real-space Cutoff    1.21 Angstroem

   l    n(q)    QCUT    max X(q) W(low)/X(q) W(high)/X(q)  e(spline) 
   0      8    11.508   160.924    0.96E-04    0.17E-03    0.52E-07
   0      8    11.508   130.086    0.95E-04    0.17E-03    0.51E-07
   1      8    11.508    74.434    0.16E-03    0.74E-04    0.91E-07
   1      8    11.508    49.120    0.16E-03    0.71E-04    0.89E-07
 Optimization of the real space projectors (new method)

 maximal supplied QI-value         = 25.13
 optimisation between [QCUT,QGAM] = [ 11.56, 23.12] = [ 37.43,149.72] Ry 
 Optimized for a Real-space Cutoff    1.40 Angstroem

   l    n(q)    QCUT    max X(q) W(low)/X(q) W(high)/X(q)  e(spline) 
   0     10    11.561    79.467    0.46E-04    0.78E-04    0.61E-06
   0     10    11.561    66.151    0.45E-04    0.77E-04    0.61E-06
   1      9    11.561    18.886    0.22E-03    0.13E-03    0.12E-05
   1      9    11.561    13.488    0.23E-03    0.13E-03    0.12E-05
  PAW_PBE Li_sv 10Sep2004               :
 energy of atom  1       EATOM= -202.7858
 kinetic energy error for atom=    0.0130 (will be added to EATOM!!)
  PAW_PBE P 06Sep2000                   :
 energy of atom  2       EATOM= -176.0430
 kinetic energy error for atom=    0.0011 (will be added to EATOM!!)
  PAW_PBE N 08Apr2002                   :
 energy of atom  3       EATOM= -264.5486
 kinetic energy error for atom=    0.0125 (will be added to EATOM!!)
 
 
 POSCAR: Li2 P2 N4                               
  positions in direct lattice
  No initial velocities read in
 exchange correlation table for  LEXCH =        8
   RHO(1)=    0.500       N(1)  =     2000
   RHO(2)=  100.500       N(2)  =     4000
 


--------------------------------------------------------------------------------------------------------


 ion  position               nearest neighbor table
   1  0.500  0.500  0.000-   6 2.11   7 2.11   8 2.11   5 2.11
   2  0.250  0.750  0.500-   7 2.11   5 2.11   6 2.11   8 2.11
   3  0.000  0.000  0.000-   5 1.65   6 1.65   7 1.65   8 1.65   4 2.92   4 2.92   4 2.92   4 2.92

   4  0.750  0.250  0.500-   5 1.65   6 1.65   7 1.65   8 1.65   3 2.92   3 2.92   3 2.92   3 2.92

   5  0.375  0.292  0.417-   3 1.65   4 1.65   1 2.11   2 2.11
   6  0.875  0.958  0.583-   3 1.65   4 1.65   2 2.11   1 2.11
   7  0.708  0.125  0.083-   3 1.65   4 1.65   1 2.11   2 2.11
   8  0.042  0.625  0.917-   3 1.65   4 1.65   2 2.11   1 2.11
 
  LATTYP: Found a body centered tetragonal cell.
 ALAT       =     4.5714480000
 C/A-ratio  =     1.5946474727
  
  Lattice vectors:
  
 A1 = (  -2.2857240000,   2.2857240000,   3.6449240000)
 A2 = (   2.2857240000,  -2.2857240000,   3.6449240000)
 A3 = (   2.2857240000,   2.2857240000,  -3.6449240000)


Analysis of symmetry for initial positions (statically):
=====================================================================
 Subroutine PRICEL returns:
 Original cell was already a primitive cell.
 

 Routine SETGRP: Setting up the symmetry group for a 
 body centered tetragonal supercell.


 Subroutine GETGRP returns: Found  8 space group operations
 (whereof  4 operations were pure point group operations)
 out of a pool of 16 trial point group operations.


The static configuration has the point symmetry S_4 .
 The point group associated with its full space group is D_2d.


Analysis of symmetry for dynamics (positions and initial velocities):
=====================================================================
 Subroutine PRICEL returns:
 Original cell was already a primitive cell.
 

 Routine SETGRP: Setting up the symmetry group for a 
 body centered tetragonal supercell.


 Subroutine GETGRP returns: Found  8 space group operations
 (whereof  4 operations were pure point group operations)
 out of a pool of 16 trial point group operations.


The dynamic configuration has the point symmetry S_4 .
 The point group associated with its full space group is D_2d.


Analysis of structural, dynamic, and magnetic symmetry:
=====================================================================
 Subroutine PRICEL returns:
 Original cell was already a primitive cell.
 

 Routine SETGRP: Setting up the symmetry group for a 
 body centered tetragonal supercell.


 Subroutine GETGRP returns: Found  8 space group operations
 (whereof  4 operations were pure point group operations)
 out of a pool of 16 trial point group operations.


The magnetic configuration has the point symmetry S_4 .
 The point group associated with its full space group is D_2d.


 Subroutine INISYM returns: Found  8 space group operations
 (whereof  4 operations are pure point group operations),
 and found     1 'primitive' translations

 
 
 KPOINTS: Fully automatic kpoint scheme           

Automatic generation of k-mesh.
 generate k-points for:    8    8   10
Space group operators:
 irot       det(A)        alpha          n_x          n_y          n_z        tau_x        tau_y        tau_z
    1     1.000000     0.000001     1.000000     0.000000     0.000000     0.000000     0.000000     0.000000
    2    -1.000000    90.000000     0.000000     0.000000    -1.000000     0.000000     0.000000     0.000000
    3     1.000000   180.000000     0.000000     0.000000     1.000000     0.000000     0.000000     0.000000
    4    -1.000000    90.000000     0.000000     0.000000     1.000000     0.000000     0.000000     0.000000
    5     1.000000   180.000000     0.000000     1.000000     0.000000     0.750000     0.250000     0.500000
    6    -1.000000   180.000000     0.707107     0.707107     0.000000     0.750000     0.250000     0.500000
    7     1.000000   180.000000     1.000000     0.000000     0.000000     0.750000     0.250000     0.500000
    8    -1.000000   180.000000     0.707107    -0.707107     0.000000     0.750000     0.250000     0.500000
 
 Subroutine IBZKPT returns following result:
 ===========================================
 
 Found    169 irreducible k-points:
 
 Following reciprocal coordinates:
            Coordinates               Weight
  0.000000  0.000000  0.000000      1.000000
  0.125000  0.000000 -0.000000      4.000000
  0.250000  0.000000 -0.000000      4.000000
  0.375000  0.000000 -0.000000      4.000000
  0.500000  0.000000 -0.000000      4.000000
  0.125000  0.125000 -0.000000      2.000000
  0.250000  0.125000 -0.000000      4.000000
  0.375000  0.125000 -0.000000      8.000000
  0.500000  0.125000 -0.000000      8.000000
 -0.375000  0.125000  0.000000      4.000000
 -0.250000  0.125000  0.000000      4.000000
 -0.125000  0.125000  0.000000      2.000000
  0.250000  0.250000 -0.000000      4.000000
  0.375000  0.250000 -0.000000      4.000000
  0.500000  0.250000 -0.000000      8.000000
 -0.375000  0.250000  0.000000      4.000000
 -0.250000  0.250000  0.000000      2.000000
  0.375000  0.375000 -0.000000      2.000000
  0.500000  0.375000 -0.000000      8.000000
 -0.375000  0.375000  0.000000      2.000000
  0.500000  0.500000 -0.000000      2.000000
  0.000000  0.000000  0.100000      2.000000
  0.125000  0.000000  0.100000      4.000000
  0.250000  0.000000  0.100000      4.000000
  0.375000  0.000000  0.100000      4.000000
  0.500000  0.000000  0.100000      8.000000
 -0.375000 -0.000000  0.100000      4.000000
 -0.250000  0.000000  0.100000      4.000000
 -0.125000  0.000000  0.100000      4.000000
  0.125000  0.125000  0.100000      2.000000
  0.250000  0.125000  0.100000      4.000000
  0.375000  0.125000  0.100000      8.000000
  0.500000  0.125000  0.100000      4.000000
 -0.375000  0.125000  0.100000      4.000000
 -0.250000  0.125000  0.100000      4.000000
 -0.125000  0.125000  0.100000      4.000000
  0.250000  0.250000  0.100000      4.000000
  0.375000  0.250000  0.100000      4.000000
  0.500000  0.250000  0.100000      4.000000
 -0.375000  0.250000  0.100000      4.000000
 -0.250000  0.250000  0.100000      4.000000
 -0.125000  0.250000  0.100000      4.000000
  0.375000  0.375000  0.100000      2.000000
  0.500000  0.375000  0.100000      4.000000
 -0.375000  0.375000  0.100000      4.000000
 -0.250000  0.375000  0.100000      4.000000
 -0.125000  0.375000  0.100000      4.000000
  0.500000  0.500000  0.100000      2.000000
 -0.375000  0.500000  0.100000      4.000000
 -0.250000  0.500000  0.100000      4.000000
 -0.125000  0.500000  0.100000      4.000000
 -0.375000 -0.375000  0.100000      2.000000
 -0.250000 -0.375000  0.100000      4.000000
 -0.125000 -0.375000  0.100000      8.000000
 -0.250000 -0.250000  0.100000      4.000000
 -0.125000 -0.250000  0.100000      4.000000
 -0.125000 -0.125000  0.100000      2.000000
  0.000000  0.000000  0.200000      2.000000
  0.125000  0.000000  0.200000      4.000000
  0.250000  0.000000  0.200000      4.000000
  0.375000  0.000000  0.200000      4.000000
  0.500000  0.000000  0.200000      8.000000
 -0.375000 -0.000000  0.200000      4.000000
 -0.250000  0.000000  0.200000      4.000000
 -0.125000  0.000000  0.200000      4.000000
  0.125000  0.125000  0.200000      2.000000
  0.250000  0.125000  0.200000      4.000000
  0.375000  0.125000  0.200000      8.000000
  0.500000  0.125000  0.200000      4.000000
 -0.375000  0.125000  0.200000      4.000000
 -0.250000  0.125000  0.200000      4.000000
 -0.125000  0.125000  0.200000      4.000000
  0.250000  0.250000  0.200000      4.000000
  0.375000  0.250000  0.200000      4.000000
  0.500000  0.250000  0.200000      4.000000
 -0.375000  0.250000  0.200000      4.000000
 -0.250000  0.250000  0.200000      4.000000
 -0.125000  0.250000  0.200000      4.000000
  0.375000  0.375000  0.200000      2.000000
  0.500000  0.375000  0.200000      4.000000
 -0.375000  0.375000  0.200000      4.000000
 -0.250000  0.375000  0.200000      4.000000
 -0.125000  0.375000  0.200000      4.000000
  0.500000  0.500000  0.200000      2.000000
 -0.375000  0.500000  0.200000      4.000000
 -0.250000  0.500000  0.200000      4.000000
 -0.125000  0.500000  0.200000      4.000000
 -0.375000 -0.375000  0.200000      2.000000
 -0.250000 -0.375000  0.200000      4.000000
 -0.125000 -0.375000  0.200000      8.000000
 -0.250000 -0.250000  0.200000      4.000000
 -0.125000 -0.250000  0.200000      4.000000
 -0.125000 -0.125000  0.200000      2.000000
  0.000000  0.000000  0.300000      2.000000
  0.125000 -0.000000  0.300000      4.000000
  0.250000 -0.000000  0.300000      4.000000
  0.375000  0.000000  0.300000      4.000000
 -0.375000 -0.000000  0.300000      4.000000
 -0.250000  0.000000  0.300000      4.000000
 -0.125000  0.000000  0.300000      4.000000
  0.125000  0.125000  0.300000      2.000000
  0.250000  0.125000  0.300000      4.000000
  0.500000  0.125000  0.300000      4.000000
 -0.375000  0.125000  0.300000      4.000000
 -0.250000  0.125000  0.300000      4.000000
 -0.125000  0.125000  0.300000      4.000000
  0.375000  0.250000  0.300000      4.000000
  0.500000  0.250000  0.300000      4.000000
 -0.375000  0.250000  0.300000      4.000000
 -0.250000  0.250000  0.300000      4.000000
 -0.125000  0.250000  0.300000      4.000000
  0.375000  0.375000  0.300000      2.000000
  0.500000  0.375000  0.300000      4.000000
 -0.375000  0.375000  0.300000      4.000000
 -0.250000  0.375000  0.300000      4.000000
 -0.125000  0.375000  0.300000      4.000000
  0.500000  0.500000  0.300000      2.000000
 -0.375000  0.500000  0.300000      4.000000
 -0.250000  0.500000  0.300000      4.000000
 -0.125000  0.500000  0.300000      4.000000
 -0.375000 -0.375000  0.300000      2.000000
 -0.250000 -0.375000  0.300000      4.000000
 -0.125000 -0.250000  0.300000      4.000000
 -0.125000 -0.125000  0.300000      2.000000
  0.000000  0.000000  0.400000      2.000000
  0.125000  0.000000  0.400000      4.000000
  0.250000  0.000000  0.400000      4.000000
  0.375000  0.000000  0.400000      4.000000
 -0.375000 -0.000000  0.400000      4.000000
 -0.250000  0.000000  0.400000      4.000000
 -0.125000  0.000000  0.400000      4.000000
  0.125000  0.125000  0.400000      2.000000
  0.250000  0.125000  0.400000      4.000000
  0.500000  0.125000  0.400000      4.000000
 -0.375000  0.125000  0.400000      4.000000
 -0.250000  0.125000  0.400000      4.000000
 -0.125000  0.125000  0.400000      4.000000
  0.375000  0.250000  0.400000      4.000000
  0.500000  0.250000  0.400000      4.000000
 -0.375000  0.250000  0.400000      4.000000
 -0.250000  0.250000  0.400000      4.000000
 -0.125000  0.250000  0.400000      4.000000
  0.375000  0.375000  0.400000      2.000000
  0.500000  0.375000  0.400000      4.000000
 -0.375000  0.375000  0.400000      4.000000
 -0.250000  0.375000  0.400000      4.000000
 -0.125000  0.375000  0.400000      4.000000
  0.500000  0.500000  0.400000      2.000000
 -0.375000  0.500000  0.400000      4.000000
 -0.250000  0.500000  0.400000      4.000000
 -0.125000  0.500000  0.400000      4.000000
 -0.375000 -0.375000  0.400000      2.000000
 -0.250000 -0.375000  0.400000      4.000000
 -0.125000 -0.250000  0.400000      4.000000
 -0.125000 -0.125000  0.400000      2.000000
  0.125000  0.125000  0.500000      2.000000
  0.250000  0.125000  0.500000      4.000000
  0.500000  0.125000  0.500000      4.000000
 -0.375000  0.125000  0.500000      4.000000
 -0.250000  0.125000  0.500000      4.000000
 -0.125000  0.125000  0.500000      2.000000
  0.375000  0.250000  0.500000      4.000000
  0.500000  0.250000  0.500000      4.000000
 -0.375000  0.250000  0.500000      4.000000
 -0.250000  0.250000  0.500000      2.000000
  0.375000  0.375000  0.500000      2.000000
  0.500000  0.375000  0.500000      4.000000
 -0.375000  0.375000  0.500000      2.000000
  0.500000  0.500000  0.500000      1.000000
 
 Following cartesian coordinates:
            Coordinates               Weight
  0.000000  0.000000  0.000000      1.000000
  0.000000  0.027344  0.017147      4.000000
  0.000000  0.054687  0.034294      4.000000
  0.000000  0.082031  0.051441      4.000000
  0.000000  0.109375  0.068589      4.000000
  0.027344  0.027344  0.034294      2.000000
  0.027344  0.054687  0.051441      4.000000
  0.027344  0.082031  0.068589      8.000000
  0.027344  0.109375  0.085736      8.000000
  0.027344 -0.082031 -0.034294      4.000000
  0.027344 -0.054687 -0.017147      4.000000
  0.027344 -0.027344  0.000000      2.000000
  0.054687  0.054687  0.068589      4.000000
  0.054687  0.082031  0.085736      4.000000
  0.054687  0.109375  0.102883      8.000000
  0.054687 -0.082031 -0.017147      4.000000
  0.054687 -0.054687  0.000000      2.000000
  0.082031  0.082031  0.102883      2.000000
  0.082031  0.109375  0.120030      8.000000
  0.082031 -0.082031  0.000000      2.000000
  0.109375  0.109375  0.137177      2.000000
  0.021875  0.021875  0.000000      2.000000
  0.021875  0.049219  0.017147      4.000000
  0.021875  0.076562  0.034294      4.000000
  0.021875  0.103906  0.051441      4.000000
  0.021875  0.131249  0.068589      8.000000
  0.021875 -0.060156 -0.051441      4.000000
  0.021875 -0.032812 -0.034294      4.000000
  0.021875 -0.005469 -0.017147      4.000000
  0.049219  0.049219  0.034294      2.000000
  0.049219  0.076562  0.051441      4.000000
  0.049219  0.103906  0.068589      8.000000
  0.049219  0.131249  0.085736      4.000000
  0.049219 -0.060156 -0.034294      4.000000
  0.049219 -0.032812 -0.017147      4.000000
  0.049219 -0.005469  0.000000      4.000000
  0.076562  0.076562  0.068589      4.000000
  0.076562  0.103906  0.085736      4.000000
  0.076562  0.131249  0.102883      4.000000
  0.076562 -0.060156 -0.017147      4.000000
  0.076562 -0.032812  0.000000      4.000000
  0.076562 -0.005469  0.017147      4.000000
  0.103906  0.103906  0.102883      2.000000
  0.103906  0.131249  0.120030      4.000000
  0.103906 -0.060156  0.000000      4.000000
  0.103906 -0.032812  0.017147      4.000000
  0.103906 -0.005469  0.034294      4.000000
  0.131249  0.131249  0.137177      2.000000
  0.131249 -0.060156  0.017147      4.000000
  0.131249 -0.032812  0.034294      4.000000
  0.131249 -0.005469  0.051441      4.000000
 -0.060156 -0.060156 -0.102883      2.000000
 -0.060156 -0.032812 -0.085736      4.000000
 -0.060156 -0.005469 -0.068589      8.000000
 -0.032812 -0.032812 -0.068589      4.000000
 -0.032812 -0.005469 -0.051441      4.000000
 -0.005469 -0.005469 -0.034294      2.000000
  0.043750  0.043750  0.000000      2.000000
  0.043750  0.071093  0.017147      4.000000
  0.043750  0.098437  0.034294      4.000000
  0.043750  0.125781  0.051441      4.000000
  0.043750  0.153124  0.068589      8.000000
  0.043750 -0.038281 -0.051441      4.000000
  0.043750 -0.010937 -0.034294      4.000000
  0.043750  0.016406 -0.017147      4.000000
  0.071093  0.071093  0.034294      2.000000
  0.071093  0.098437  0.051441      4.000000
  0.071093  0.125781  0.068589      8.000000
  0.071093  0.153124  0.085736      4.000000
  0.071093 -0.038281 -0.034294      4.000000
  0.071093 -0.010937 -0.017147      4.000000
  0.071093  0.016406  0.000000      4.000000
  0.098437  0.098437  0.068589      4.000000
  0.098437  0.125781  0.085736      4.000000
  0.098437  0.153124  0.102883      4.000000
  0.098437 -0.038281 -0.017147      4.000000
  0.098437 -0.010937  0.000000      4.000000
  0.098437  0.016406  0.017147      4.000000
  0.125781  0.125781  0.102883      2.000000
  0.125781  0.153124  0.120030      4.000000
  0.125781 -0.038281  0.000000      4.000000
  0.125781 -0.010937  0.017147      4.000000
  0.125781  0.016406  0.034294      4.000000
  0.153124  0.153124  0.137177      2.000000
  0.153124 -0.038281  0.017147      4.000000
  0.153124 -0.010937  0.034294      4.000000
  0.153124  0.016406  0.051441      4.000000
 -0.038281 -0.038281 -0.102883      2.000000
 -0.038281 -0.010937 -0.085736      4.000000
 -0.038281  0.016406 -0.068589      8.000000
 -0.010937 -0.010937 -0.068589      4.000000
 -0.010937  0.016406 -0.051441      4.000000
  0.016406  0.016406 -0.034294      2.000000
  0.065625  0.065625  0.000000      2.000000
  0.065625  0.092968  0.017147      4.000000
  0.065625  0.120312  0.034294      4.000000
  0.065625  0.147656  0.051441      4.000000
  0.065625 -0.016406 -0.051441      4.000000
  0.065625  0.010937 -0.034294      4.000000
  0.065625  0.038281 -0.017147      4.000000
  0.092968  0.092968  0.034294      2.000000
  0.092968  0.120312  0.051441      4.000000
  0.092968  0.174999  0.085736      4.000000
  0.092968 -0.016406 -0.034294      4.000000
  0.092968  0.010937 -0.017147      4.000000
  0.092968  0.038281  0.000000      4.000000
  0.120312  0.147656  0.085736      4.000000
  0.120312  0.174999  0.102883      4.000000
  0.120312 -0.016406 -0.017147      4.000000
  0.120312  0.010937  0.000000      4.000000
  0.120312  0.038281  0.017147      4.000000
  0.147656  0.147656  0.102883      2.000000
  0.147656  0.174999  0.120030      4.000000
  0.147656 -0.016406  0.000000      4.000000
  0.147656  0.010937  0.017147      4.000000
  0.147656  0.038281  0.034294      4.000000
  0.174999  0.174999  0.137177      2.000000
  0.174999 -0.016406  0.017147      4.000000
  0.174999  0.010937  0.034294      4.000000
  0.174999  0.038281  0.051441      4.000000
 -0.016406 -0.016406 -0.102883      2.000000
 -0.016406  0.010937 -0.085736      4.000000
  0.010937  0.038281 -0.051441      4.000000
  0.038281  0.038281 -0.034294      2.000000
  0.087500  0.087500  0.000000      2.000000
  0.087500  0.114843  0.017147      4.000000
  0.087500  0.142187  0.034294      4.000000
  0.087500  0.169531  0.051441      4.000000
  0.087500  0.005469 -0.051441      4.000000
  0.087500  0.032812 -0.034294      4.000000
  0.087500  0.060156 -0.017147      4.000000
  0.114843  0.114843  0.034294      2.000000
  0.114843  0.142187  0.051441      4.000000
  0.114843  0.196874  0.085736      4.000000
  0.114843  0.005469 -0.034294      4.000000
  0.114843  0.032812 -0.017147      4.000000
  0.114843  0.060156  0.000000      4.000000
  0.142187  0.169531  0.085736      4.000000
  0.142187  0.196874  0.102883      4.000000
  0.142187  0.005469 -0.017147      4.000000
  0.142187  0.032812  0.000000      4.000000
  0.142187  0.060156  0.017147      4.000000
  0.169531  0.169531  0.102883      2.000000
  0.169531  0.196874  0.120030      4.000000
  0.169531  0.005469  0.000000      4.000000
  0.169531  0.032812  0.017147      4.000000
  0.169531  0.060156  0.034294      4.000000
  0.196874  0.196874  0.137177      2.000000
  0.196874  0.005469  0.017147      4.000000
  0.196874  0.032812  0.034294      4.000000
  0.196874  0.060156  0.051441      4.000000
  0.005469  0.005469 -0.102883      2.000000
  0.005469  0.032812 -0.085736      4.000000
  0.032812  0.060156 -0.051441      4.000000
  0.060156  0.060156 -0.034294      2.000000
  0.136718  0.136718  0.034294      2.000000
  0.136718  0.164062  0.051441      4.000000
  0.136718  0.218749  0.085736      4.000000
  0.136718  0.027344 -0.034294      4.000000
  0.136718  0.054687 -0.017147      4.000000
  0.136718  0.082031  0.000000      2.000000
  0.164062  0.191405  0.085736      4.000000
  0.164062  0.218749  0.102883      4.000000
  0.164062  0.027344 -0.017147      4.000000
  0.164062  0.054687  0.000000      2.000000
  0.191405  0.191405  0.102883      2.000000
  0.191405  0.218749  0.120030      4.000000
  0.191405  0.027344  0.000000      2.000000
  0.218749  0.218749  0.137177      1.000000
 
 TETIRR: Found    959 inequivalent tetrahedra from     3840


--------------------------------------------------------------------------------------------------------




 Dimension of arrays:
   k-points           NKPTS =    169   k-points in BZ     NKDIM =    169   number of bands    NBANDS=     24
   number of dos      NEDOS =    301   number of ions     NIONS =      8
   non local maximal  LDIM  =      4   non local SUM 2l+1 LMDIM =      8
   total plane-waves  NPLWV =  46656
   max r-space proj   IRMAX =   7145   max aug-charges    IRDMAX=  18837
   dimension x,y,z NGX =    36 NGY =   36 NGZ =   36
   dimension x,y,z NGXF=    72 NGYF=   72 NGZF=   72
   support grid    NGXF=    72 NGYF=   72 NGZF=   72
   ions per type =               2   2   4
   NGX,Y,Z   is equivalent  to a cutoff of  12.28, 12.28, 12.28 a.u.
   NGXF,Y,Z  is equivalent  to a cutoff of  24.57, 24.57, 24.57 a.u.

 SYSTEM =  unknown system                          
 POSCAR =  Li2 P2 N4                               

 Startparameter for this run:
   NWRITE =      2    write-flag & timer
   PREC   = accura    normal or accurate (medium, high low for compatibility)
   ISTART =      0    job   : 0-new  1-cont  2-samecut
   ICHARG =      2    charge: 1-file 2-atom 10-const
   ISPIN  =      2    spin polarized calculation?
   LNONCOLLINEAR =      F non collinear calculations
   LSORBIT =      F    spin-orbit coupling
   INIWAV =      1    electr: 0-lowe 1-rand  2-diag
   LASPH  =      T    aspherical Exc in radial PAW
   METAGGA=      F    non-selfconsistent MetaGGA calc.

 Electronic Relaxation 1
   ENCUT  =  520.0 eV  38.22 Ry    6.18 a.u.   9.06  9.06  9.06*2*pi/ulx,y,z
   ENINI  =  520.0     initial cutoff
   ENAUG  =  628.9 eV  augmentation charge cutoff
   NELM   =    100;   NELMIN=  2; NELMDL= -5     # of ELM steps 
   EDIFF  = 0.1E-04   stopping-criterion for ELM
   LREAL  =      T    real-space projection
   NLSPLINE    = F    spline interpolate recip. space projectors
   LCOMPAT=      F    compatible to vasp.4.4
   GGA_COMPAT  = T    GGA compatible to vasp.4.4-vasp.4.6
   LMAXPAW     = -100 max onsite density
   LMAXMIX     =    2 max onsite mixed and CHGCAR
   VOSKOWN=      0    Vosko Wilk Nusair interpolation
   ROPT   =   -0.00025  -0.00025  -0.00025
 Ionic relaxation
   EDIFFG = 0.1E-03   stopping-criterion for IOM
   NSW    =     99    number of steps for IOM
   NBLOCK =      1;   KBLOCK =     99    inner block; outer block 
   IBRION =      2    ionic relax: 0-MD 1-quasi-New 2-CG
   NFREE  =      1    steps in history (QN), initial steepest desc. (CG)
   ISIF   =      3    stress and relaxation
   IWAVPR =     11    prediction:  0-non 1-charg 2-wave 3-comb
   ISYM   =      2    0-nonsym 1-usesym 2-fastsym
   LCORR  =      T    Harris-Foulkes like correction to forces

   POTIM  = 0.5000    time-step for ionic-motion
   TEIN   =    0.0    initial temperature
   TEBEG  =    0.0;   TEEND  =   0.0 temperature during run
   SMASS  =  -3.00    Nose mass-parameter (am)
   estimated Nose-frequenzy (Omega)   =  0.10E-29 period in steps =****** mass=  -0.542E-27a.u.
   SCALEE = 1.0000    scale energy and forces
   NPACO  =    256;   APACO  = 16.0  distance and # of slots for P.C.
   PSTRESS=    0.0 pullay stress

  Mass of Ions in am
   POMASS =   7.01 30.97 14.00
  Ionic Valenz
   ZVAL   =   3.00  5.00  5.00
  Atomic Wigner-Seitz radii
   RWIGS  =  -1.00 -1.00 -1.00
  virtual crystal weights 
   VCA    =   1.00  1.00  1.00
   NELECT =      36.0000    total number of electrons
   NUPDOWN=      -1.0000    fix difference up-down

 DOS related values:
   EMIN   =  10.00;   EMAX   =-10.00  energy-range for DOS
   EFERMI =   0.00
   ISMEAR =    -5;   SIGMA  =   0.05  broadening in eV -4-tet -1-fermi 0-gaus

 Electronic relaxation 2 (details)
   IALGO  =     68    algorithm
   LDIAG  =      T    sub-space diagonalisation (order eigenvalues)
   LSUBROT=      F    optimize rotation matrix (better conditioning)
   TURBO    =      0    0=normal 1=particle mesh
   IRESTART =      0    0=no restart 2=restart with 2 vectors
   NREBOOT  =      0    no. of reboots
   NMIN     =      0    reboot dimension
   EREF     =   0.00    reference energy to select bands
   IMIX   =      4    mixing-type and parameters
     AMIX     =   0.40;   BMIX     =  1.00
     AMIX_MAG =   1.60;   BMIX_MAG =  1.00
     AMIN     =   0.10
     WC   =   100.;   INIMIX=   1;  MIXPRE=   1;  MAXMIX= -45

 Intra band minimization:
   WEIMIN = 0.0010     energy-eigenvalue tresh-hold
   EBREAK =  0.10E-06  absolut break condition
   DEPER  =   0.30     relativ break condition  

   TIME   =   0.40     timestep for ELM

  volume/ion in A,a.u.               =       9.52        64.25
  Fermi-wavevector in a.u.,A,eV,Ry     =   1.275196  2.409771 22.124776  1.626125
  Thomas-Fermi vector in A             =   2.407922
 
 Write flags
   LWAVE        =      F    write WAVECAR
   LDOWNSAMPLE  =      F    k-point downsampling of WAVECAR
   LCHARG       =      F    write CHGCAR
   LVTOT        =      F    write LOCPOT, total local potential
   LVHAR        =      F    write LOCPOT, Hartree potential only
   LELF         =      F    write electronic localiz. function (ELF)
   LORBIT       =     11    0 simple, 1 ext, 2 COOP (PROOUT), +10 PAW based schemes


 Dipole corrections
   LMONO  =      F    monopole corrections only (constant potential shift)
   LDIPOL =      F    correct potential (dipole corrections)
   IDIPOL =      0    1-x, 2-y, 3-z, 4-all directions 
   EPSILON=  1.0000000 bulk dielectric constant

 Exchange correlation treatment:
   GGA     =    --    GGA type
   LEXCH   =     8    internal setting for exchange type
   VOSKOWN=      0    Vosko Wilk Nusair interpolation
   LHFCALC =     F    Hartree Fock is set to
   LHFONE  =     F    Hartree Fock one center treatment
   AEXX    =    0.0000 exact exchange contribution

 Linear response parameters
   LEPSILON=     F    determine dielectric tensor
   LRPA    =     F    only Hartree local field effects (RPA)
   LNABLA  =     F    use nabla operator in PAW spheres
   LVEL    =     F    velocity operator in full k-point grid
   LINTERFAST=   F  fast interpolation
   KINTER  =     0    interpolate to denser k-point grid
   CSHIFT  =0.1000    complex shift for real part using Kramers Kronig
   OMEGAMAX=  -1.0    maximum frequency
   DEG_THRESHOLD= 0.2000000E-02 threshold for treating states as degnerate
   RTIME   =   -0.100 relaxation time in fs
  (WPLASMAI=    0.000 imaginary part of plasma frequency in eV, 0.658/RTIME)
   DFIELD  = 0.0000000 0.0000000 0.0000000 field for delta impulse in time
 
 Orbital magnetization related:
   ORBITALMAG=     F  switch on orbital magnetization
   LCHIMAG   =     F  perturbation theory with respect to B field
   DQ        =  0.001000  dq finite difference perturbation B field
   LLRAUG    =     F  two centre corrections for induced B field



--------------------------------------------------------------------------------------------------------


 conjugate gradient relaxation of ions
 charge density and potential will be updated during run
 spin polarized calculation
 RMM-DIIS sequential band-by-band and
  variant of blocked Davidson during initial phase
 perform sub-space diagonalisation
    before iterative eigenvector-optimisation
 modified Broyden-mixing scheme, WC =      100.0
 initial mixing is a Kerker type mixing with AMIX =  0.4000 and BMIX =      1.0000
 Hartree-type preconditioning will be used
 using additional bands            6
 real space projection scheme for non local part
 use partial core corrections
 calculate Harris-corrections to forces 
   (improved forces if not selfconsistent)
 use gradient corrections 
 use of overlap-Matrix (Vanderbilt PP)
 Fermi weights with tetrahedron method with Bloechl corrections


--------------------------------------------------------------------------------------------------------


  energy-cutoff  :      520.00
  volume of cell :       76.17
      direct lattice vectors                 reciprocal lattice vectors
    -2.285724000  2.285724000  3.644924000     0.000000000  0.218749070  0.137177071
     2.285724000 -2.285724000  3.644924000     0.218749070  0.000000000  0.137177071
     2.285724000  2.285724000 -3.644924000     0.218749070  0.218749070  0.000000000

  length of vectors
     4.871810687  4.871810687  4.871810687     0.258202836  0.258202836  0.309357902


 
 k-points in units of 2pi/SCALE and weight: Fully automatic kpoint scheme           
   0.00000000  0.00000000  0.00000000       0.002
   0.00000000  0.02734363  0.01714713       0.006
   0.00000000  0.05468727  0.03429427       0.006
   0.00000000  0.08203090  0.05144140       0.006
   0.00000000  0.10937454  0.06858854       0.006
   0.02734363  0.02734363  0.03429427       0.003
   0.02734363  0.05468727  0.05144140       0.006
   0.02734363  0.08203090  0.06858854       0.013
   0.02734363  0.10937454  0.08573567       0.013
   0.02734363 -0.08203090 -0.03429427       0.006
   0.02734363 -0.05468727 -0.01714713       0.006
   0.02734363 -0.02734363  0.00000000       0.003
   0.05468727  0.05468727  0.06858854       0.006
   0.05468727  0.08203090  0.08573567       0.006
   0.05468727  0.10937454  0.10288280       0.013
   0.05468727 -0.08203090 -0.01714713       0.006
   0.05468727 -0.05468727  0.00000000       0.003
   0.08203090  0.08203090  0.10288280       0.003
   0.08203090  0.10937454  0.12002994       0.013
   0.08203090 -0.08203090  0.00000000       0.003
   0.10937454  0.10937454  0.13717707       0.003
   0.02187491  0.02187491  0.00000000       0.003
   0.02187491  0.04921854  0.01714713       0.006
   0.02187491  0.07656217  0.03429427       0.006
   0.02187491  0.10390581  0.05144140       0.006
   0.02187491  0.13124944  0.06858854       0.013
   0.02187491 -0.06015599 -0.05144140       0.006
   0.02187491 -0.03281236 -0.03429427       0.006
   0.02187491 -0.00546873 -0.01714713       0.006
   0.04921854  0.04921854  0.03429427       0.003
   0.04921854  0.07656217  0.05144140       0.006
   0.04921854  0.10390581  0.06858854       0.013
   0.04921854  0.13124944  0.08573567       0.006
   0.04921854 -0.06015599 -0.03429427       0.006
   0.04921854 -0.03281236 -0.01714713       0.006
   0.04921854 -0.00546873  0.00000000       0.006
   0.07656217  0.07656217  0.06858854       0.006
   0.07656217  0.10390581  0.08573567       0.006
   0.07656217  0.13124944  0.10288280       0.006
   0.07656217 -0.06015599 -0.01714713       0.006
   0.07656217 -0.03281236  0.00000000       0.006
   0.07656217 -0.00546873  0.01714713       0.006
   0.10390581  0.10390581  0.10288280       0.003
   0.10390581  0.13124944  0.12002994       0.006
   0.10390581 -0.06015599  0.00000000       0.006
   0.10390581 -0.03281236  0.01714713       0.006
   0.10390581 -0.00546873  0.03429427       0.006
   0.13124944  0.13124944  0.13717707       0.003
   0.13124944 -0.06015599  0.01714713       0.006
   0.13124944 -0.03281236  0.03429427       0.006
   0.13124944 -0.00546873  0.05144140       0.006
  -0.06015599 -0.06015599 -0.10288280       0.003
  -0.06015599 -0.03281236 -0.08573567       0.006
  -0.06015599 -0.00546873 -0.06858854       0.013
  -0.03281236 -0.03281236 -0.06858854       0.006
  -0.03281236 -0.00546873 -0.05144140       0.006
  -0.00546873 -0.00546873 -0.03429427       0.003
   0.04374981  0.04374981  0.00000000       0.003
   0.04374981  0.07109345  0.01714713       0.006
   0.04374981  0.09843708  0.03429427       0.006
   0.04374981  0.12578072  0.05144140       0.006
   0.04374981  0.15312435  0.06858854       0.013
   0.04374981 -0.03828109 -0.05144140       0.006
   0.04374981 -0.01093745 -0.03429427       0.006
   0.04374981  0.01640618 -0.01714713       0.006
   0.07109345  0.07109345  0.03429427       0.003
   0.07109345  0.09843708  0.05144140       0.006
   0.07109345  0.12578072  0.06858854       0.013
   0.07109345  0.15312435  0.08573567       0.006
   0.07109345 -0.03828109 -0.03429427       0.006
   0.07109345 -0.01093745 -0.01714713       0.006
   0.07109345  0.01640618  0.00000000       0.006
   0.09843708  0.09843708  0.06858854       0.006
   0.09843708  0.12578072  0.08573567       0.006
   0.09843708  0.15312435  0.10288280       0.006
   0.09843708 -0.03828109 -0.01714713       0.006
   0.09843708 -0.01093745  0.00000000       0.006
   0.09843708  0.01640618  0.01714713       0.006
   0.12578072  0.12578072  0.10288280       0.003
   0.12578072  0.15312435  0.12002994       0.006
   0.12578072 -0.03828109  0.00000000       0.006
   0.12578072 -0.01093745  0.01714713       0.006
   0.12578072  0.01640618  0.03429427       0.006
   0.15312435  0.15312435  0.13717707       0.003
   0.15312435 -0.03828109  0.01714713       0.006
   0.15312435 -0.01093745  0.03429427       0.006
   0.15312435  0.01640618  0.05144140       0.006
  -0.03828109 -0.03828109 -0.10288280       0.003
  -0.03828109 -0.01093745 -0.08573567       0.006
  -0.03828109  0.01640618 -0.06858854       0.013
  -0.01093745 -0.01093745 -0.06858854       0.006
  -0.01093745  0.01640618 -0.05144140       0.006
   0.01640618  0.01640618 -0.03429427       0.003
   0.06562472  0.06562472  0.00000000       0.003
   0.06562472  0.09296835  0.01714713       0.006
   0.06562472  0.12031199  0.03429427       0.006
   0.06562472  0.14765562  0.05144140       0.006
   0.06562472 -0.01640618 -0.05144140       0.006
   0.06562472  0.01093745 -0.03429427       0.006
   0.06562472  0.03828109 -0.01714713       0.006
   0.09296835  0.09296835  0.03429427       0.003
   0.09296835  0.12031199  0.05144140       0.006
   0.09296835  0.17499926  0.08573567       0.006
   0.09296835 -0.01640618 -0.03429427       0.006
   0.09296835  0.01093745 -0.01714713       0.006
   0.09296835  0.03828109  0.00000000       0.006
   0.12031199  0.14765562  0.08573567       0.006
   0.12031199  0.17499926  0.10288280       0.006
   0.12031199 -0.01640618 -0.01714713       0.006
   0.12031199  0.01093745  0.00000000       0.006
   0.12031199  0.03828109  0.01714713       0.006
   0.14765562  0.14765562  0.10288280       0.003
   0.14765562  0.17499926  0.12002994       0.006
   0.14765562 -0.01640618  0.00000000       0.006
   0.14765562  0.01093745  0.01714713       0.006
   0.14765562  0.03828109  0.03429427       0.006
   0.17499926  0.17499926  0.13717707       0.003
   0.17499926 -0.01640618  0.01714713       0.006
   0.17499926  0.01093745  0.03429427       0.006
   0.17499926  0.03828109  0.05144140       0.006
  -0.01640618 -0.01640618 -0.10288280       0.003
  -0.01640618  0.01093745 -0.08573567       0.006
   0.01093745  0.03828109 -0.05144140       0.006
   0.03828109  0.03828109 -0.03429427       0.003
   0.08749963  0.08749963  0.00000000       0.003
   0.08749963  0.11484326  0.01714713       0.006
   0.08749963  0.14218690  0.03429427       0.006
   0.08749963  0.16953053  0.05144140       0.006
   0.08749963  0.00546873 -0.05144140       0.006
   0.08749963  0.03281236 -0.03429427       0.006
   0.08749963  0.06015599 -0.01714713       0.006
   0.11484326  0.11484326  0.03429427       0.003
   0.11484326  0.14218690  0.05144140       0.006
   0.11484326  0.19687416  0.08573567       0.006
   0.11484326  0.00546873 -0.03429427       0.006
   0.11484326  0.03281236 -0.01714713       0.006
   0.11484326  0.06015599  0.00000000       0.006
   0.14218690  0.16953053  0.08573567       0.006
   0.14218690  0.19687416  0.10288280       0.006
   0.14218690  0.00546873 -0.01714713       0.006
   0.14218690  0.03281236  0.00000000       0.006
   0.14218690  0.06015599  0.01714713       0.006
   0.16953053  0.16953053  0.10288280       0.003
   0.16953053  0.19687416  0.12002994       0.006
   0.16953053  0.00546873  0.00000000       0.006
   0.16953053  0.03281236  0.01714713       0.006
   0.16953053  0.06015599  0.03429427       0.006
   0.19687416  0.19687416  0.13717707       0.003
   0.19687416  0.00546873  0.01714713       0.006
   0.19687416  0.03281236  0.03429427       0.006
   0.19687416  0.06015599  0.05144140       0.006
   0.00546873  0.00546873 -0.10288280       0.003
   0.00546873  0.03281236 -0.08573567       0.006
   0.03281236  0.06015599 -0.05144140       0.006
   0.06015599  0.06015599 -0.03429427       0.003
   0.13671817  0.13671817  0.03429427       0.003
   0.13671817  0.16406180  0.05144140       0.006
   0.13671817  0.21874907  0.08573567       0.006
   0.13671817  0.02734363 -0.03429427       0.006
   0.13671817  0.05468727 -0.01714713       0.006
   0.13671817  0.08203090  0.00000000       0.003
   0.16406180  0.19140544  0.08573567       0.006
   0.16406180  0.21874907  0.10288280       0.006
   0.16406180  0.02734363 -0.01714713       0.006
   0.16406180  0.05468727  0.00000000       0.003
   0.19140544  0.19140544  0.10288280       0.003
   0.19140544  0.21874907  0.12002994       0.006
   0.19140544  0.02734363  0.00000000       0.003
   0.21874907  0.21874907  0.13717707       0.002
 
 k-points in reciprocal lattice and weights: Fully automatic kpoint scheme           
   0.00000000  0.00000000  0.00000000       0.002
   0.12500000  0.00000000 -0.00000000       0.006
   0.25000000  0.00000000 -0.00000000       0.006
   0.37500000  0.00000000 -0.00000000       0.006
   0.50000000  0.00000000 -0.00000000       0.006
   0.12500000  0.12500000 -0.00000000       0.003
   0.25000000  0.12500000 -0.00000000       0.006
   0.37500000  0.12500000 -0.00000000       0.013
   0.50000000  0.12500000 -0.00000000       0.013
  -0.37500000  0.12500000  0.00000000       0.006
  -0.25000000  0.12500000  0.00000000       0.006
  -0.12500000  0.12500000  0.00000000       0.003
   0.25000000  0.25000000 -0.00000000       0.006
   0.37500000  0.25000000 -0.00000000       0.006
   0.50000000  0.25000000 -0.00000000       0.013
  -0.37500000  0.25000000  0.00000000       0.006
  -0.25000000  0.25000000  0.00000000       0.003
   0.37500000  0.37500000 -0.00000000       0.003
   0.50000000  0.37500000 -0.00000000       0.013
  -0.37500000  0.37500000  0.00000000       0.003
   0.50000000  0.50000000 -0.00000000       0.003
   0.00000000  0.00000000  0.10000000       0.003
   0.12500000  0.00000000  0.10000000       0.006
   0.25000000  0.00000000  0.10000000       0.006
   0.37500000  0.00000000  0.10000000       0.006
   0.50000000  0.00000000  0.10000000       0.013
  -0.37500000 -0.00000000  0.10000000       0.006
  -0.25000000  0.00000000  0.10000000       0.006
  -0.12500000  0.00000000  0.10000000       0.006
   0.12500000  0.12500000  0.10000000       0.003
   0.25000000  0.12500000  0.10000000       0.006
   0.37500000  0.12500000  0.10000000       0.013
   0.50000000  0.12500000  0.10000000       0.006
  -0.37500000  0.12500000  0.10000000       0.006
  -0.25000000  0.12500000  0.10000000       0.006
  -0.12500000  0.12500000  0.10000000       0.006
   0.25000000  0.25000000  0.10000000       0.006
   0.37500000  0.25000000  0.10000000       0.006
   0.50000000  0.25000000  0.10000000       0.006
  -0.37500000  0.25000000  0.10000000       0.006
  -0.25000000  0.25000000  0.10000000       0.006
  -0.12500000  0.25000000  0.10000000       0.006
   0.37500000  0.37500000  0.10000000       0.003
   0.50000000  0.37500000  0.10000000       0.006
  -0.37500000  0.37500000  0.10000000       0.006
  -0.25000000  0.37500000  0.10000000       0.006
  -0.12500000  0.37500000  0.10000000       0.006
   0.50000000  0.50000000  0.10000000       0.003
  -0.37500000  0.50000000  0.10000000       0.006
  -0.25000000  0.50000000  0.10000000       0.006
  -0.12500000  0.50000000  0.10000000       0.006
  -0.37500000 -0.37500000  0.10000000       0.003
  -0.25000000 -0.37500000  0.10000000       0.006
  -0.12500000 -0.37500000  0.10000000       0.013
  -0.25000000 -0.25000000  0.10000000       0.006
  -0.12500000 -0.25000000  0.10000000       0.006
  -0.12500000 -0.12500000  0.10000000       0.003
   0.00000000  0.00000000  0.20000000       0.003
   0.12500000  0.00000000  0.20000000       0.006
   0.25000000  0.00000000  0.20000000       0.006
   0.37500000  0.00000000  0.20000000       0.006
   0.50000000  0.00000000  0.20000000       0.013
  -0.37500000 -0.00000000  0.20000000       0.006
  -0.25000000  0.00000000  0.20000000       0.006
  -0.12500000  0.00000000  0.20000000       0.006
   0.12500000  0.12500000  0.20000000       0.003
   0.25000000  0.12500000  0.20000000       0.006
   0.37500000  0.12500000  0.20000000       0.013
   0.50000000  0.12500000  0.20000000       0.006
  -0.37500000  0.12500000  0.20000000       0.006
  -0.25000000  0.12500000  0.20000000       0.006
  -0.12500000  0.12500000  0.20000000       0.006
   0.25000000  0.25000000  0.20000000       0.006
   0.37500000  0.25000000  0.20000000       0.006
   0.50000000  0.25000000  0.20000000       0.006
  -0.37500000  0.25000000  0.20000000       0.006
  -0.25000000  0.25000000  0.20000000       0.006
  -0.12500000  0.25000000  0.20000000       0.006
   0.37500000  0.37500000  0.20000000       0.003
   0.50000000  0.37500000  0.20000000       0.006
  -0.37500000  0.37500000  0.20000000       0.006
  -0.25000000  0.37500000  0.20000000       0.006
  -0.12500000  0.37500000  0.20000000       0.006
   0.50000000  0.50000000  0.20000000       0.003
  -0.37500000  0.50000000  0.20000000       0.006
  -0.25000000  0.50000000  0.20000000       0.006
  -0.12500000  0.50000000  0.20000000       0.006
  -0.37500000 -0.37500000  0.20000000       0.003
  -0.25000000 -0.37500000  0.20000000       0.006
  -0.12500000 -0.37500000  0.20000000       0.013
  -0.25000000 -0.25000000  0.20000000       0.006
  -0.12500000 -0.25000000  0.20000000       0.006
  -0.12500000 -0.12500000  0.20000000       0.003
   0.00000000  0.00000000  0.30000000       0.003
   0.12500000 -0.00000000  0.30000000       0.006
   0.25000000 -0.00000000  0.30000000       0.006
   0.37500000  0.00000000  0.30000000       0.006
  -0.37500000 -0.00000000  0.30000000       0.006
  -0.25000000  0.00000000  0.30000000       0.006
  -0.12500000  0.00000000  0.30000000       0.006
   0.12500000  0.12500000  0.30000000       0.003
   0.25000000  0.12500000  0.30000000       0.006
   0.50000000  0.12500000  0.30000000       0.006
  -0.37500000  0.12500000  0.30000000       0.006
  -0.25000000  0.12500000  0.30000000       0.006
  -0.12500000  0.12500000  0.30000000       0.006
   0.37500000  0.25000000  0.30000000       0.006
   0.50000000  0.25000000  0.30000000       0.006
  -0.37500000  0.25000000  0.30000000       0.006
  -0.25000000  0.25000000  0.30000000       0.006
  -0.12500000  0.25000000  0.30000000       0.006
   0.37500000  0.37500000  0.30000000       0.003
   0.50000000  0.37500000  0.30000000       0.006
  -0.37500000  0.37500000  0.30000000       0.006
  -0.25000000  0.37500000  0.30000000       0.006
  -0.12500000  0.37500000  0.30000000       0.006
   0.50000000  0.50000000  0.30000000       0.003
  -0.37500000  0.50000000  0.30000000       0.006
  -0.25000000  0.50000000  0.30000000       0.006
  -0.12500000  0.50000000  0.30000000       0.006
  -0.37500000 -0.37500000  0.30000000       0.003
  -0.25000000 -0.37500000  0.30000000       0.006
  -0.12500000 -0.25000000  0.30000000       0.006
  -0.12500000 -0.12500000  0.30000000       0.003
   0.00000000  0.00000000  0.40000000       0.003
   0.12500000  0.00000000  0.40000000       0.006
   0.25000000  0.00000000  0.40000000       0.006
   0.37500000  0.00000000  0.40000000       0.006
  -0.37500000 -0.00000000  0.40000000       0.006
  -0.25000000  0.00000000  0.40000000       0.006
  -0.12500000  0.00000000  0.40000000       0.006
   0.12500000  0.12500000  0.40000000       0.003
   0.25000000  0.12500000  0.40000000       0.006
   0.50000000  0.12500000  0.40000000       0.006
  -0.37500000  0.12500000  0.40000000       0.006
  -0.25000000  0.12500000  0.40000000       0.006
  -0.12500000  0.12500000  0.40000000       0.006
   0.37500000  0.25000000  0.40000000       0.006
   0.50000000  0.25000000  0.40000000       0.006
  -0.37500000  0.25000000  0.40000000       0.006
  -0.25000000  0.25000000  0.40000000       0.006
  -0.12500000  0.25000000  0.40000000       0.006
   0.37500000  0.37500000  0.40000000       0.003
   0.50000000  0.37500000  0.40000000       0.006
  -0.37500000  0.37500000  0.40000000       0.006
  -0.25000000  0.37500000  0.40000000       0.006
  -0.12500000  0.37500000  0.40000000       0.006
   0.50000000  0.50000000  0.40000000       0.003
  -0.37500000  0.50000000  0.40000000       0.006
  -0.25000000  0.50000000  0.40000000       0.006
  -0.12500000  0.50000000  0.40000000       0.006
  -0.37500000 -0.37500000  0.40000000       0.003
  -0.25000000 -0.37500000  0.40000000       0.006
  -0.12500000 -0.25000000  0.40000000       0.006
  -0.12500000 -0.12500000  0.40000000       0.003
   0.12500000  0.12500000  0.50000000       0.003
   0.25000000  0.12500000  0.50000000       0.006
   0.50000000  0.12500000  0.50000000       0.006
  -0.37500000  0.12500000  0.50000000       0.006
  -0.25000000  0.12500000  0.50000000       0.006
  -0.12500000  0.12500000  0.50000000       0.003
   0.37500000  0.25000000  0.50000000       0.006
   0.50000000  0.25000000  0.50000000       0.006
  -0.37500000  0.25000000  0.50000000       0.006
  -0.25000000  0.25000000  0.50000000       0.003
   0.37500000  0.37500000  0.50000000       0.003
   0.50000000  0.37500000  0.50000000       0.006
  -0.37500000  0.37500000  0.50000000       0.003
   0.50000000  0.50000000  0.50000000       0.002
 
 position of ions in fractional coordinates (direct lattice) 
   0.50000000  0.50000000  0.00000000
   0.25000000  0.75000000  0.50000000
   0.00000000  0.00000000  0.00000000
   0.75000000  0.25000000  0.50000000
   0.37500000  0.29200300  0.41700300
   0.87500000  0.95799700  0.58299700
   0.70799700  0.12500000  0.08299700
   0.04200300  0.62500000  0.91700300
 
 position of ions in cartesian coordinates  (Angst):
   0.00000000  0.00000000  3.64492400
   2.28572400  0.00000000  1.82246200
   0.00000000  0.00000000  0.00000000
   0.00000000  2.28572400  1.82246200
   0.76344553  1.14286200  0.91123100
   1.52227847  1.14286200  4.55615500
  -1.14286200  1.52227847  2.73369300
   3.42858600  0.76344553 -0.91123100
 


--------------------------------------------------------------------------------------------------------


 k-point  1 :   0.0000 0.0000 0.0000  plane waves:    2013
 k-point  2 :   0.1250 0.0000-0.0000  plane waves:    2022
 k-point  3 :   0.2500 0.0000-0.0000  plane waves:    2046
 k-point  4 :   0.3750 0.0000-0.0000  plane waves:    2058
 k-point  5 :   0.5000 0.0000-0.0000  plane waves:    2048
 k-point  6 :   0.1250 0.1250-0.0000  plane waves:    2051
 k-point  7 :   0.2500 0.1250-0.0000  plane waves:    2059
 k-point  8 :   0.3750 0.1250-0.0000  plane waves:    2044
 k-point  9 :   0.5000 0.1250-0.0000  plane waves:    2041
 k-point 10 :  -0.3750 0.1250 0.0000  plane waves:    2061
 k-point 11 :  -0.2500 0.1250 0.0000  plane waves:    2042
 k-point 12 :  -0.1250 0.1250 0.0000  plane waves:    2042
 k-point 13 :   0.2500 0.2500-0.0000  plane waves:    2057
 k-point 14 :   0.3750 0.2500-0.0000  plane waves:    2047
 k-point 15 :   0.5000 0.2500-0.0000  plane waves:    2046
 k-point 16 :  -0.3750 0.2500 0.0000  plane waves:    2055
 k-point 17 :  -0.2500 0.2500 0.0000  plane waves:    2048
 k-point 18 :   0.3750 0.3750-0.0000  plane waves:    2047
 k-point 19 :   0.5000 0.3750-0.0000  plane waves:    2045
 k-point 20 :  -0.3750 0.3750 0.0000  plane waves:    2044
 k-point 21 :   0.5000 0.5000-0.0000  plane waves:    2028
 k-point 22 :   0.0000 0.0000 0.1000  plane waves:    2034
 k-point 23 :   0.1250 0.0000 0.1000  plane waves:    2044
 k-point 24 :   0.2500 0.0000 0.1000  plane waves:    2056
 k-point 25 :   0.3750 0.0000 0.1000  plane waves:    2044
 k-point 26 :   0.5000 0.0000 0.1000  plane waves:    2044
 k-point 27 :  -0.3750-0.0000 0.1000  plane waves:    2056
 k-point 28 :  -0.2500 0.0000 0.1000  plane waves:    2044
 k-point 29 :  -0.1250 0.0000 0.1000  plane waves:    2023
 k-point 30 :   0.1250 0.1250 0.1000  plane waves:    2049
 k-point 31 :   0.2500 0.1250 0.1000  plane waves:    2057
 k-point 32 :   0.3750 0.1250 0.1000  plane waves:    2036
 k-point 33 :   0.5000 0.1250 0.1000  plane waves:    2049
 k-point 34 :  -0.3750 0.1250 0.1000  plane waves:    2052
 k-point 35 :  -0.2500 0.1250 0.1000  plane waves:    2043
 k-point 36 :  -0.1250 0.1250 0.1000  plane waves:    2047
 k-point 37 :   0.2500 0.2500 0.1000  plane waves:    2038
 k-point 38 :   0.3750 0.2500 0.1000  plane waves:    2041
 k-point 39 :   0.5000 0.2500 0.1000  plane waves:    2042
 k-point 40 :  -0.3750 0.2500 0.1000  plane waves:    2054
 k-point 41 :  -0.2500 0.2500 0.1000  plane waves:    2048
 k-point 42 :  -0.1250 0.2500 0.1000  plane waves:    2061
 k-point 43 :   0.3750 0.3750 0.1000  plane waves:    2034
 k-point 44 :   0.5000 0.3750 0.1000  plane waves:    2046
 k-point 45 :  -0.3750 0.3750 0.1000  plane waves:    2051
 k-point 46 :  -0.2500 0.3750 0.1000  plane waves:    2049
 k-point 47 :  -0.1250 0.3750 0.1000  plane waves:    2049
 k-point 48 :   0.5000 0.5000 0.1000  plane waves:    2034
 k-point 49 :  -0.3750 0.5000 0.1000  plane waves:    2049
 k-point 50 :  -0.2500 0.5000 0.1000  plane waves:    2049
 k-point 51 :  -0.1250 0.5000 0.1000  plane waves:    2053
 k-point 52 :  -0.3750-0.3750 0.1000  plane waves:    2050
 k-point 53 :  -0.2500-0.3750 0.1000  plane waves:    2049
 k-point 54 :  -0.1250-0.3750 0.1000  plane waves:    2067
 k-point 55 :  -0.2500-0.2500 0.1000  plane waves:    2056
 k-point 56 :  -0.1250-0.2500 0.1000  plane waves:    2057
 k-point 57 :  -0.1250-0.1250 0.1000  plane waves:    2031
 k-point 58 :   0.0000 0.0000 0.2000  plane waves:    2056
 k-point 59 :   0.1250 0.0000 0.2000  plane waves:    2050
 k-point 60 :   0.2500 0.0000 0.2000  plane waves:    2048
 k-point 61 :   0.3750 0.0000 0.2000  plane waves:    2045
 k-point 62 :   0.5000 0.0000 0.2000  plane waves:    2058
 k-point 63 :  -0.3750-0.0000 0.2000  plane waves:    2053
 k-point 64 :  -0.2500 0.0000 0.2000  plane waves:    2039
 k-point 65 :  -0.1250 0.0000 0.2000  plane waves:    2043
 k-point 66 :   0.1250 0.1250 0.2000  plane waves:    2053
 k-point 67 :   0.2500 0.1250 0.2000  plane waves:    2034
 k-point 68 :   0.3750 0.1250 0.2000  plane waves:    2044
 k-point 69 :   0.5000 0.1250 0.2000  plane waves:    2053
 k-point 70 :  -0.3750 0.1250 0.2000  plane waves:    2054
 k-point 71 :  -0.2500 0.1250 0.2000  plane waves:    2055
 k-point 72 :  -0.1250 0.1250 0.2000  plane waves:    2049
 k-point 73 :   0.2500 0.2500 0.2000  plane waves:    2038
 k-point 74 :   0.3750 0.2500 0.2000  plane waves:    2039
 k-point 75 :   0.5000 0.2500 0.2000  plane waves:    2048
 k-point 76 :  -0.3750 0.2500 0.2000  plane waves:    2051
 k-point 77 :  -0.2500 0.2500 0.2000  plane waves:    2053
 k-point 78 :  -0.1250 0.2500 0.2000  plane waves:    2055
 k-point 79 :   0.3750 0.3750 0.2000  plane waves:    2037
 k-point 80 :   0.5000 0.3750 0.2000  plane waves:    2043
 k-point 81 :  -0.3750 0.3750 0.2000  plane waves:    2051
 k-point 82 :  -0.2500 0.3750 0.2000  plane waves:    2057
 k-point 83 :  -0.1250 0.3750 0.2000  plane waves:    2056
 k-point 84 :   0.5000 0.5000 0.2000  plane waves:    2054
 k-point 85 :  -0.3750 0.5000 0.2000  plane waves:    2060
 k-point 86 :  -0.2500 0.5000 0.2000  plane waves:    2063
 k-point 87 :  -0.1250 0.5000 0.2000  plane waves:    2059
 k-point 88 :  -0.3750-0.3750 0.2000  plane waves:    2058
 k-point 89 :  -0.2500-0.3750 0.2000  plane waves:    2065
 k-point 90 :  -0.1250-0.3750 0.2000  plane waves:    2059
 k-point 91 :  -0.2500-0.2500 0.2000  plane waves:    2057
 k-point 92 :  -0.1250-0.2500 0.2000  plane waves:    2045
 k-point 93 :  -0.1250-0.1250 0.2000  plane waves:    2037
 k-point 94 :   0.0000 0.0000 0.3000  plane waves:    2054
 k-point 95 :   0.1250-0.0000 0.3000  plane waves:    2050
 k-point 96 :   0.2500-0.0000 0.3000  plane waves:    2053
 k-point 97 :   0.3750 0.0000 0.3000  plane waves:    2043
 k-point 98 :  -0.3750-0.0000 0.3000  plane waves:    2054
 k-point 99 :  -0.2500 0.0000 0.3000  plane waves:    2048
 k-point ** :  -0.1250 0.0000 0.3000  plane waves:    2047
 k-point ** :   0.1250 0.1250 0.3000  plane waves:    2038
 k-point ** :   0.2500 0.1250 0.3000  plane waves:    2039
 k-point ** :   0.5000 0.1250 0.3000  plane waves:    2045
 k-point ** :  -0.3750 0.1250 0.3000  plane waves:    2057
 k-point ** :  -0.2500 0.1250 0.3000  plane waves:    2058
 k-point ** :  -0.1250 0.1250 0.3000  plane waves:    2050
 k-point ** :   0.3750 0.2500 0.3000  plane waves:    2044
 k-point ** :   0.5000 0.2500 0.3000  plane waves:    2049
 k-point ** :  -0.3750 0.2500 0.3000  plane waves:    2053
 k-point ** :  -0.2500 0.2500 0.3000  plane waves:    2050
 k-point ** :  -0.1250 0.2500 0.3000  plane waves:    2049
 k-point ** :   0.3750 0.3750 0.3000  plane waves:    2040
 k-point ** :   0.5000 0.3750 0.3000  plane waves:    2058
 k-point ** :  -0.3750 0.3750 0.3000  plane waves:    2061
 k-point ** :  -0.2500 0.3750 0.3000  plane waves:    2062
 k-point ** :  -0.1250 0.3750 0.3000  plane waves:    2046
 k-point ** :   0.5000 0.5000 0.3000  plane waves:    2068
 k-point ** :  -0.3750 0.5000 0.3000  plane waves:    2065
 k-point ** :  -0.2500 0.5000 0.3000  plane waves:    2071
 k-point ** :  -0.1250 0.5000 0.3000  plane waves:    2056
 k-point ** :  -0.3750-0.3750 0.3000  plane waves:    2069
 k-point ** :  -0.2500-0.3750 0.3000  plane waves:    2061
 k-point ** :  -0.1250-0.2500 0.3000  plane waves:    2056
 k-point ** :  -0.1250-0.1250 0.3000  plane waves:    2053
 k-point ** :   0.0000 0.0000 0.4000  plane waves:    2046
 k-point ** :   0.1250 0.0000 0.4000  plane waves:    2047
 k-point ** :   0.2500 0.0000 0.4000  plane waves:    2048
 k-point ** :   0.3750 0.0000 0.4000  plane waves:    2046
 k-point ** :  -0.3750-0.0000 0.4000  plane waves:    2055
 k-point ** :  -0.2500 0.0000 0.4000  plane waves:    2056
 k-point ** :  -0.1250 0.0000 0.4000  plane waves:    2049
 k-point ** :   0.1250 0.1250 0.4000  plane waves:    2038
 k-point ** :   0.2500 0.1250 0.4000  plane waves:    2043
 k-point ** :   0.5000 0.1250 0.4000  plane waves:    2044
 k-point ** :  -0.3750 0.1250 0.4000  plane waves:    2052
 k-point ** :  -0.2500 0.1250 0.4000  plane waves:    2054
 k-point ** :  -0.1250 0.1250 0.4000  plane waves:    2046
 k-point ** :   0.3750 0.2500 0.4000  plane waves:    2045
 k-point ** :   0.5000 0.2500 0.4000  plane waves:    2056
 k-point ** :  -0.3750 0.2500 0.4000  plane waves:    2065
 k-point ** :  -0.2500 0.2500 0.4000  plane waves:    2059
 k-point ** :  -0.1250 0.2500 0.4000  plane waves:    2051
 k-point ** :   0.3750 0.3750 0.4000  plane waves:    2059
 k-point ** :   0.5000 0.3750 0.4000  plane waves:    2069
 k-point ** :  -0.3750 0.3750 0.4000  plane waves:    2066
 k-point ** :  -0.2500 0.3750 0.4000  plane waves:    2068
 k-point ** :  -0.1250 0.3750 0.4000  plane waves:    2052
 k-point ** :   0.5000 0.5000 0.4000  plane waves:    2056
 k-point ** :  -0.3750 0.5000 0.4000  plane waves:    2068
 k-point ** :  -0.2500 0.5000 0.4000  plane waves:    2063
 k-point ** :  -0.1250 0.5000 0.4000  plane waves:    2061
 k-point ** :  -0.3750-0.3750 0.4000  plane waves:    2070
 k-point ** :  -0.2500-0.3750 0.4000  plane waves:    2064
 k-point ** :  -0.1250-0.2500 0.4000  plane waves:    2057
 k-point ** :  -0.1250-0.1250 0.4000  plane waves:    2050
 k-point ** :   0.1250 0.1250 0.5000  plane waves:    2036
 k-point ** :   0.2500 0.1250 0.5000  plane waves:    2048
 k-point ** :   0.5000 0.1250 0.5000  plane waves:    2051
 k-point ** :  -0.3750 0.1250 0.5000  plane waves:    2054
 k-point ** :  -0.2500 0.1250 0.5000  plane waves:    2047
 k-point ** :  -0.1250 0.1250 0.5000  plane waves:    2048
 k-point ** :   0.3750 0.2500 0.5000  plane waves:    2059
 k-point ** :   0.5000 0.2500 0.5000  plane waves:    2065
 k-point ** :  -0.3750 0.2500 0.5000  plane waves:    2063
 k-point ** :  -0.2500 0.2500 0.5000  plane waves:    2056
 k-point ** :   0.3750 0.3750 0.5000  plane waves:    2061
 k-point ** :   0.5000 0.3750 0.5000  plane waves:    2061
 k-point ** :  -0.3750 0.3750 0.5000  plane waves:    2064
 k-point ** :   0.5000 0.5000 0.5000  plane waves:    2078

 maximum and minimum number of plane-waves per node :       366      321

 maximum number of plane-waves:      2078
 maximum index in each direction: 
   IXMAX=    9   IYMAX=    9   IZMAX=    9
   IXMIN=   -9   IYMIN=   -9   IZMIN=   -9


 real space projection operators:
  total allocation   :       2513.92 KBytes
  max/ min on nodes  :        423.96        414.46


 parallel 3D FFT for wavefunctions:
    minimum data exchange during FFTs selected (reduces bandwidth)
 parallel 3D FFT for charge:
    minimum data exchange during FFTs selected (reduces bandwidth)


 total amount of memory used by VASP MPI-rank0    46365. kBytes
=======================================================================

   base      :      30000. kBytes
   nonlr-proj:       1485. kBytes
   fftplans  :        770. kBytes
   grid      :       2028. kBytes
   one-center:         12. kBytes
   wavefun   :      12070. kBytes
 
     INWAV:  cpu time    0.0000: real time    0.0001
 Broyden mixing: mesh for mixing (old mesh)
   NGX = 19   NGY = 19   NGZ = 19
  (NGX  = 72   NGY  = 72   NGZ  = 72)
  gives a total of   6859 points

 initial charge density was supplied:
 charge density of overlapping atoms calculated
 number of electron      36.0000000 magnetization       0.0000000
 keeping initial charge density in first step


--------------------------------------------------------------------------------------------------------


 Maximum index for non-local projection operator         1148
 Maximum index for augmentation-charges          763 (set IRDMAX)


--------------------------------------------------------------------------------------------------------


 First call to EWALD:  gamma=   0.418
 Maximum number of real-space cells 3x 3x 3
 Maximum number of reciprocal cells 3x 3x 3

    FEWALD:  cpu time    0.0026: real time    0.0048


--------------------------------------- Iteration      1(   1)  ---------------------------------------


    POTLOK:  cpu time    0.0388: real time    0.0974
    SETDIJ:  cpu time    0.2326: real time    0.4737
     EDDAV:  cpu time   10.9451: real time   21.9336
 BZINTS: Fermi energy: 18.316062; 36.000000 electrons
         Band energy:   4.827953;  BLOECHL correction: -0.163224
       DOS:  cpu time    0.0919: real time    0.1876
    --------------------------------------------
      LOOP:  cpu time   11.3084: real time   22.6924

 eigenvalue-minimisations  : 16224
 total energy-change (2. order) : 0.2168594E+03  (-0.1817384E+04)
 number of electron      36.0000000 magnetization       0.0000000
 augmentation part       36.0000000 magnetization       0.0000000

 Free energy of the ion-electron system (eV)
  ---------------------------------------------------
  alpha Z        PSCENC =        66.94452113
  Ewald energy   TEWEN  =     -1425.52345642
  -Hartree energ DENC   =      -340.30683721
  -exchange      EXHF   =         0.00000000
  -V(xc)+E(xc)   XCENC  =       114.39528366
  PAW double counting   =      1258.77423779    -1278.02615601
  entropy T*S    EENTRO =         0.00000000
  eigenvalues    EBANDS =         4.82795321
  atomic energy  EATOM  =      1815.77386823
  Solvation  Ediel_sol  =         0.00000000
  ---------------------------------------------------
  free energy    TOTEN  =       216.85941438 eV

  energy without entropy =      216.85941438  energy(sigma->0) =      216.85941438


--------------------------------------------------------------------------------------------------------




--------------------------------------- Iteration      1(   2)  ---------------------------------------


     EDDAV:  cpu time   17.7036: real time   41.9342
 BZINTS: Fermi energy:  3.349328; 36.000000 electrons
         Band energy:-255.161465;  BLOECHL correction:  0.000000
       DOS:  cpu time    0.0162: real time    0.0325
    --------------------------------------------
      LOOP:  cpu time   17.7197: real time   41.9665

 eigenvalue-minimisations  : 20800
 total energy-change (2. order) :-0.2599894E+03  (-0.2539305E+03)
 number of electron      36.0000000 magnetization       0.0000000
 augmentation part       36.0000000 magnetization       0.0000000

 Free energy of the ion-electron system (eV)
  ---------------------------------------------------
  alpha Z        PSCENC =        66.94452113
  Ewald energy   TEWEN  =     -1425.52345642
  -Hartree energ DENC   =      -340.30683721
  -exchange      EXHF   =         0.00000000
  -V(xc)+E(xc)   XCENC  =       114.39528366
  PAW double counting   =      1258.77423779    -1278.02615601
  entropy T*S    EENTRO =         0.00000000
  eigenvalues    EBANDS =      -255.16146482
  atomic energy  EATOM  =      1815.77386823
  Solvation  Ediel_sol  =         0.00000000
  ---------------------------------------------------
  free energy    TOTEN  =       -43.13000365 eV

  energy without entropy =      -43.13000365  energy(sigma->0) =      -43.13000365


--------------------------------------------------------------------------------------------------------




--------------------------------------- Iteration      1(   3)  ---------------------------------------


     EDDAV:  cpu time   19.6138: real time   58.8840
 BZINTS: Fermi energy:  2.399227; 36.000000 electrons
         Band energy:-272.589530;  BLOECHL correction:  0.000000
       DOS:  cpu time    0.0150: real time    0.0318
    --------------------------------------------
      LOOP:  cpu time   19.6289: real time   58.9157

 eigenvalue-minimisations  : 26960
 total energy-change (2. order) :-0.1742807E+02  (-0.1736896E+02)
 number of electron      36.0000000 magnetization       0.0000000
 augmentation part       36.0000000 magnetization       0.0000000

 Free energy of the ion-electron system (eV)
  ---------------------------------------------------
  alpha Z        PSCENC =        66.94452113
  Ewald energy   TEWEN  =     -1425.52345642
  -Hartree energ DENC   =      -340.30683721
  -exchange      EXHF   =         0.00000000
  -V(xc)+E(xc)   XCENC  =       114.39528366
  PAW double counting   =      1258.77423779    -1278.02615601
  entropy T*S    EENTRO =         0.00000000
  eigenvalues    EBANDS =      -272.58953036
  atomic energy  EATOM  =      1815.77386823
  Solvation  Ediel_sol  =         0.00000000
  ---------------------------------------------------
  free energy    TOTEN  =       -60.55806918 eV

  energy without entropy =      -60.55806918  energy(sigma->0) =      -60.55806918


--------------------------------------------------------------------------------------------------------




--------------------------------------- Iteration      1(   4)  ---------------------------------------


     EDDAV:  cpu time   17.5889: real time   52.8166
 BZINTS: Fermi energy:  2.392941; 36.000000 electrons
         Band energy:-273.618062;  BLOECHL correction:  0.000000
       DOS:  cpu time    0.0148: real time    0.0289
    --------------------------------------------
      LOOP:  cpu time   17.6036: real time   52.8455

 eigenvalue-minimisations  : 24488
 total energy-change (2. order) :-0.1028531E+01  (-0.1026780E+01)
 number of electron      36.0000000 magnetization       0.0000000
 augmentation part       36.0000000 magnetization       0.0000000

 Free energy of the ion-electron system (eV)
  ---------------------------------------------------
  alpha Z        PSCENC =        66.94452113
  Ewald energy   TEWEN  =     -1425.52345642
  -Hartree energ DENC   =      -340.30683721
  -exchange      EXHF   =         0.00000000
  -V(xc)+E(xc)   XCENC  =       114.39528366
  PAW double counting   =      1258.77423779    -1278.02615601
  entropy T*S    EENTRO =         0.00000000
  eigenvalues    EBANDS =      -273.61806183
  atomic energy  EATOM  =      1815.77386823
  Solvation  Ediel_sol  =         0.00000000
  ---------------------------------------------------
  free energy    TOTEN  =       -61.58660065 eV

  energy without entropy =      -61.58660065  energy(sigma->0) =      -61.58660065


--------------------------------------------------------------------------------------------------------




--------------------------------------- Iteration      1(   5)  ---------------------------------------


     EDDAV:  cpu time   17.3425: real time   52.0733
 BZINTS: Fermi energy:  2.450052; 36.000000 electrons
         Band energy:-273.678219;  BLOECHL correction:  0.000000
       DOS:  cpu time    0.0142: real time    0.0296
    CHARGE:  cpu time    0.2098: real time    0.6470
    MIXING:  cpu time    0.0045: real time    0.0156
    --------------------------------------------
      LOOP:  cpu time   17.5712: real time   52.7655

 eigenvalue-minimisations  : 24128
 total energy-change (2. order) :-0.6015713E-01  (-0.6015596E-01)
 number of electron      36.0000019 magnetization       0.0000000
 augmentation part        2.4995427 magnetization       0.0000424

 Broyden mixing:
  rms(total) = 0.25120E+01    rms(broyden)= 0.25118E+01
  rms(prec ) = 0.43806E+01
  weight for this iteration     100.00

 Free energy of the ion-electron system (eV)
  ---------------------------------------------------
  alpha Z        PSCENC =        66.94452113
  Ewald energy   TEWEN  =     -1425.52345642
  -Hartree energ DENC   =      -340.30683721
  -exchange      EXHF   =         0.00000000
  -V(xc)+E(xc)   XCENC  =       114.39528366
  PAW double counting   =      1258.77423779    -1278.02615601
  entropy T*S    EENTRO =         0.00000000
  eigenvalues    EBANDS =      -273.67821896
[...]

 k-point   160 :      -0.2500    0.1250    0.5000
  band No.  band energies     occupation 
      1     -38.4903      1.00000
      2     -38.4858      1.00000
      3     -12.7165      1.00000
      4     -12.0168      1.00000
      5      -9.6997      1.00000
      6      -9.6056      1.00000
      7      -4.4295      1.00000
      8      -3.4610      1.00000
      9      -1.3087      1.00000
     10      -1.0752      1.00000
     11       0.7997      1.00000
     12       1.3526      1.00000
     13       1.9862      1.00000
     14       2.4910      1.00000
     15       3.6934      1.00000
     16       4.0617      1.00000
     17       4.3417      1.00000
     18       4.4898      1.00000
     19      10.4817      0.00000
     20      11.0512      0.00000
     21      12.2520      0.00000
     22      12.4932      0.00000
     23      13.4873      0.00000
     24      13.6353      0.00000

 k-point   161 :      -0.1250    0.1250    0.5000
  band No.  band energies     occupation 
      1     -38.4880      1.00000
      2     -38.4880      1.00000
      3     -12.3692      1.00000
      4     -12.3692      1.00000
      5      -9.6610      1.00000
      6      -9.6610      1.00000
      7      -4.0764      1.00000
      8      -4.0764      1.00000
      9      -1.0712      1.00000
     10      -1.0712      1.00000
     11       1.0383      1.00000
     12       1.0383      1.00000
     13       2.2396      1.00000
     14       2.2396      1.00000
     15       4.1144      1.00000
     16       4.1144      1.00000
     17       4.3348      1.00000
     18       4.3348      1.00000
     19      10.8898      0.00000
     20      10.8898      0.00000
     21      12.4208      0.00000
     22      12.4208      0.00000
     23      13.4350      0.00000
     24      13.4350      0.00000

 k-point   162 :       0.3750    0.2500    0.5000
  band No.  band energies     occupation 
      1     -38.4936      1.00000
      2     -38.4826      1.00000
      3     -13.1817      1.00000
      4     -11.4336      1.00000
      5      -9.6506      1.00000
      6      -9.5494      1.00000
      7      -5.0114      1.00000
      8      -2.6375      1.00000
      9      -1.5747      1.00000
     10      -1.3989      1.00000
     11       1.2350      1.00000
     12       1.4969      1.00000
     13       1.8804      1.00000
     14       2.5942      1.00000
     15       3.1213      1.00000
     16       3.6947      1.00000
     17       4.3529      1.00000
     18       4.5079      1.00000
     19      10.5902      0.00000
     20      11.0636      0.00000
     21      11.4515      0.00000
     22      12.2276      0.00000
     23      13.1702      0.00000
     24      14.0854      0.00000

 k-point   163 :       0.5000    0.2500    0.5000
  band No.  band energies     occupation 
      1     -38.4923      1.00000
      2     -38.4839      1.00000
      3     -13.0131      1.00000
      4     -11.7008      1.00000
      5      -9.6780      1.00000
      6      -9.5799      1.00000
      7      -4.6407      1.00000
      8      -2.7446      1.00000
      9      -1.5555      1.00000
     10      -1.2631      1.00000
     11       1.1180      1.00000
     12       1.6053      1.00000
     13       1.8940      1.00000
     14       2.3817      1.00000
     15       3.0315      1.00000
     16       3.5524      1.00000
     17       4.4385      1.00000
     18       4.5693      1.00000
     19      10.1406      0.00000
     20      10.9169      0.00000
     21      11.9063      0.00000
     22      12.4270      0.00000
     23      13.0325      0.00000
     24      13.9872      0.00000

 k-point   164 :      -0.3750    0.2500    0.5000
  band No.  band energies     occupation 
      1     -38.4904      1.00000
      2     -38.4858      1.00000
      3     -12.7397      1.00000
      4     -12.0405      1.00000
      5      -9.7065      1.00000
      6      -9.6159      1.00000
      7      -4.2072      1.00000
      8      -3.1644      1.00000
      9      -1.3856      1.00000
     10      -1.1617      1.00000
     11       0.9715      1.00000
     12       1.4109      1.00000
     13       1.9200      1.00000
     14       2.4185      1.00000
     15       3.1760      1.00000
     16       3.5613      1.00000
     17       4.5085      1.00000
     18       4.6126      1.00000
     19      10.0569      0.00000
     20      10.6951      0.00000
     21      12.3877      0.00000
     22      12.5277      0.00000
     23      13.1219      0.00000
     24      13.5747      0.00000

 k-point   165 :      -0.2500    0.2500    0.5000
  band No.  band energies     occupation 
      1     -38.4881      1.00000
      2     -38.4881      1.00000
      3     -12.3922      1.00000
      4     -12.3922      1.00000
      5      -9.6752      1.00000
      6      -9.6752      1.00000
      7      -3.7840      1.00000
      8      -3.7840      1.00000
      9      -1.1853      1.00000
     10      -1.1853      1.00000
     11       1.0649      1.00000
     12       1.0649      1.00000
     13       2.1417      1.00000
     14       2.1417      1.00000
     15       3.6741      1.00000
     16       3.6741      1.00000
     17       4.5380      1.00000
     18       4.5380      1.00000
     19      10.4735      0.00000
     20      10.4735      0.00000
     21      12.6052      0.00000
     22      12.6052      0.00000
     23      13.2348      0.00000
     24      13.2348      0.00000

 k-point   166 :       0.3750    0.3750    0.5000
  band No.  band energies     occupation 
      1     -38.4923      1.00000
      2     -38.4839      1.00000
      3     -13.0272      1.00000
      4     -11.6850      1.00000
      5      -9.6623      1.00000
      6      -9.6236      1.00000
      7      -4.5270      1.00000
      8      -2.8275      1.00000
      9      -1.3946      1.00000
     10      -1.3570      1.00000
     11       1.4454      1.00000
     12       1.4655      1.00000
     13       1.9331      1.00000
     14       2.5029      1.00000
     15       2.8096      1.00000
     16       3.2407      1.00000
     17       4.4743      1.00000
     18       4.5264      1.00000
     19      10.4721      0.00000
     20      10.5683      0.00000
     21      11.6781      0.00000
     22      12.1300      0.00000
     23      12.9833      0.00000
     24      13.6976      0.00000

 k-point   167 :       0.5000    0.3750    0.5000
  band No.  band energies     occupation 
      1     -38.4904      1.00000
      2     -38.4858      1.00000
      3     -12.7639      1.00000
      4     -12.0467      1.00000
      5      -9.6821      1.00000
      6      -9.6430      1.00000
      7      -4.0488      1.00000
      8      -3.1418      1.00000
      9      -1.2926      1.00000
     10      -1.2004      1.00000
     11       1.3356      1.00000
     12       1.7450      1.00000
     13       1.8834      1.00000
     14       2.4097      1.00000
     15       2.6528      1.00000
     16       2.8768      1.00000
     17       4.5657      1.00000
     18       4.6268      1.00000
     19      10.1389      0.00000
     20      10.4632      0.00000
     21      11.9707      0.00000
     22      12.0355      0.00000
     23      13.0620      0.00000
     24      13.2456      0.00000

 k-point   168 :      -0.3750    0.3750    0.5000
  band No.  band energies     occupation 
      1     -38.4881      1.00000
      2     -38.4881      1.00000
      3     -12.4174      1.00000
      4     -12.4174      1.00000
      5      -9.6732      1.00000
      6      -9.6732      1.00000
      7      -3.5966      1.00000
      8      -3.5966      1.00000
      9      -1.2043      1.00000
     10      -1.2043      1.00000
     11       1.3223      1.00000
     12       1.3223      1.00000
     13       2.1541      1.00000
     14       2.1541      1.00000
     15       2.9799      1.00000
     16       2.9799      1.00000
     17       4.6316      1.00000
     18       4.6316      1.00000
     19      10.2119      0.00000
     20      10.2119      0.00000
     21      12.2998      0.00000
     22      12.2998      0.00000
     23      13.1139      0.00000
     24      13.1139      0.00000

 k-point   169 :       0.5000    0.5000    0.5000
  band No.  band energies     occupation 
      1     -38.4881      1.00000
      2     -38.4881      1.00000
      3     -12.4283      1.00000
      4     -12.4283      1.00000
      5      -9.6680      1.00000
      6      -9.6680      1.00000
      7      -3.5611      1.00000
      8      -3.5611      1.00000
      9      -1.1709      1.00000
     10      -1.1709      1.00000
     11       1.6787      1.00000
     12       1.6787      1.00000
     13       2.1493      1.00000
     14       2.1493      1.00000
     15       2.4688      1.00000
     16       2.4688      1.00000
     17       4.6428      1.00000
     18       4.6428      1.00000
     19      10.2534      0.00000
     20      10.2534      0.00000
     21      11.8314      0.00000
     22      11.8314      0.00000
     23      13.0933      0.00000
     24      13.0933      0.00000


--------------------------------------------------------------------------------------------------------


 soft charge-density along one line, spin component           1
         0         1         2         3         4         5         6         7         8         9
 total charge-density along one line
 
 soft charge-density along one line, spin component           2
         0         1         2         3         4         5         6         7         8         9
 total charge-density along one line
 
 pseudopotential strength for first ion, spin component:           1
-36.779   4.039   0.000   0.000   0.000
  4.039 -10.488   0.000   0.000   0.000
  0.000   0.000   0.164  -0.000  -0.000
  0.000   0.000  -0.000   0.167  -0.000
  0.000   0.000  -0.000  -0.000   0.164
 pseudopotential strength for first ion, spin component:           2
-36.779   4.039   0.000   0.000   0.000
  4.039 -10.488   0.000   0.000   0.000
  0.000   0.000   0.164  -0.000  -0.000
  0.000   0.000  -0.000   0.167  -0.000
  0.000   0.000  -0.000  -0.000   0.164
 total augmentation occupancy for first ion, spin component:           1
  2.000  -0.001   0.000   0.000   0.000
 -0.001   0.779  -0.000   0.000   0.000
  0.000   0.000   0.033   0.000  -0.000
  0.000   0.000   0.000   0.019   0.000
  0.000   0.000   0.000   0.000   0.033
 total augmentation occupancy for first ion, spin component:           2
  0.000   0.000   0.000   0.000   0.000
  0.000  -0.000  -0.000   0.000  -0.000
  0.000  -0.000   0.000   0.000  -0.000
  0.000   0.000   0.000   0.000   0.000
  0.000  -0.000   0.000   0.000   0.000


------------------------ aborting loop because EDIFF is reached ----------------------------------------


 


 total charge     
 
# of ion       s       p       d       tot
------------------------------------------
    1        2.024   0.061   0.000   2.085
    2        2.024   0.061   0.000   2.085
    3        0.926   1.482   0.000   2.408
    4        0.926   1.482   0.000   2.408
    5        1.238   2.666   0.000   3.904
    6        1.231   2.680   0.000   3.911
    7        1.238   2.680   0.000   3.918
    8        1.236   2.684   0.000   3.920
--------------------------------------------------
tot         10.843  13.795   0.000  24.638
 


 magnetization (x)
 
# of ion       s       p       d       tot
------------------------------------------
    1        0.000  -0.000   0.000  -0.000
    2        0.000  -0.000   0.000  -0.000
    3       -0.000  -0.000   0.000  -0.000
    4       -0.000  -0.000   0.000  -0.000
    5        0.000  -0.000   0.000  -0.000
    6        0.000  -0.000   0.000  -0.000
    7        0.000  -0.000   0.000  -0.000
    8       -0.000  -0.000   0.000  -0.000
--------------------------------------------------
tot          0.000  -0.000   0.000  -0.000
 
    CHARGE:  cpu time    0.1676: real time    0.1677
    FORLOC:  cpu time    0.0014: real time    0.0014
    FORNL :  cpu time    0.9823: real time    0.9828
    STRESS:  cpu time    2.9487: real time    2.9502
    FORCOR:  cpu time    0.0192: real time    0.0192
    FORHAR:  cpu time    0.0029: real time    0.0029
    MIXING:  cpu time    0.0005: real time    0.0005
    OFIELD:  cpu time    0.0000: real time    0.0000

  FORCE on cell =-STRESS in cart. coord.  units (eV):
  Direction    XX          YY          ZZ          XY          YZ          ZX
  --------------------------------------------------------------------------------------
  Alpha Z    67.29573    67.29573    67.29573
  Ewald    -453.01154  -453.01154  -524.40957     0.00000     0.00000     0.00000
  Hartree   137.90915   137.90915   112.67849    -0.00000    -0.00000    -0.00000
  E(xc)    -151.61818  -151.61818  -151.87790    -0.00002    -0.00002    -0.00002
  Local    -228.53140  -228.53140  -137.38876     0.00007     0.00008     0.00008
  n-local    13.78161    13.55553    14.39253     0.06957    -0.09383     0.02305
  augment    21.08896    21.08896    21.04076    -0.00005    -0.00011    -0.00011
  Kinetic   593.15661   593.17985   598.36235    -0.15391     0.70577    -0.18154
  Fock        0.00000     0.00000     0.00000     0.00000     0.00000     0.00000
  -------------------------------------------------------------------------------------
  Total      -0.03049    -0.03049     0.09362     0.00000     0.00000     0.00000
  in kB      -0.64465    -0.64465     1.97953     0.00000     0.00000     0.00000
  external pressure =        0.23 kB  Pullay stress =        0.00 kB


 VOLUME and BASIS-vectors are now :
 -----------------------------------------------------------------------------
  energy-cutoff  :      520.00
  volume of cell :       75.77
      direct lattice vectors                 reciprocal lattice vectors
    -2.279785674  2.279785674  3.644815432     0.000000000  0.219318862  0.137181158
     2.279785674 -2.279785674  3.644815432     0.219318862  0.000000000  0.137181158
     2.279785674  2.279785674 -3.644815432     0.219318862  0.219318862  0.000000000

  length of vectors
     4.866161215  4.866161215  4.866161215     0.258687907  0.258687907  0.310163709


 FORCES acting on ions
    electron-ion (+dipol)            ewald-force                    non-local-force                 convergence-correction
 -----------------------------------------------------------------------------------------------
   -.121E-06 -.147E-06 -.229E-06   0.888E-14 0.355E-14 0.160E-13   -.108E-18 -.217E-18 0.217E-18   -.793E-07 0.426E-07 0.987E-07
   -.147E-06 -.121E-06 -.229E-06   0.533E-14 0.107E-13 0.124E-13   0.108E-18 -.542E-19 -.217E-18   0.426E-07 -.793E-07 0.987E-07
   -.653E-06 -.865E-06 -.677E-06   -.426E-13 0.000E+00 -.284E-13   0.139E-16 -.139E-16 0.000E+00   0.117E-07 0.158E-07 0.228E-07
   -.865E-06 -.653E-06 -.677E-06   0.426E-13 -.568E-13 -.284E-13   -.781E-17 -.434E-17 -.347E-17   0.158E-07 0.117E-07 0.228E-07
   -.662E+02 -.857E-07 -.279E-06   0.850E+02 0.249E-13 0.246E-13   -.188E+02 0.000E+00 0.000E+00   0.761E-02 0.245E-07 0.317E-07
   0.662E+02 -.520E-06 -.558E-06   -.850E+02 -.711E-14 -.232E-13   0.188E+02 0.000E+00 0.000E+00   -.761E-02 -.317E-07 -.305E-07
   -.520E-06 0.662E+02 -.558E-06   -.285E-13 -.850E+02 0.606E-14   0.000E+00 0.188E+02 0.000E+00   -.317E-07 -.761E-02 -.305E-07
   -.857E-07 -.662E+02 -.279E-06   0.284E-13 0.850E+02 0.214E-13   0.000E+00 -.188E+02 0.000E+00   0.245E-07 0.761E-02 0.317E-07
 -----------------------------------------------------------------------------------------------
   -.295E-05 -.295E-05 -.349E-05   0.141E-13 0.000E+00 0.489E-15   0.000E+00 0.000E+00 -.347E-17   -.273E-07 -.273E-07 0.245E-06
 
 
 POSITION                                       TOTAL-FORCE (eV/Angst)
 -----------------------------------------------------------------------------------
      0.00000      0.00000      3.64482        -0.000000      0.000000     -0.000000
      2.27979      0.00000      1.82241        -0.000000      0.000000      0.000000
      0.00000     -0.00000     -0.00000        -0.000000      0.000000     -0.000000
      0.00000      2.27979      1.82241        -0.000000     -0.000000     -0.000000
      0.76890      1.13989      0.91120        -0.008376      0.000000     -0.000000
      1.51089      1.13989      4.55602         0.008376     -0.000000     -0.000000
     -1.13989      1.51089      2.73361        -0.000000      0.008376     -0.000000
      3.41968      0.76890     -0.91120         0.000000     -0.008376     -0.000000
 -----------------------------------------------------------------------------------
    total drift:                               -0.000003     -0.000003     -0.000003


--------------------------------------------------------------------------------------------------------



  FREE ENERGIE OF THE ION-ELECTRON SYSTEM (eV)
  ---------------------------------------------------
  free  energy   TOTEN  =       -54.53244562 eV

  energy  without entropy=      -54.53244562  energy(sigma->0) =      -54.53244562
 
 d Force = 0.3583218E-04[ 0.217E-04, 0.500E-04]  d Energy = 0.2145423E-04 0.144E-04
 d Force =-0.2201907E+00[-0.220E+00,-0.220E+00]  d Ewald  =-0.1660526E+00-0.541E-01


--------------------------------------------------------------------------------------------------------


    POTLOK:  cpu time    0.2769: real time    0.2771


--------------------------------------------------------------------------------------------------------




--------------------------------------------------------------------------------------------------------


  
 reached required accuracy - stopping structural energy minimisation
     LOOP+:  cpu time   15.4393: real time   15.4547
    4ORBIT:  cpu time    0.0000: real time    0.0000
 


 total charge     
 
# of ion       s       p       d       tot
------------------------------------------
    1        2.024   0.061   0.000   2.085
    2        2.024   0.061   0.000   2.085
    3        0.926   1.482   0.000   2.408
    4        0.926   1.482   0.000   2.408
    5        1.238   2.666   0.000   3.904
    6        1.231   2.680   0.000   3.911
    7        1.238   2.680   0.000   3.918
    8        1.236   2.684   0.000   3.920
--------------------------------------------------
tot         10.843  13.795   0.000  24.638
 


 magnetization (x)
 
# of ion       s       p       d       tot
------------------------------------------
    1        0.000  -0.000   0.000  -0.000
    2        0.000  -0.000   0.000  -0.000
    3       -0.000  -0.000   0.000  -0.000
    4       -0.000  -0.000   0.000  -0.000
    5        0.000  -0.000   0.000  -0.000
    6        0.000  -0.000   0.000  -0.000
    7        0.000  -0.000   0.000  -0.000
    8       -0.000  -0.000   0.000  -0.000
--------------------------------------------------
tot          0.000  -0.000   0.000  -0.000
 
 BZINTS: Fermi energy:  4.973171; 36.000000 electrons
         Band energy:-216.686687;  BLOECHL correction:  0.000000

 total amount of memory used by VASP MPI-rank0    46365. kBytes
=======================================================================

   base      :      30000. kBytes
   nonlr-proj:       1485. kBytes
   fftplans  :        770. kBytes
   grid      :       2028. kBytes
   one-center:         12. kBytes
   wavefun   :      12070. kBytes
 
  
  
 General timing and accounting informations for this job:
 ========================================================
  
                  Total CPU time used (sec):      358.317
                            User time (sec):      333.470
                          System time (sec):       24.847
                         Elapsed time (sec):      923.602
  
                   Maximum memory used (kb):       96008.
                   Average memory used (kb):           0.
  
                          Minor page faults:        55472
                          Major page faults:            0
                 Voluntary context switches:        60922
