unknown system                          
           1
    -2.285724    2.285724    3.644924
     2.285724   -2.285724    3.644924
     2.285724    2.285724   -3.644924
   Li   P    N 
   2   2   4
Direct configuration=     1
   0.50000000  0.50000000  0.00000000
   0.25000000  0.75000000  0.50000000
   0.00000000  0.00000000  0.00000000
   0.75000000  0.25000000  0.50000000
   0.37500000  0.29200300  0.41700300
   0.87500000  0.95799700  0.58299700
   0.70799700  0.12500000  0.08299700
   0.04200300  0.62500000  0.91700300
unknown system                          
           1
    -2.282660    2.282660    3.643278
     2.282660   -2.282660    3.643278
     2.282660    2.282660   -3.643278
   Li   P    N 
   2   2   4
Direct configuration=     2
   0.50000000  0.50000000  0.00000000
   0.25000000  0.75000000  0.50000000
  -0.00000000  0.00000000  0.00000000
   0.75000000  0.25000000  0.50000000
   0.37500000  0.29257117  0.41757117
   0.87500000  0.95742883  0.58242883
   0.70742883  0.12500000  0.08242883
   0.04257117  0.62500000  0.91757117
unknown system                          
           1
    -2.280229    2.280229    3.641971
     2.280229   -2.280229    3.641971
     2.280229    2.280229   -3.641971
   Li   P    N 
   2   2   4
Direct configuration=     3
   0.50000000  0.50000000  0.00000000
   0.25000000  0.75000000  0.50000000
  -0.00000000  0.00000000  0.00000000
   0.75000000  0.25000000  0.50000000
   0.37500000  0.29302274  0.41802274
   0.87500000  0.95697726  0.58197726
   0.70697726  0.12500000  0.08197726
   0.04302274  0.62500000  0.91802274
unknown system                          
           1
    -2.279683    2.279683    3.645476
     2.279683   -2.279683    3.645476
     2.279683    2.279683   -3.645476
   Li   P    N 
   2   2   4
Direct configuration=     4
   0.50000000  0.50000000  0.00000000
   0.25000000  0.75000000  0.50000000
  -0.00000000  0.00000000  0.00000000
   0.75000000  0.25000000  0.50000000
   0.37500000  0.29377615  0.41877615
   0.87500000  0.95622385  0.58122385
   0.70622385  0.12500000  0.08122385
   0.04377615  0.62500000  0.91877615
unknown system                          
           1
    -2.279786    2.279786    3.644815
     2.279786   -2.279786    3.644815
     2.279786    2.279786   -3.644815
   Li   P    N 
   2   2   4
Direct configuration=     5
   0.50000000  0.50000000  0.00000000
   0.25000000  0.75000000  0.50000000
  -0.00000000  0.00000000  0.00000000
   0.75000000  0.25000000  0.50000000
   0.37500000  0.29363412  0.41863412
   0.87500000  0.95636588  0.58136588
   0.70636588  0.12500000  0.08136588
   0.04363412  0.62500000  0.91863412
