 running on   12 total cores
 distrk:  each k-point on   12 cores,    1 groups
 distr:  one band on    6 cores,    2 groups
 using from now: INCAR     
 vasp.6.1.2 22Jul20 (build Mar 20 2021 11:25:07) complex                        
  
 POSCAR found type information on POSCAR LiP O 
 POSCAR found :  3 types and      26 ions
 scaLAPACK will be used
 LDA part: xc-table for Pade appr. of Perdew
 generate k-points for:    7    5    4
 POSCAR, INCAR and KPOINTS ok, starting setup
 FFT: planning ...
 WAVECAR not read
 entering main loop
       N       E                     dE             d eps       ncg     rms          rms(c)
DAV:   1     0.112733440569E+04    0.11273E+04   -0.62817E+04 24432   0.153E+03
DAV:   2    -0.657480161990E+02   -0.11931E+04   -0.11234E+04 29184   0.400E+02
DAV:   3    -0.174158554197E+03   -0.10841E+03   -0.10776E+03 31442   0.123E+02
DAV:   4    -0.184079858633E+03   -0.99213E+01   -0.98798E+01 46376   0.296E+01
DAV:   5    -0.185519045762E+03   -0.14392E+01   -0.14388E+01 33608   0.659E+00    0.550E+01
DAV:   6    -0.164561367555E+03    0.20958E+02   -0.88726E+01 30532   0.323E+01    0.287E+01
DAV:   7    -0.166530520881E+03   -0.19692E+01   -0.76702E+00 32304   0.909E+00    0.956E+00
DAV:   8    -0.166815017864E+03   -0.28450E+00   -0.84999E-01 32824   0.364E+00    0.475E+00
DAV:   9    -0.166944116357E+03   -0.12910E+00   -0.15264E-01 33360   0.166E+00    0.200E+00
DAV:  10    -0.166968154301E+03   -0.24038E-01   -0.53948E-02 30024   0.114E+00    0.596E-01
DAV:  11    -0.166978609865E+03   -0.10456E-01   -0.12416E-02 30488   0.469E-01    0.327E-01
DAV:  12    -0.166981269865E+03   -0.26600E-02   -0.19102E-03 30688   0.202E-01    0.165E-01
DAV:  13    -0.166982310585E+03   -0.10407E-02   -0.97306E-04 28968   0.125E-01    0.470E-02
DAV:  14    -0.166982456331E+03   -0.14575E-03   -0.15267E-04 34600   0.581E-02    0.267E-02
DAV:  15    -0.166982512405E+03   -0.56074E-04   -0.53840E-05 25736   0.318E-02    0.164E-02
DAV:  16    -0.166982521427E+03   -0.90224E-05   -0.77575E-06 20368   0.140E-02
   1 F= -.16698252E+03 E0= -.16698252E+03  d E =0.000000E+00  mag=    -0.0015
