 running on   24 total cores
 distrk:  each k-point on   24 cores,    1 groups
 distr:  one band on    6 cores,    4 groups
 using from now: INCAR     
 vasp.6.1.2 22Jul20 (build Mar 31 2021 18:09:49) complex                        
  
 POSCAR found type information on POSCAR LiO 
 POSCAR found :  2 types and       8 ions
 scaLAPACK will be used
 -----------------------------------------------------------------------------
|                                                                             |
|               ----> ADVICE to this user running VASP <----                  |
|                                                                             |
|     You have a (more or less) 'small supercell' and for smaller cells       |
|     it is recommended to use the reciprocal-space projection scheme!        |
|     The real-space optimization is not efficient for small cells and it     |
|     is also less accurate ...                                               |
|     Therefore, set LREAL=.FALSE. in the INCAR file.                         |
|                                                                             |
 -----------------------------------------------------------------------------

 LDA part: xc-table for Pade appr. of Perdew
 generate k-points for:   12   12    4
 POSCAR, INCAR and KPOINTS ok, starting setup
 FFT: planning ...
 WAVECAR not read
 entering main loop
       N       E                     dE             d eps       ncg     rms          rms(c)
DAV:   1     0.252003476034E+03    0.25200E+03   -0.17365E+04 18368   0.137E+03
DAV:   2    -0.146782644294E+02   -0.26668E+03   -0.25662E+03 21920   0.347E+02
DAV:   3    -0.375934154033E+02   -0.22915E+02   -0.22723E+02 29804   0.846E+01
DAV:   4    -0.392735820387E+02   -0.16802E+01   -0.16735E+01 27200   0.212E+01
DAV:   5    -0.393193022590E+02   -0.45720E-01   -0.45717E-01 25920   0.306E+00    0.178E+01
RMM:   6    -0.382080883866E+02    0.11112E+01   -0.44885E+00 20418   0.109E+01    0.783E+00
RMM:   7    -0.388161470531E+02   -0.60806E+00   -0.67679E-01 23060   0.506E+00    0.389E+00
RMM:   8    -0.388943115322E+02   -0.78164E-01   -0.30913E-01 26929   0.315E+00    0.156E+00
RMM:   9    -0.389051231286E+02   -0.10812E-01   -0.10686E-01 28626   0.205E+00    0.384E-01
RMM:  10    -0.389147184477E+02   -0.95953E-02   -0.54768E-02 32187   0.115E+00    0.187E-01
RMM:  11    -0.389185608540E+02   -0.38424E-02   -0.21017E-02 32944   0.666E-01    0.126E-01
RMM:  12    -0.389198837800E+02   -0.13229E-02   -0.88764E-03 34225   0.399E-01    0.918E-02
RMM:  13    -0.389202976649E+02   -0.41388E-03   -0.32527E-03 32639   0.273E-01    0.384E-02
RMM:  14    -0.389205620233E+02   -0.26436E-03   -0.16625E-03 33202   0.190E-01    0.953E-03
RMM:  15    -0.389206541377E+02   -0.92114E-04   -0.76593E-04 31519   0.112E-01    0.932E-03
RMM:  16    -0.389206889756E+02   -0.34838E-04   -0.31677E-04 30201   0.735E-02    0.625E-03
RMM:  17    -0.389207022211E+02   -0.13245E-04   -0.12592E-04 28268   0.510E-02    0.341E-03
RMM:  18    -0.389207065779E+02   -0.43568E-05   -0.45089E-05 23878   0.370E-02
   1 F= -.38920707E+02 E0= -.38920707E+02  d E =0.000000E+00  mag=    -0.0000
