   26   26    1    2
  0.1178065E+02  0.5302183E-09  0.7287351E-09  0.8736757E-09  0.5000000E-15
  1.000000000000000E-004
  CAR 
 unknown system                          
    128     62     86
 
  0.0000000E+00  0.0000000E+00  0.0000000E+00  0.8333333E-02
    1      -42.208428    -42.208520   1.000000   1.000000
    2      -42.207899    -42.207992   1.000000   1.000000
    3      -42.097706    -42.097801   1.000000   1.000000
    4      -42.097292    -42.097388   1.000000   1.000000
    5      -42.036637    -42.036734   1.000000   1.000000
    6      -42.024708    -42.024806   1.000000   1.000000
    7      -42.010752    -42.010850   1.000000   1.000000
    8      -42.010640    -42.010738   1.000000   1.000000
    9      -20.005881    -20.005876   1.000000   1.000000
   10      -19.948799    -19.948795   1.000000   1.000000
   11      -18.815300    -18.815298   1.000000   1.000000
   12      -18.788452    -18.788449   1.000000   1.000000
   13      -17.601282    -17.601294   1.000000   1.000000
   14      -17.536672    -17.536685   1.000000   1.000000
   15      -17.032390    -17.032411   1.000000   1.000000
   16      -17.004903    -17.004924   1.000000   1.000000
   17      -16.844620    -16.844639   1.000000   1.000000
   18      -16.834130    -16.834149   1.000000   1.000000
   19      -16.767818    -16.767839   1.000000   1.000000
   20      -16.752764    -16.752785   1.000000   1.000000
   21      -16.699158    -16.699176   1.000000   1.000000
   22      -16.695766    -16.695785   1.000000   1.000000
   23       -8.669581     -8.669565   1.000000   1.000000
   24       -8.662065     -8.662048   1.000000   1.000000
   25       -6.303466     -6.303417   1.000000   1.000000
   26       -5.929606     -5.929568   1.000000   1.000000
   27       -5.217089     -5.217054   1.000000   1.000000
   28       -5.101473     -5.101443   1.000000   1.000000
   29       -4.696929     -4.696896   1.000000   1.000000
   30       -4.492974     -4.492942   1.000000   1.000000
   31       -4.378084     -4.378059   1.000000   1.000000
   32       -4.367838     -4.367815   1.000000   1.000000
   33       -3.985909     -3.985881   1.000000   1.000000
   34       -3.933632     -3.933600   1.000000   1.000000
   35       -3.874281     -3.874255   1.000000   1.000000
   36       -3.692895     -3.692868   1.000000   1.000000
   37       -3.296901     -3.296874   1.000000   1.000000
   38       -2.998791     -2.998770   1.000000   1.000000
   39       -2.515649     -2.515642   1.000000   1.000000
   40       -2.264549     -2.264551   1.000000   1.000000
   41       -2.244154     -2.244154   1.000000   1.000000
   42       -1.982376     -1.982370   1.000000   1.000000
   43       -1.946285     -1.946270   1.000000   1.000000
   44       -1.788929     -1.788927   1.000000   1.000000
   45       -1.676833     -1.676837   1.000000   1.000000
   46       -1.621874     -1.621878   1.000000   1.000000
   47       -1.551127     -1.551128   1.000000   1.000000
   48       -1.350582     -1.350585   1.000000   1.000000
   49       -1.232875     -1.232880   1.000000   1.000000
   50       -1.213819     -1.213821   1.000000   1.000000
   51       -1.192220     -1.192226   1.000000   1.000000
   52       -0.911714     -0.911722   1.000000   1.000000
   53       -0.799067     -0.799078   1.000000   1.000000
   54       -0.599308     -0.599317   1.000000   1.000000
   55       -0.450413     -0.450430   1.000000   1.000000
   56       -0.446587     -0.446606   1.000000   1.000000
   57       -0.311625     -0.311638   1.000000   1.000000
   58       -0.285713     -0.285712   1.000000   1.000000
   59       -0.266209     -0.266214   1.000000   1.000000
   60       -0.138704     -0.138710   1.000000   1.000000
   61       -0.069150     -0.069162   1.000000   1.000000
   62        0.005153      0.005132   1.000000   1.000000
   63        0.210232      0.210210   1.000000   1.000000
   64        0.219669      0.219652   1.000000   1.000000
   65        5.675014      5.675055   0.000000   0.000000
   66        7.764366      7.764388   0.000000   0.000000
   67        8.053699      8.053712   0.000000   0.000000
   68        8.240040      8.240082   0.000000   0.000000
   69        8.458692      8.458726   0.000000   0.000000
   70        8.603885      8.603929   0.000000   0.000000
   71        8.639085      8.639133   0.000000   0.000000
   72        9.024886      9.024920   0.000000   0.000000
   73        9.150933      9.150964   0.000000   0.000000
   74        9.307237      9.307280   0.000000   0.000000
   75        9.490894      9.490949   0.000000   0.000000
   76        9.804282      9.804346   0.000000   0.000000
   77        9.999592      9.999619   0.000000   0.000000
   78       10.007844     10.007858   0.000000   0.000000
   79       10.354292     10.354354   0.000000   0.000000
   80       10.366791     10.366804   0.000000   0.000000
   81       10.466991     10.467035   0.000000   0.000000
   82       10.587530     10.587571   0.000000   0.000000
   83       10.854785     10.854835   0.000000   0.000000
   84       10.935666     10.935679   0.000000   0.000000
   85       11.097370     11.097519   0.000000   0.000000
   86       11.215679     11.214609   0.000000   0.000000
 
  0.1666667E+00 -0.3210510E-16 -0.3472039E-15  0.1666667E-01
    1      -42.208407    -42.208500   1.000000   1.000000
    2      -42.207888    -42.207981   1.000000   1.000000
    3      -42.097650    -42.097746   1.000000   1.000000
    4      -42.097259    -42.097355   1.000000   1.000000
    5      -42.036554    -42.036652   1.000000   1.000000
    6      -42.024838    -42.024936   1.000000   1.000000
    7      -42.010770    -42.010868   1.000000   1.000000
    8      -42.010604    -42.010702   1.000000   1.000000
    9      -19.999084    -19.999079   1.000000   1.000000
   10      -19.949450    -19.949446   1.000000   1.000000
   11      -18.813650    -18.813647   1.000000   1.000000
   12      -18.789845    -18.789843   1.000000   1.000000
   13      -17.593300    -17.593312   1.000000   1.000000
   14      -17.537615    -17.537628   1.000000   1.000000
   15      -17.029422    -17.029443   1.000000   1.000000
   16      -17.004246    -17.004267   1.000000   1.000000
   17      -16.853752    -16.853770   1.000000   1.000000
   18      -16.841648    -16.841666   1.000000   1.000000
   19      -16.770053    -16.770074   1.000000   1.000000
   20      -16.755987    -16.756009   1.000000   1.000000
   21      -16.704203    -16.704222   1.000000   1.000000
   22      -16.700759    -16.700778   1.000000   1.000000
   23       -8.683279     -8.683263   1.000000   1.000000
   24       -8.663370     -8.663354   1.000000   1.000000
   25       -6.279665     -6.279618   1.000000   1.000000
   26       -5.929066     -5.929029   1.000000   1.000000
   27       -5.203551     -5.203518   1.000000   1.000000
   28       -5.089013     -5.088983   1.000000   1.000000
   29       -4.675367     -4.675334   1.000000   1.000000
   30       -4.485213     -4.485181   1.000000   1.000000
   31       -4.351966     -4.351942   1.000000   1.000000
   32       -4.318351     -4.318327   1.000000   1.000000
   33       -3.955369     -3.955336   1.000000   1.000000
   34       -3.907537     -3.907507   1.000000   1.000000
   35       -3.806410     -3.806384   1.000000   1.000000
   36       -3.670537     -3.670509   1.000000   1.000000
   37       -3.280722     -3.280696   1.000000   1.000000
   38       -2.957613     -2.957592   1.000000   1.000000
   39       -2.480399     -2.480393   1.000000   1.000000
   40       -2.310296     -2.310295   1.000000   1.000000
   41       -2.235809     -2.235809   1.000000   1.000000
   42       -2.057802     -2.057792   1.000000   1.000000
   43       -1.965274     -1.965263   1.000000   1.000000
   44       -1.773525     -1.773523   1.000000   1.000000
   45       -1.716276     -1.716277   1.000000   1.000000
   46       -1.594152     -1.594157   1.000000   1.000000
   47       -1.536756     -1.536756   1.000000   1.000000
   48       -1.393471     -1.393476   1.000000   1.000000
   49       -1.344647     -1.344650   1.000000   1.000000
   50       -1.284918     -1.284921   1.000000   1.000000
   51       -1.240385     -1.240385   1.000000   1.000000
   52       -0.959800     -0.959808   1.000000   1.000000
   53       -0.768463     -0.768473   1.000000   1.000000
   54       -0.621890     -0.621900   1.000000   1.000000
   55       -0.480220     -0.480239   1.000000   1.000000
   56       -0.456172     -0.456188   1.000000   1.000000
   57       -0.351104     -0.351119   1.000000   1.000000
   58       -0.327053     -0.327057   1.000000   1.000000
   59       -0.219355     -0.219364   1.000000   1.000000
   60       -0.145670     -0.145679   1.000000   1.000000
   61       -0.050225     -0.050237   1.000000   1.000000
   62        0.012015      0.011994   1.000000   1.000000
   63        0.202296      0.202275   1.000000   1.000000
   64        0.232403      0.232385   1.000000   1.000000
   65        5.939125      5.939163   0.000000   0.000000
   66        7.695006      7.695026   0.000000   0.000000
   67        8.078012      8.078030   0.000000   0.000000
   68        8.209089      8.209128   0.000000   0.000000
   69        8.389952      8.389991   0.000000   0.000000
   70        8.565709      8.565750   0.000000   0.000000
   71        8.784325      8.784361   0.000000   0.000000
   72        9.038089      9.038118   0.000000   0.000000
   73        9.124895      9.124936   0.000000   0.000000
   74        9.394059      9.394104   0.000000   0.000000
   75        9.493008      9.493059   0.000000   0.000000
   76        9.723364      9.723402   0.000000   0.000000
   77        9.843432      9.843476   0.000000   0.000000
   78        9.982571      9.982590   0.000000   0.000000
   79       10.078053     10.078079   0.000000   0.000000
   80       10.260677     10.260722   0.000000   0.000000
   81       10.314248     10.314272   0.000000   0.000000
   82       10.443769     10.443817   0.000000   0.000000
   83       10.588345     10.588374   0.000000   0.000000
   84       10.884177     10.884199   0.000000   0.000000
   85       11.155187     11.153973   0.000000   0.000000
   86       11.366923     11.311251   0.000000   0.000000
 
  0.3333333E+00 -0.2969835E-16 -0.7030163E-15  0.1666667E-01
    1      -42.208394    -42.208487   1.000000   1.000000
    2      -42.207897    -42.207990   1.000000   1.000000
    3      -42.097583    -42.097678   1.000000   1.000000
    4      -42.097207    -42.097302   1.000000   1.000000
    5      -42.036419    -42.036517   1.000000   1.000000
    6      -42.025118    -42.025216   1.000000   1.000000
    7      -42.010839    -42.010937   1.000000   1.000000
    8      -42.010557    -42.010655   1.000000   1.000000
    9      -19.983013    -19.983008   1.000000   1.000000
   10      -19.953263    -19.953259   1.000000   1.000000
   11      -18.810265    -18.810263   1.000000   1.000000
   12      -18.793004    -18.793002   1.000000   1.000000
   13      -17.574375    -17.574388   1.000000   1.000000
   14      -17.542368    -17.542381   1.000000   1.000000
   15      -17.022662    -17.022683   1.000000   1.000000
   16      -17.003132    -17.003153   1.000000   1.000000
   17      -16.872138    -16.872156   1.000000   1.000000
   18      -16.857969    -16.857988   1.000000   1.000000
   19      -16.773757    -16.773778   1.000000   1.000000
   20      -16.763684    -16.763705   1.000000   1.000000
   21      -16.715709    -16.715728   1.000000   1.000000
   22      -16.708945    -16.708963   1.000000   1.000000
   23       -8.702408     -8.702392   1.000000   1.000000
   24       -8.674445     -8.674429   1.000000   1.000000
   25       -6.231208     -6.231166   1.000000   1.000000
   26       -5.928385     -5.928347   1.000000   1.000000
   27       -5.169051     -5.169021   1.000000   1.000000
   28       -5.076055     -5.076027   1.000000   1.000000
   29       -4.631432     -4.631397   1.000000   1.000000
   30       -4.474658     -4.474625   1.000000   1.000000
   31       -4.261270     -4.261246   1.000000   1.000000
   32       -4.229642     -4.229617   1.000000   1.000000
   33       -3.993343     -3.993306   1.000000   1.000000
   34       -3.739101     -3.739072   1.000000   1.000000
   35       -3.688260     -3.688230   1.000000   1.000000
   36       -3.588993     -3.588966   1.000000   1.000000
   37       -3.238400     -3.238372   1.000000   1.000000
   38       -2.883794     -2.883774   1.000000   1.000000
   39       -2.458211     -2.458207   1.000000   1.000000
   40       -2.313163     -2.313158   1.000000   1.000000
   41       -2.247437     -2.247433   1.000000   1.000000
   42       -2.143622     -2.143612   1.000000   1.000000
   43       -1.992658     -1.992652   1.000000   1.000000
   44       -1.848632     -1.848627   1.000000   1.000000
   45       -1.757462     -1.757459   1.000000   1.000000
   46       -1.708286     -1.708285   1.000000   1.000000
   47       -1.640055     -1.640058   1.000000   1.000000
   48       -1.490911     -1.490911   1.000000   1.000000
   49       -1.401894     -1.401889   1.000000   1.000000
   50       -1.356640     -1.356640   1.000000   1.000000
   51       -1.302153     -1.302156   1.000000   1.000000
   52       -1.063712     -1.063720   1.000000   1.000000
   53       -0.735571     -0.735580   1.000000   1.000000
   54       -0.655781     -0.655792   1.000000   1.000000
   55       -0.557802     -0.557821   1.000000   1.000000
   56       -0.484318     -0.484334   1.000000   1.000000
   57       -0.395972     -0.395986   1.000000   1.000000
   58       -0.362753     -0.362763   1.000000   1.000000
   59       -0.209541     -0.209553   1.000000   1.000000
   60       -0.144735     -0.144748   1.000000   1.000000
   61       -0.004271     -0.004288   1.000000   1.000000
   62        0.026036      0.026015   1.000000   1.000000
   63        0.207396      0.207376   1.000000   1.000000
   64        0.241618      0.241600   1.000000   1.000000
   65        6.580804      6.580835   0.000000   0.000000
   66        7.643353      7.643376   0.000000   0.000000
   67        8.059980      8.060005   0.000000   0.000000
   68        8.190215      8.190240   0.000000   0.000000
   69        8.404193      8.404231   0.000000   0.000000
   70        8.581173      8.581207   0.000000   0.000000
   71        8.810473      8.810505   0.000000   0.000000
   72        8.902845      8.902864   0.000000   0.000000
   73        9.095173      9.095221   0.000000   0.000000
   74        9.167240      9.167263   0.000000   0.000000
   75        9.363632      9.363674   0.000000   0.000000
   76        9.446283      9.446327   0.000000   0.000000
   77        9.618850      9.618880   0.000000   0.000000
   78        9.944020      9.944059   0.000000   0.000000
   79        9.995023      9.995058   0.000000   0.000000
   80       10.044421     10.044467   0.000000   0.000000
   81       10.123729     10.123773   0.000000   0.000000
   82       10.244254     10.244279   0.000000   0.000000
   83       10.586992     10.587034   0.000000   0.000000
   84       10.736693     10.736732   0.000000   0.000000
   85       11.143719     11.143757   0.000000   0.000000
   86       11.312918     11.312068   0.000000   0.000000
 
  0.5000000E+00 -0.1954764E-17 -0.1024222E-14  0.8333333E-02
    1      -42.208403    -42.208496   1.000000   1.000000
    2      -42.207894    -42.207986   1.000000   1.000000
    3      -42.097550    -42.097645   1.000000   1.000000
    4      -42.097189    -42.097284   1.000000   1.000000
    5      -42.036364    -42.036462   1.000000   1.000000
    6      -42.025248    -42.025346   1.000000   1.000000
    7      -42.010874    -42.010972   1.000000   1.000000
    8      -42.010541    -42.010639   1.000000   1.000000
    9      -19.969914    -19.969909   1.000000   1.000000
   10      -19.960223    -19.960218   1.000000   1.000000
   11      -18.808348    -18.808345   1.000000   1.000000
   12      -18.794847    -18.794845   1.000000   1.000000
   13      -17.557072    -17.557086   1.000000   1.000000
   14      -17.552396    -17.552409   1.000000   1.000000
   15      -17.018673    -17.018694   1.000000   1.000000
   16      -17.002660    -17.002681   1.000000   1.000000
   17      -16.881562    -16.881579   1.000000   1.000000
   18      -16.866666    -16.866684   1.000000   1.000000
   19      -16.773708    -16.773729   1.000000   1.000000
   20      -16.769765    -16.769786   1.000000   1.000000
   21      -16.721955    -16.721973   1.000000   1.000000
   22      -16.712242    -16.712260   1.000000   1.000000
   23       -8.710546     -8.710529   1.000000   1.000000
   24       -8.681516     -8.681500   1.000000   1.000000
   25       -6.205950     -6.205911   1.000000   1.000000
   26       -5.929141     -5.929103   1.000000   1.000000
   27       -5.146848     -5.146820   1.000000   1.000000
   28       -5.076138     -5.076110   1.000000   1.000000
   29       -4.609361     -4.609326   1.000000   1.000000
   30       -4.470743     -4.470709   1.000000   1.000000
   31       -4.189562     -4.189541   1.000000   1.000000
   32       -4.188768     -4.188740   1.000000   1.000000
   33       -4.021176     -4.021138   1.000000   1.000000
   34       -3.682691     -3.682660   1.000000   1.000000
   35       -3.612546     -3.612516   1.000000   1.000000
   36       -3.511268     -3.511242   1.000000   1.000000
   37       -3.209609     -3.209580   1.000000   1.000000
   38       -2.854219     -2.854201   1.000000   1.000000
   39       -2.474356     -2.474352   1.000000   1.000000
   40       -2.274456     -2.274455   1.000000   1.000000
   41       -2.213911     -2.213896   1.000000   1.000000
   42       -2.209399     -2.209392   1.000000   1.000000
   43       -2.035840     -2.035837   1.000000   1.000000
   44       -1.907174     -1.907168   1.000000   1.000000
   45       -1.828858     -1.828856   1.000000   1.000000
   46       -1.802506     -1.802499   1.000000   1.000000
   47       -1.683452     -1.683452   1.000000   1.000000
   48       -1.534683     -1.534683   1.000000   1.000000
   49       -1.406851     -1.406842   1.000000   1.000000
   50       -1.403539     -1.403535   1.000000   1.000000
   51       -1.234158     -1.234166   1.000000   1.000000
   52       -1.161057     -1.161065   1.000000   1.000000
   53       -0.742245     -0.742254   1.000000   1.000000
   54       -0.657089     -0.657103   1.000000   1.000000
   55       -0.595141     -0.595158   1.000000   1.000000
   56       -0.504286     -0.504302   1.000000   1.000000
   57       -0.400358     -0.400371   1.000000   1.000000
   58       -0.388244     -0.388256   1.000000   1.000000
   59       -0.215889     -0.215900   1.000000   1.000000
   60       -0.131204     -0.131220   1.000000   1.000000
   61        0.018757      0.018739   1.000000   1.000000
   62        0.023142      0.023119   1.000000   1.000000
   63        0.230089      0.230069   1.000000   1.000000
   64        0.231951      0.231932   1.000000   1.000000
   65        7.112965      7.112991   0.000000   0.000000
   66        7.518560      7.518595   0.000000   0.000000
   67        8.067375      8.067390   0.000000   0.000000
   68        8.279565      8.279603   0.000000   0.000000
   69        8.391894      8.391905   0.000000   0.000000
   70        8.579811      8.579836   0.000000   0.000000
   71        8.693144      8.693160   0.000000   0.000000
   72        8.729441      8.729474   0.000000   0.000000
   73        8.889998      8.890049   0.000000   0.000000
   74        9.034915      9.034939   0.000000   0.000000
   75        9.260168      9.260210   0.000000   0.000000
   76        9.286401      9.286450   0.000000   0.000000
   77        9.764904      9.764943   0.000000   0.000000
   78        9.840230      9.840255   0.000000   0.000000
   79        9.963450      9.963506   0.000000   0.000000
   80       10.022886     10.022915   0.000000   0.000000
   81       10.066003     10.066057   0.000000   0.000000
   82       10.285927     10.285944   0.000000   0.000000
   83       10.572299     10.572347   0.000000   0.000000
   84       10.641242     10.641277   0.000000   0.000000
   85       11.149389     11.149431   0.000000   0.000000
   86       11.413472     11.413460   0.000000   0.000000
 
  0.1308154E-20  0.2000000E+00 -0.1064903E-14  0.1666667E-01
    1      -42.208368    -42.208460   1.000000   1.000000
    2      -42.207935    -42.208028   1.000000   1.000000
    3      -42.097696    -42.097791   1.000000   1.000000
    4      -42.097271    -42.097367   1.000000   1.000000
    5      -42.036579    -42.036677   1.000000   1.000000
    6      -42.024792    -42.024890   1.000000   1.000000
    7      -42.010736    -42.010834   1.000000   1.000000
    8      -42.010584    -42.010682   1.000000   1.000000
    9      -19.997498    -19.997493   1.000000   1.000000
   10      -19.952421    -19.952417   1.000000   1.000000
   11      -18.816509    -18.816506   1.000000   1.000000
   12      -18.802677    -18.802674   1.000000   1.000000
   13      -17.585294    -17.585307   1.000000   1.000000
   14      -17.543965    -17.543979   1.000000   1.000000
   15      -17.039453    -17.039473   1.000000   1.000000
   16      -16.991373    -16.991395   1.000000   1.000000
   17      -16.845206    -16.845225   1.000000   1.000000
   18      -16.836288    -16.836307   1.000000   1.000000
   19      -16.766226    -16.766247   1.000000   1.000000
   20      -16.753462    -16.753484   1.000000   1.000000
   21      -16.699490    -16.699509   1.000000   1.000000
   22      -16.694310    -16.694329   1.000000   1.000000
   23       -8.691371     -8.691354   1.000000   1.000000
   24       -8.668366     -8.668349   1.000000   1.000000
   25       -6.291569     -6.291521   1.000000   1.000000
   26       -5.907175     -5.907137   1.000000   1.000000
   27       -5.220891     -5.220856   1.000000   1.000000
   28       -5.091964     -5.091933   1.000000   1.000000
   29       -4.678728     -4.678695   1.000000   1.000000
   30       -4.463944     -4.463914   1.000000   1.000000
   31       -4.392498     -4.392472   1.000000   1.000000
   32       -4.379640     -4.379617   1.000000   1.000000
   33       -4.003479     -4.003447   1.000000   1.000000
   34       -3.973650     -3.973623   1.000000   1.000000
   35       -3.860506     -3.860480   1.000000   1.000000
   36       -3.682936     -3.682908   1.000000   1.000000
   37       -3.243059     -3.243034   1.000000   1.000000
   38       -3.032337     -3.032315   1.000000   1.000000
   39       -2.402922     -2.402916   1.000000   1.000000
   40       -2.273155     -2.273155   1.000000   1.000000
   41       -2.245870     -2.245870   1.000000   1.000000
   42       -2.134197     -2.134193   1.000000   1.000000
   43       -2.013451     -2.013436   1.000000   1.000000
   44       -1.763180     -1.763179   1.000000   1.000000
   45       -1.673510     -1.673508   1.000000   1.000000
   46       -1.545416     -1.545420   1.000000   1.000000
   47       -1.418790     -1.418790   1.000000   1.000000
   48       -1.389593     -1.389598   1.000000   1.000000
   49       -1.234522     -1.234527   1.000000   1.000000
   50       -1.230580     -1.230584   1.000000   1.000000
   51       -1.201123     -1.201129   1.000000   1.000000
   52       -0.994940     -0.994948   1.000000   1.000000
   53       -0.817735     -0.817744   1.000000   1.000000
   54       -0.593539     -0.593551   1.000000   1.000000
   55       -0.485887     -0.485903   1.000000   1.000000
   56       -0.442388     -0.442403   1.000000   1.000000
   57       -0.326247     -0.326258   1.000000   1.000000
   58       -0.286066     -0.286069   1.000000   1.000000
   59       -0.234004     -0.234008   1.000000   1.000000
   60       -0.165519     -0.165526   1.000000   1.000000
   61       -0.049136     -0.049148   1.000000   1.000000
   62        0.018704      0.018684   1.000000   1.000000
   63        0.189707      0.189688   1.000000   1.000000
   64        0.219916      0.219896   1.000000   1.000000
   65        5.910822      5.910859   0.000000   0.000000
   66        7.567983      7.567992   0.000000   0.000000
   67        7.981708      7.981737   0.000000   0.000000
   68        8.254535      8.254568   0.000000   0.000000
   69        8.389290      8.389331   0.000000   0.000000
   70        8.546622      8.546667   0.000000   0.000000
   71        8.747203      8.747246   0.000000   0.000000
   72        8.936336      8.936371   0.000000   0.000000
   73        9.258441      9.258483   0.000000   0.000000
   74        9.332019      9.332056   0.000000   0.000000
   75        9.452459      9.452511   0.000000   0.000000
   76        9.720337      9.720388   0.000000   0.000000
   77        9.905308      9.905344   0.000000   0.000000
   78       10.120079     10.120117   0.000000   0.000000
   79       10.224716     10.224732   0.000000   0.000000
   80       10.463827     10.463858   0.000000   0.000000
   81       10.637663     10.637723   0.000000   0.000000
   82       10.650829     10.650857   0.000000   0.000000
   83       10.719940     10.720009   0.000000   0.000000
   84       11.042818     11.043591   0.000000   0.000000
   85       11.171248     11.179502   0.000000   0.000000
   86       11.310898     11.347624   0.000000   0.000000
 
  0.1666667E+00  0.2000000E+00 -0.1408210E-14  0.1666667E-01
    1      -42.208348    -42.208441   1.000000   1.000000
    2      -42.207943    -42.208036   1.000000   1.000000
    3      -42.097655    -42.097751   1.000000   1.000000
    4      -42.097243    -42.097339   1.000000   1.000000
    5      -42.036466    -42.036564   1.000000   1.000000
    6      -42.025006    -42.025104   1.000000   1.000000
    7      -42.010766    -42.010864   1.000000   1.000000
    8      -42.010522    -42.010620   1.000000   1.000000
    9      -19.986353    -19.986348   1.000000   1.000000
   10      -19.955186    -19.955182   1.000000   1.000000
   11      -18.830686    -18.830683   1.000000   1.000000
   12      -18.795029    -18.795027   1.000000   1.000000
   13      -17.569630    -17.569643   1.000000   1.000000
   14      -17.549638    -17.549651   1.000000   1.000000
   15      -17.035711    -17.035732   1.000000   1.000000
   16      -16.988090    -16.988111   1.000000   1.000000
   17      -16.858623    -16.858641   1.000000   1.000000
   18      -16.840435    -16.840454   1.000000   1.000000
   19      -16.765742    -16.765763   1.000000   1.000000
   20      -16.759234    -16.759255   1.000000   1.000000
   21      -16.705174    -16.705193   1.000000   1.000000
   22      -16.698468    -16.698487   1.000000   1.000000
   23       -8.715514     -8.715496   1.000000   1.000000
   24       -8.673407     -8.673391   1.000000   1.000000
   25       -6.266660     -6.266615   1.000000   1.000000
   26       -5.886866     -5.886830   1.000000   1.000000
   27       -5.206469     -5.206436   1.000000   1.000000
   28       -5.077162     -5.077133   1.000000   1.000000
   29       -4.655243     -4.655210   1.000000   1.000000
   30       -4.447555     -4.447524   1.000000   1.000000
   31       -4.372067     -4.372039   1.000000   1.000000
   32       -4.352381     -4.352358   1.000000   1.000000
   33       -4.029205     -4.029171   1.000000   1.000000
   34       -3.880661     -3.880633   1.000000   1.000000
   35       -3.778290     -3.778264   1.000000   1.000000
   36       -3.683226     -3.683197   1.000000   1.000000
   37       -3.195858     -3.195833   1.000000   1.000000
   38       -2.987888     -2.987867   1.000000   1.000000
   39       -2.376794     -2.376791   1.000000   1.000000
   40       -2.307592     -2.307589   1.000000   1.000000
   41       -2.206381     -2.206377   1.000000   1.000000
   42       -2.165318     -2.165315   1.000000   1.000000
   43       -2.066225     -2.066210   1.000000   1.000000
   44       -1.799923     -1.799923   1.000000   1.000000
   45       -1.657714     -1.657709   1.000000   1.000000
   46       -1.578223     -1.578226   1.000000   1.000000
   47       -1.453458     -1.453462   1.000000   1.000000
   48       -1.409858     -1.409859   1.000000   1.000000
   49       -1.309699     -1.309705   1.000000   1.000000
   50       -1.304035     -1.304036   1.000000   1.000000
   51       -1.241284     -1.241286   1.000000   1.000000
   52       -1.084013     -1.084022   1.000000   1.000000
   53       -0.780588     -0.780596   1.000000   1.000000
   54       -0.617891     -0.617903   1.000000   1.000000
   55       -0.536677     -0.536694   1.000000   1.000000
   56       -0.446961     -0.446972   1.000000   1.000000
   57       -0.356693     -0.356704   1.000000   1.000000
   58       -0.327157     -0.327166   1.000000   1.000000
   59       -0.210472     -0.210481   1.000000   1.000000
   60       -0.144197     -0.144203   1.000000   1.000000
   61       -0.013502     -0.013516   1.000000   1.000000
   62        0.000923      0.000903   1.000000   1.000000
   63        0.175323      0.175304   1.000000   1.000000
   64        0.235179      0.235160   1.000000   1.000000
   65        6.314464      6.314495   0.000000   0.000000
   66        7.476905      7.476914   0.000000   0.000000
   67        7.775802      7.775829   0.000000   0.000000
   68        8.321267      8.321301   0.000000   0.000000
   69        8.418733      8.418777   0.000000   0.000000
   70        8.497433      8.497476   0.000000   0.000000
   71        8.797343      8.797379   0.000000   0.000000
   72        8.931634      8.931667   0.000000   0.000000
   73        9.318108      9.318154   0.000000   0.000000
   74        9.467760      9.467796   0.000000   0.000000
   75        9.533305      9.533359   0.000000   0.000000
   76        9.558426      9.558464   0.000000   0.000000
   77        9.728669      9.728705   0.000000   0.000000