 running on    8 total cores
 distrk:  each k-point on    8 cores,    1 groups
 distr:  one band on    4 cores,    2 groups
 using from now: INCAR     
 vasp.6.1.2 22Jul20 (build Mar 20 2021 11:25:07) complex                        
  
 POSCAR found type information on POSCAR LiP 
 POSCAR found :  2 types and      40 ions
 scaLAPACK will be used
 LDA part: xc-table for Pade appr. of Perdew
 generate k-points for:    4    3    3
 POSCAR, INCAR and KPOINTS ok, starting setup
 FFT: planning ...
 WAVECAR not read
 entering main loop
       N       E                     dE             d eps       ncg     rms          rms(c)
DAV:   1     0.106226845785E+04    0.10623E+04   -0.68785E+04  6832   0.133E+03
DAV:   2    -0.287966355485E+02   -0.10911E+04   -0.10072E+04  7984   0.289E+02
DAV:   3    -0.166074186699E+03   -0.13728E+03   -0.13548E+03  9228   0.968E+01
DAV:   4    -0.182073086279E+03   -0.15999E+02   -0.15898E+02 12312   0.291E+01
DAV:   5    -0.185203795889E+03   -0.31307E+01   -0.31291E+01 11200   0.857E+00    0.339E+01
DAV:   6    -0.185541363276E+03   -0.33757E+00   -0.95900E+00  8952   0.714E+00    0.186E+01
DAV:   7    -0.187720034058E+03   -0.21787E+01   -0.32284E+00  8760   0.431E+00    0.112E+01
DAV:   8    -0.188593576566E+03   -0.87354E+00   -0.14146E+00  8032   0.309E+00    0.249E+00
DAV:   9    -0.188671056772E+03   -0.77480E-01   -0.20674E-01  9592   0.133E+00    0.114E+00
DAV:  10    -0.188684513081E+03   -0.13456E-01   -0.39405E-02  8968   0.512E-01    0.414E-01
DAV:  11    -0.188688504535E+03   -0.39915E-02   -0.58417E-03  8256   0.242E-01    0.207E-01
DAV:  12    -0.188690502398E+03   -0.19979E-02   -0.22601E-03  9280   0.132E-01    0.105E-01
DAV:  13    -0.188691466241E+03   -0.96384E-03   -0.71679E-04  8360   0.694E-02    0.429E-02
DAV:  14    -0.188691783751E+03   -0.31751E-03   -0.28959E-04  8128   0.425E-02    0.236E-02
DAV:  15    -0.188691871745E+03   -0.87994E-04   -0.96560E-05  7240   0.252E-02    0.120E-02
DAV:  16    -0.188691891047E+03   -0.19302E-04   -0.20614E-05  6680   0.129E-02    0.553E-03
DAV:  17    -0.188691895498E+03   -0.44513E-05   -0.50494E-06  5160   0.720E-03
   1 F= -.18869190E+03 E0= -.18869190E+03  d E =0.000000E+00  mag=    -0.0003
