 running on   48 total cores
 distrk:  each k-point on   48 cores,    1 groups
 distr:  one band on    6 cores,    8 groups
 using from now: INCAR     
 vasp.6.1.2 22Jul20 (build Mar 31 2021 18:09:49) complex                        
  
 POSCAR found type information on POSCAR LiP N 
 POSCAR found :  3 types and      96 ions
 scaLAPACK will be used
 LDA part: xc-table for Pade appr. of Perdew
 generate k-points for:    3    3    3
 POSCAR, INCAR and KPOINTS ok, starting setup
 FFT: planning ...
 WAVECAR not read
 entering main loop
       N       E                     dE             d eps       ncg     rms          rms(c)
DAV:   1     0.349109052246E+04    0.34911E+04   -0.15339E+05  8448   0.156E+03
DAV:   2     0.384120100477E+02   -0.34527E+04   -0.31128E+04  8960   0.436E+02
DAV:   3    -0.448578223729E+03   -0.48699E+03   -0.48029E+03 11384   0.146E+02
DAV:   4    -0.518815413173E+03   -0.70237E+02   -0.69505E+02 15096   0.475E+01
DAV:   5    -0.525861209511E+03   -0.70458E+01   -0.70402E+01 13496   0.125E+01    0.736E+01
RMM:   6    -0.470351612579E+03    0.55510E+02   -0.20726E+02 10196   0.208E+01    0.320E+01
RMM:   7    -0.483685867300E+03   -0.13334E+02   -0.46273E+01 13428   0.120E+01    0.172E+01
RMM:   8    -0.486284251495E+03   -0.25984E+01   -0.11687E+01 15177   0.563E+00    0.909E+00
RMM:   9    -0.487089340419E+03   -0.80509E+00   -0.54307E+00 13778   0.434E+00    0.309E+00
RMM:  10    -0.487164203979E+03   -0.74864E-01   -0.21991E+00 15078   0.281E+00    0.163E+00
RMM:  11    -0.487257912794E+03   -0.93709E-01   -0.13778E+00 15683   0.163E+00    0.127E+00
RMM:  12    -0.487331665705E+03   -0.73753E-01   -0.65494E-01 15973   0.107E+00    0.105E+00
RMM:  13    -0.487364109219E+03   -0.32444E-01   -0.27192E-01 15544   0.724E-01    0.503E-01
RMM:  14    -0.487377495247E+03   -0.13386E-01   -0.11966E-01 15932   0.520E-01    0.931E-02
RMM:  15    -0.487384870299E+03   -0.73751E-02   -0.68502E-02 15999   0.357E-01    0.781E-02
RMM:  16    -0.487388378371E+03   -0.35081E-02   -0.31960E-02 16000   0.249E-01    0.765E-02
RMM:  17    -0.487390168181E+03   -0.17898E-02   -0.17660E-02 14786   0.180E-01    0.457E-02
RMM:  18    -0.487391087039E+03   -0.91886E-03   -0.96152E-03 14480   0.134E-01    0.262E-02
RMM:  19    -0.487391698870E+03   -0.61183E-03   -0.57503E-03 14204   0.103E-01    0.199E-02
RMM:  20    -0.487392066547E+03   -0.36768E-03   -0.34853E-03 14208   0.782E-02    0.222E-02
RMM:  21    -0.487392289326E+03   -0.22278E-03   -0.21632E-03 14127   0.595E-02    0.259E-02
RMM:  22    -0.487392437735E+03   -0.14841E-03   -0.13606E-03 13401   0.459E-02    0.335E-02
WARNING in EDDRMM: call to ZHEGV failed, returncode =   6  3     16
RMM:  23    -0.487392499005E+03   -0.61270E-04   -0.86221E-04 13599   0.372E-02    0.164E-02
RMM:  24    -0.487392550494E+03   -0.51489E-04   -0.54981E-04 11011   0.288E-02    0.129E-02
RMM:  25    -0.487392583011E+03   -0.32517E-04   -0.38575E-04 11754   0.251E-02    0.959E-03
RMM:  26    -0.487392602822E+03   -0.19811E-04   -0.27884E-04 11716   0.219E-02    0.995E-03
WARNING in EDDRMM: call to ZHEGV failed, returncode =   6  3     17
RMM:  27    -0.487392615477E+03   -0.12655E-04   -0.19360E-04 11114   0.189E-02    0.136E-02
RMM:  28    -0.487392626595E+03   -0.11118E-04   -0.13195E-04 10541   0.164E-02    0.132E-02
RMM:  29    -0.487392634486E+03   -0.78916E-05   -0.92666E-05  9999   0.148E-02
   1 F= -.48739263E+03 E0= -.48739263E+03  d E =0.000000E+00  mag=    -0.0000
