    9    9    1    2
  0.1043774E+02  0.4906905E-09  0.4985972E-09  0.4985972E-09  0.5000000E-15
  1.000000000000000E-004
  CAR 
 unknown system                          
     51    116     40
 
  0.0000000E+00  0.0000000E+00  0.0000000E+00  0.2551020E-02
    1      -43.487395    -43.487141   1.000000   1.000000
    2      -26.371329    -26.370949   1.000000   1.000000
    3      -25.202084    -25.201005   1.000000   1.000000
    4      -25.193691    -25.195080   1.000000   1.000000
    5      -24.534528    -24.533014   1.000000   1.000000
    6      -13.877791    -13.877651   1.000000   1.000000
    7      -13.093114    -13.095124   1.000000   1.000000
    8      -13.033935    -13.030329   1.000000   1.000000
    9      -11.997514    -11.997198   1.000000   1.000000
   10       -8.226337     -8.226234   1.000000   1.000000
   11       -7.833423     -7.832865   1.000000   1.000000
   12       -7.579972     -7.579881   1.000000   1.000000
   13       -7.182275     -7.182277   1.000000   1.000000
   14       -6.474775     -6.473529   1.000000   1.000000
   15       -5.819133     -5.817632   1.000000   1.000000
   16       -5.701158     -5.702075   1.000000   1.000000
   17       -5.669836     -5.669245   1.000000   1.000000
   18       -3.865763     -3.863576   1.000000   1.000000
   19       -3.829218     -3.829526   1.000000   1.000000
   20       -3.692582     -3.691788   1.000000   1.000000
   21       -3.533613     -3.533639   1.000000   1.000000
   22       -1.004786     -1.004720   1.000000   1.000000
   23       -0.898005     -0.897010   1.000000   1.000000
   24       -0.213836     -0.213949   1.000000   1.000000
   25        0.648300      0.649806   1.000000   1.000000
   26        2.448904      2.451507   0.000000   0.000000
   27        2.533916      2.534826   0.000000   0.000000
   28        2.588131      2.587961   0.000000   0.000000
   29        2.879151      2.878923   0.000000   0.000000
   30        9.003585      9.002584   0.000000   0.000000
   31        9.186554      9.188243   0.000000   0.000000
   32       10.040614     10.041161   0.000000   0.000000
   33       11.077008     11.076173   0.000000   0.000000
   34       11.414084     11.415206   0.000000   0.000000
   35       12.711642     12.711674   0.000000   0.000000
   36       13.323293     13.323029   0.000000   0.000000
   37       13.906496     13.907157   0.000000   0.000000
   38       14.189088     14.188980   0.000000   0.000000
   39       14.662401     14.662418   0.000000   0.000000
   40       15.217454     15.218776   0.000000   0.000000
 
  0.1250000E+00 -0.9539167E-18 -0.6212128E-14  0.5102041E-02
    1      -43.487365    -43.487110   1.000000   1.000000
    2      -26.368459    -26.368078   1.000000   1.000000
    3      -25.203057    -25.201974   1.000000   1.000000
    4      -25.196500    -25.197888   1.000000   1.000000
    5      -24.534766    -24.533258   1.000000   1.000000
    6      -13.956096    -13.955926   1.000000   1.000000
    7      -13.048574    -13.050593   1.000000   1.000000
    8      -12.998510    -12.994946   1.000000   1.000000
    9      -11.997279    -11.996939   1.000000   1.000000
   10       -8.211320     -8.211225   1.000000   1.000000
   11       -7.854930     -7.854370   1.000000   1.000000
   12       -7.451951     -7.451887   1.000000   1.000000
   13       -7.172803     -7.172771   1.000000   1.000000
   14       -6.491175     -6.490032   1.000000   1.000000
   15       -5.963802     -5.962399   1.000000   1.000000
   16       -5.756066     -5.756866   1.000000   1.000000
   17       -5.588271     -5.587600   1.000000   1.000000
   18       -3.865899     -3.863731   1.000000   1.000000
   19       -3.826600     -3.826906   1.000000   1.000000
   20       -3.687754     -3.686955   1.000000   1.000000
   21       -3.530496     -3.530518   1.000000   1.000000
   22       -1.001768     -1.001698   1.000000   1.000000
   23       -0.862692     -0.861720   1.000000   1.000000
   24       -0.219219     -0.219310   1.000000   1.000000
   25        0.600131      0.601613   1.000000   1.000000
   26        2.445200      2.447851   0.000000   0.000000
   27        2.518924      2.519658   0.000000   0.000000
   28        2.595417      2.595387   0.000000   0.000000
   29        2.874346      2.874135   0.000000   0.000000
   30        9.272568      9.273937   0.000000   0.000000
   31        9.283423      9.282421   0.000000   0.000000
   32        9.564767      9.565410   0.000000   0.000000
   33       11.036345     11.035922   0.000000   0.000000
   34       11.371655     11.372578   0.000000   0.000000
   35       12.755017     12.754970   0.000000   0.000000
   36       13.330866     13.331000   0.000000   0.000000
   37       13.455179     13.455832   0.000000   0.000000
   38       14.294180     14.294380   0.000000   0.000000
   39       14.778845     14.770703   0.000000   0.000000
   40       15.397568     15.396091   0.000000   0.000000
 
  0.2500000E+00 -0.4410941E-16  0.2099190E-14  0.5102041E-02
    1      -43.487269    -43.487015   1.000000   1.000000
    2      -26.361481    -26.361097   1.000000   1.000000
    3      -25.205437    -25.204526   1.000000   1.000000
    4      -25.203137    -25.204345   1.000000   1.000000
    5      -24.534947    -24.533452   1.000000   1.000000
    6      -14.134044    -14.133832   1.000000   1.000000
    7      -12.937523    -12.939564   1.000000   1.000000
    8      -12.904621    -12.901098   1.000000   1.000000
    9      -12.005667    -12.005300   1.000000   1.000000
   10       -8.196249     -8.196165   1.000000   1.000000
   11       -7.899675     -7.899111   1.000000   1.000000
   12       -7.269717     -7.269789   1.000000   1.000000
   13       -6.987769     -6.987600   1.000000   1.000000
   14       -6.558402     -6.557602   1.000000   1.000000
   15       -6.174735     -6.173244   1.000000   1.000000
   16       -5.876592     -5.877006   1.000000   1.000000
   17       -5.552282     -5.551738   1.000000   1.000000
   18       -3.865731     -3.863603   1.000000   1.000000
   19       -3.818629     -3.818931   1.000000   1.000000
   20       -3.676426     -3.675608   1.000000   1.000000
   21       -3.523305     -3.523318   1.000000   1.000000
   22       -0.983845     -0.983763   1.000000   1.000000
   23       -0.757879     -0.756980   1.000000   1.000000
   24       -0.228413     -0.228451   1.000000   1.000000
   25        0.486026      0.487471   1.000000   1.000000
   26        2.438296      2.441073   0.000000   0.000000
   27        2.497678      2.498314   0.000000   0.000000
   28        2.598138      2.598112   0.000000   0.000000
   29        2.861156      2.860972   0.000000   0.000000
   30        8.330232      8.330612   0.000000   0.000000
   31        9.840369      9.841656   0.000000   0.000000
   32        9.967820      9.966833   0.000000   0.000000
   33       10.770951     10.771262   0.000000   0.000000
   34       11.586561     11.587051   0.000000   0.000000
   35       12.762791     12.762725   0.000000   0.000000
   36       12.800301     12.800850   0.000000   0.000000
   37       13.458562     13.458614   0.000000   0.000000
   38       13.996032     13.996365   0.000000   0.000000
   39       15.053851     15.060170   0.000000   0.000000
   40       15.245801     15.244489   0.000000   0.000000
 
  0.3750000E+00 -0.4506333E-16 -0.4109469E-14  0.5102041E-02
    1      -43.487185    -43.486930   1.000000   1.000000
    2      -26.354335    -26.353948   1.000000   1.000000
    3      -25.209837    -25.211227   1.000000   1.000000
    4      -25.207693    -25.206592   1.000000   1.000000
    5      -24.535286    -24.533802   1.000000   1.000000
    6      -14.298624    -14.298390   1.000000   1.000000
    7      -12.821014    -12.823080   1.000000   1.000000
    8      -12.794278    -12.790704   1.000000   1.000000
    9      -12.032362    -12.032038   1.000000   1.000000
   10       -8.188402     -8.188325   1.000000   1.000000
   11       -7.931688     -7.931123   1.000000   1.000000
   12       -7.233029     -7.233105   1.000000   1.000000
   13       -6.681527     -6.681158   1.000000   1.000000
   14       -6.623342     -6.623234   1.000000   1.000000
   15       -6.347893     -6.346264   1.000000   1.000000
   16       -5.964126     -5.964058   1.000000   1.000000
   17       -5.585770     -5.585346   1.000000   1.000000
   18       -3.864862     -3.862770   1.000000   1.000000
   19       -3.808865     -3.809171   1.000000   1.000000
   20       -3.665371     -3.664529   1.000000   1.000000
   21       -3.516567     -3.516572   1.000000   1.000000
   22       -0.953116     -0.953018   1.000000   1.000000
   23       -0.629552     -0.628760   1.000000   1.000000
   24       -0.232921     -0.232901   1.000000   1.000000
   25        0.375255      0.376698   1.000000   1.000000
   26        2.434497      2.437424   0.000000   0.000000
   27        2.486670      2.487330   0.000000   0.000000
   28        2.590685      2.590532   0.000000   0.000000
   29        2.845492      2.845308   0.000000   0.000000
   30        7.424460      7.424768   0.000000   0.000000
   31       10.238906     10.239535   0.000000   0.000000
   32       10.552653     10.551854   0.000000   0.000000
   33       10.725519     10.726445   0.000000   0.000000
   34       11.651655     11.652306   0.000000   0.000000
   35       12.631358     12.631572   0.000000   0.000000
   36       12.680743     12.680989   0.000000   0.000000
   37       13.609768     13.611420   0.000000   0.000000
   38       13.877274     13.877929   0.000000   0.000000
   39       14.598500     14.598755   0.000000   0.000000
   40       15.112827     15.302316   0.000000   0.000000
 
  0.5000000E+00 -0.8821882E-16  0.4198379E-14  0.2551020E-02
    1      -43.487141    -43.486886   1.000000   1.000000
    2      -26.351427    -26.351038   1.000000   1.000000
    3      -25.212596    -25.213986   1.000000   1.000000
    4      -25.208780    -25.207676   1.000000   1.000000
    5      -24.535592    -24.534113   1.000000   1.000000
    6      -14.363522    -14.363281   1.000000   1.000000
    7      -12.770933    -12.773010   1.000000   1.000000
    8      -12.741251    -12.737609   1.000000   1.000000
    9      -12.051543    -12.051281   1.000000   1.000000
   10       -8.184017     -8.183942   1.000000   1.000000
   11       -7.939915     -7.939350   1.000000   1.000000
   12       -7.220065     -7.220143   1.000000   1.000000
   13       -6.752028     -6.751824   1.000000   1.000000
   14       -6.476619     -6.476512   1.000000   1.000000
   15       -6.400733     -6.399074   1.000000   1.000000
   16       -5.988363     -5.988108   1.000000   1.000000
   17       -5.612527     -5.612147   1.000000   1.000000
   18       -3.864322     -3.862243   1.000000   1.000000
   19       -3.804464     -3.804773   1.000000   1.000000
   20       -3.660825     -3.659972   1.000000   1.000000
   21       -3.513908     -3.513910   1.000000   1.000000
   22       -0.936998     -0.936894   1.000000   1.000000
   23       -0.570669     -0.569934   1.000000   1.000000
   24       -0.234017     -0.233971   1.000000   1.000000
   25        0.330633      0.332087   1.000000   1.000000
   26        2.433937      2.436938   0.000000   0.000000
   27        2.484386      2.485087   0.000000   0.000000
   28        2.585513      2.585272   0.000000   0.000000
   29        2.838239      2.838046   0.000000   0.000000
   30        7.081089      7.081379   0.000000   0.000000
   31       10.291091     10.291432   0.000000   0.000000
   32       10.673122     10.672525   0.000000   0.000000
   33       10.979022     10.979969   0.000000   0.000000
   34       11.460152     11.461040   0.000000   0.000000
   35       12.627931     12.628184   0.000000   0.000000
   36       13.100024     13.099903   0.000000   0.000000
   37       13.484871     13.483113   0.000000   0.000000
   38       13.981618     13.981480   0.000000   0.000000
   39       14.165056     14.165450   0.000000   0.000000
   40       14.904724     14.861349   0.000000   0.000000
 
  0.5427885E-18  0.1428571E+00 -0.4870020E-15  0.1020408E-01
    1      -43.487367    -43.487112   1.000000   1.000000
    2      -26.356014    -26.355622   1.000000   1.000000
    3      -25.247669    -25.248027   1.000000   1.000000
    4      -25.158011    -25.157965   1.000000   1.000000
    5      -24.546212    -24.544708   1.000000   1.000000
    6      -13.870172    -13.870055   1.000000   1.000000
    7      -13.115370    -13.116126   1.000000   1.000000
    8      -13.018679    -13.016292   1.000000   1.000000
    9      -12.011854    -12.011554   1.000000   1.000000
   10       -8.178098     -8.177981   1.000000   1.000000
   11       -7.798597     -7.798093   1.000000   1.000000
   12       -7.503678     -7.503587   1.000000   1.000000
   13       -7.114155     -7.114134   1.000000   1.000000
   14       -6.508640     -6.507429   1.000000   1.000000
   15       -5.868827     -5.867766   1.000000   1.000000
   16       -5.717803     -5.718219   1.000000   1.000000
   17       -5.648471     -5.647938   1.000000   1.000000
   18       -4.000314     -3.998522   1.000000   1.000000
   19       -3.879608     -3.879343   1.000000   1.000000
   20       -3.713505     -3.712997   1.000000   1.000000
   21       -3.558021     -3.557898   1.000000   1.000000
   22       -0.967205     -0.966972   1.000000   1.000000
   23       -0.793084     -0.792325   1.000000   1.000000
   24       -0.139697     -0.139784   1.000000   1.000000
   25        0.593184      0.594602   1.000000   1.000000
   26        2.317283      2.319644   0.000000   0.000000
   27        2.489660      2.490665   0.000000   0.000000
   28        2.591864      2.591918   0.000000   0.000000
   29        2.839990      2.839832   0.000000   0.000000
   30        9.058233      9.057307   0.000000   0.000000
   31        9.170260      9.171929   0.000000   0.000000
   32       10.072561     10.073002   0.000000   0.000000
   33       11.003510     11.002863   0.000000   0.000000
   34       11.459632     11.460598   0.000000   0.000000
   35       12.809257     12.809233   0.000000   0.000000
   36       13.409450     13.409418   0.000000   0.000000
   37       13.717019     13.717403   0.000000   0.000000
   38       14.228560     14.228680   0.000000   0.000000
   39       14.732101     14.730465   0.000000   0.000000
   40       15.302950     15.293314   0.000000   0.000000
 
  0.1250000E+00  0.1428571E+00 -0.6715309E-14  0.1020408E-01
    1      -43.487362    -43.487108   1.000000   1.000000
    2      -26.355530    -26.355139   1.000000   1.000000
    3      -25.247437    -25.247776   1.000000   1.000000
    4      -25.158615    -25.158586   1.000000   1.000000
    5      -24.546878    -24.545375   1.000000   1.000000
    6      -13.884439    -13.884289   1.000000   1.000000
    7      -13.133339    -13.134143   1.000000   1.000000
    8      -12.992755    -12.990339   1.000000   1.000000
    9      -12.003699    -12.003406   1.000000   1.000000
   10       -8.172263     -8.172150   1.000000   1.000000
   11       -7.792361     -7.791862   1.000000   1.000000
   12       -7.488128     -7.488022   1.000000   1.000000
   13       -7.132149     -7.132135   1.000000   1.000000
   14       -6.505634     -6.504405   1.000000   1.000000
   15       -5.892114     -5.890963   1.000000   1.000000
   16       -5.722458     -5.723092   1.000000   1.000000
   17       -5.631478     -5.630844   1.000000   1.000000
   18       -4.010379     -4.008626   1.000000   1.000000
   19       -3.868071     -3.867811   1.000000   1.000000
   20       -3.713359     -3.712779   1.000000   1.000000
   21       -3.560721     -3.560616   1.000000   1.000000
   22       -0.950740     -0.950498   1.000000   1.000000
   23       -0.782676     -0.781919   1.000000   1.000000
   24       -0.152122     -0.152182   1.000000   1.000000
   25        0.582872      0.584334   1.000000   1.000000
   26        2.330258      2.332553   0.000000   0.000000
   27        2.461789      2.462673   0.000000   0.000000
   28        2.600430      2.600527   0.000000   0.000000
   29        2.840943      2.840817   0.000000   0.000000
   30        8.939358      8.938959   0.000000   0.000000
   31        9.309651      9.310805   0.000000   0.000000
   32        9.897773      9.898167   0.000000   0.000000
   33       11.159737     11.159065   0.000000   0.000000
   34       11.427356     11.428456   0.000000   0.000000
   35       12.839126     12.839090   0.000000   0.000000
   36       13.381251     13.381114   0.000000   0.000000
   37       13.779393     13.779887   0.000000   0.000000
   38       14.288649     14.288347   0.000000   0.000000
   39       14.576151     14.572053   0.000000   0.000000
   40       15.244720     15.233069   0.000000   0.000000
 
  0.2500000E+00  0.1428571E+00  0.1596672E-14  0.1020408E-01
    1      -43.487288    -43.487033   1.000000   1.000000
    2      -26.350115    -26.349722   1.000000   1.000000
    3      -25.249884    -25.250253   1.000000   1.000000
    4      -25.162910    -25.162843   1.000000   1.000000
    5      -24.547386    -24.545894   1.000000   1.000000
    6      -14.025198    -14.024990   1.000000   1.000000
    7      -13.077850    -13.078468   1.000000   1.000000
    8      -12.898620    -12.896450   1.000000   1.000000
    9      -12.004973    -12.004670   1.000000   1.000000
   10       -8.148929     -8.148823   1.000000   1.000000
   11       -7.818436     -7.817937   1.000000   1.000000
   12       -7.289618     -7.289607   1.000000   1.000000
   13       -7.079801     -7.079678   1.000000   1.000000
   14       -6.535952     -6.534900   1.000000   1.000000
   15       -6.075900     -6.074591   1.000000   1.000000
   16       -5.821179     -5.821799   1.000000   1.000000
   17       -5.578464     -5.577846   1.000000   1.000000
   18       -4.017098     -4.015378   1.000000   1.000000
   19       -3.853525     -3.853273   1.000000   1.000000
   20       -3.705842     -3.705217   1.000000   1.000000
   21       -3.557018     -3.556919   1.000000   1.000000
   22       -0.914443     -0.914277   1.000000   1.000000
   23       -0.721491     -0.720708   1.000000   1.000000
   24       -0.168148     -0.168145   1.000000   1.000000
   25        0.493899      0.495365   1.000000   1.000000
   26        2.331133      2.333372   0.000000   0.000000
   27        2.432119      2.432966   0.000000   0.000000
   28        2.603339      2.603454   0.000000   0.000000
   29        2.833540      2.833459   0.000000   0.000000
   30        8.846896      8.847276   0.000000   0.000000
   31        9.268896      9.268929   0.000000   0.000000
   32        9.872543      9.873087   0.000000   0.000000
   33       11.073271     11.073312   0.000000   0.000000
   34       11.517280     11.517874   0.000000   0.000000
   35       12.831261     12.831053   0.000000   0.000000
   36       13.165252     13.165737   0.000000   0.000000
   37       13.482141     13.482448   0.000000   0.000000
   38       14.136018     14.134990   0.000000   0.000000
   39       14.950263     14.950548   0.000000   0.000000
   40       15.290185     15.292074   0.000000   0.000000
 
  0.3750000E+00  0.1428571E+00 -0.4620564E-14  0.1020408E-01
    1      -43.487220    -43.486965   1.000000   1.000000
    2      -26.343054    -26.342657   1.000000   1.000000
    3      -25.253706    -25.254140   1.000000   1.000000
    4      -25.168351    -25.168210   1.000000   1.000000
    5      -24.547653    -24.546174   1.000000   1.000000
    6      -14.200893    -14.200659   1.000000   1.000000
    7      -12.966057    -12.966566   1.000000   1.000000
    8      -12.784821    -12.782739   1.000000   1.000000
    9      -12.029202    -12.028938   1.000000   1.000000
   10       -8.139090     -8.138987   1.000000   1.000000
   11       -7.856028     -7.855528   1.000000   1.000000
   12       -7.220373     -7.220418   1.000000   1.000000
   13       -6.743722     -6.743553   1.000000   1.000000
   14       -6.624469     -6.623808   1.000000   1.000000
   15       -6.260356     -6.258930   1.000000   1.000000
   16       -5.951205     -5.951368   1.000000   1.000000
   17       -5.588626     -5.588180   1.000000   1.000000
   18       -4.015590     -4.013883   1.000000   1.000000
   19       -3.843959     -3.843705   1.000000   1.000000
   20       -3.694997     -3.694380   1.000000   1.000000
   21       -3.549539     -3.549429   1.000000   1.000000
   22       -0.874306     -0.874177   1.000000   1.000000
   23       -0.614963     -0.614247   1.000000   1.000000
   24       -0.172168     -0.172098   1.000000   1.000000
   25        0.380416      0.381885   1.000000   1.000000
   26        2.321818      2.324047   0.000000   0.000000
   27        2.418322      2.419229   0.000000   0.000000
   28        2.597290      2.597391   0.000000   0.000000
   29        2.819176      2.819107   0.000000   0.000000
   30        7.825254      7.825571   0.000000   0.000000
   31        9.821079      9.821276   0.000000   0.000000
   32       10.480070     10.480133   0.000000   0.000000
   33       10.885799     10.886442   0.000000   0.000000
   34       11.656093     11.656498   0.000000   0.000000
   35       12.590377     12.589852   0.000000   0.000000
   36       12.838089     12.838418   0.000000   0.000000
   37       13.782964     13.782817   0.000000   0.000000
   38       13.965918     13.965475   0.000000   0.000000
   39       14.783573     14.779174   0.000000   0.000000
   40       15.232262     15.133837   0.000000   0.000000
 
  0.5000000E+00  0.1428571E+00  0.3719954E-14  0.1020408E-01
    1      -43.487156    -43.486901   1.000000   1.000000
    2      -26.338414    -26.338014   1.000000   1.000000
    3      -25.256713    -25.257206   1.000000   1.000000
    4      -25.171460    -25.171255   1.000000   1.000000
    5      -24.547359    -24.545888   1.000000   1.000000
    6      -14.311329    -14.311092   1.000000   1.000000
    7      -12.859649    -12.860183   1.000000   1.000000
    8      -12.722900    -12.720729   1.000000   1.000000
    9      -12.057983    -12.057789   1.000000   1.000000
   10       -8.134167     -8.134069   1.000000   1.000000
   11       -7.887542     -7.887035   1.000000   1.000000
   12       -7.181142     -7.181194   1.000000   1.000000
   13       -6.732266     -6.731943   1.000000   1.000000
   14       -6.475534     -6.475502   1.000000   1.000000
   15       -6.382603     -6.380989   1.000000   1.000000
   16       -6.016261     -6.016034   1.000000   1.000000
   17       -5.606325     -5.605965   1.000000   1.000000
   18       -4.006948     -4.005228   1.000000   1.000000
   19       -3.844605     -3.844347   1.000000   1.000000
   20       -3.688328     -3.687760   1.000000   1.000000
   21       -3.542641     -3.542509   1.000000   1.000000
   22       -0.854892     -0.854767   1.000000   1.000000
   23       -0.533644     -0.533031   1.000000   1.000000
   24       -0.162592     -0.162476   1.000000   1.000000
   25        0.309857      0.311325   1.000000   1.000000
   26        2.309141      2.311459   0.000000   0.000000
   27        2.426941      2.427900   0.000000   0.000000
   28        2.587406      2.587487   0.000000   0.000000
   29        2.806014      2.805914   0.000000   0.000000
   30        7.229178      7.229474   0.000000   0.000000
   31       10.286750     10.286977   0.000000   0.000000
   32       10.589608     10.589453   0.000000   0.000000
   33       11.035081     11.035846   0.000000   0.000000
   34       11.460701     11.461471   0.000000   0.000000
   35       12.667102     12.667149   0.000000   0.000000
   36       13.014609     13.014243   0.000000   0.000000
   37       13.657806     13.658534   0.000000   0.000000
   38       14.004858     14.004387   0.000000   0.000000
   39       14.360256     14.359665   0.000000   0.000000
   40       15.044258     15.046409   0.000000   0.000000
 
 -0.3750000E+00  0.1428571E+00  0.3713491E-15  0.1020408E-01
    1      -43.487174    -43.486919   1.000000   1.000000
    2      -26.339018    -26.338619   1.000000   1.000000
    3      -25.257070    -25.257580   1.000000   1.000000
    4      -25.170680    -25.170459   1.000000   1.000000
    5      -24.546811    -24.545339   1.000000   1.000000
    6      -14.301278    -14.301050   1.000000   1.000000
    7      -12.842713    -12.842853   1.000000   1.000000
    8      -12.753195    -12.751479   1.000000   1.000000
    9      -12.054608    -12.054347   1.000000   1.000000
   10       -8.138514     -8.138421   1.000000   1.000000
   11       -7.905358     -7.904842   1.000000   1.000000
   12       -7.158055     -7.158120   1.000000   1.000000
   13       -6.733565     -6.733263   1.000000   1.000000
   14       -6.502143     -6.502072   1.000000   1.000000
   15       -6.384141     -6.382562   1.000000   1.000000
   16       -6.012498     -6.012254   1.000000   1.000000
   17       -5.583029     -5.582651   1.000000   1.000000
   18       -3.997197     -3.995444   1.000000   1.000000
   19       -3.855377     -3.855122   1.000000   1.000000
   20       -3.690144     -3.689633   1.000000   1.000000
   21       -3.539934     -3.539786   1.000000   1.000000
   22       -0.874660     -0.874540   1.000000   1.000000
   23       -0.546670     -0.546048   1.000000   1.000000
   24       -0.150707     -0.150605   1.000000   1.000000
   25        0.320095      0.321513   1.000000   1.000000
   26        2.298095      2.300505   0.000000   0.000000
   27        2.452306      2.453315   0.000000   0.000000
   28        2.580939      2.581001   0.000000   0.000000
   29        2.804683      2.804550   0.000000   0.000000
   30        7.278735      7.279038   0.000000   0.000000
   31       10.271275     10.271841   0.000000   0.000000
   32       10.693095     10.693027   0.000000   0.000000
   33       10.879941     10.880055   0.000000   0.000000
   34       11.663601     11.664549   0.000000   0.000000
   35       12.551749     12.551905   0.000000   0.000000
   36       12.790649     12.790806   0.000000   0.000000
   37       13.621727     13.620045   0.000000   0.000000
   38       14.000428     14.001302   0.000000   0.000000
   39       14.490479     14.495129   0.000000   0.000000
   40       15.164336     15.161106   0.000000   0.000000
 
 -0.2500000E+00  0.1428571E+00  0.1585543E-14  0.1020408E-01
    1      -43.487238    -43.486984   1.000000   1.000000
    2      -26.344413    -26.344015   1.000000   1.000000
    3      -25.254472    -25.254947   1.000000   1.000000
    4      -25.166503    -25.166325   1.000000   1.000000
    5      -24.546134    -24.544651   1.000000   1.000000
    6      -14.174540    -14.174338   1.000000   1.000000
    7      -12.931602    -12.931105   1.000000   1.000000
    8      -12.844088    -12.843084   1.000000   1.000000
    9      -12.032417    -12.032065   1.000000   1.000000
   10       -8.148142     -8.148042   1.000000   1.000000
   11       -7.889747     -7.889229   1.000000   1.000000
   12       -7.168210     -7.168292   1.000000   1.000000
   13       -6.796393     -6.796215   1.000000   1.000000
   14       -6.632986     -6.632392   1.000000   1.000000
   15       -6.263839     -6.262401   1.000000   1.000000
   16       -5.944649     -5.944744   1.000000   1.000000
   17       -5.541423     -5.540950   1.000000   1.000000
   18       -3.992022     -3.990230   1.000000   1.000000
   19       -3.870783     -3.870528   1.000000   1.000000
   20       -3.697953     -3.697482   1.000000   1.000000
   21       -3.543073     -3.542923   1.000000   1.000000
   22       -0.919705     -0.919584   1.000000   1.000000
   23       -0.645044     -0.644321   1.000000   1.000000
   24       -0.143597     -0.143570   1.000000   1.000000
   25        0.405378      0.406736   1.000000   1.000000
   26        2.293874      2.296307   0.000000   0.000000
   27        2.480632      2.481713   0.000000   0.000000
   28        2.580166      2.580199   0.000000   0.000000
   29        2.816351      2.816203   0.000000   0.000000
   30        7.963989      7.964349   0.000000   0.000000
   31        9.834201      9.834998   0.000000   0.000000
   32       10.563980     10.563204   0.000000   0.000000
   33       10.864329     10.864681   0.000000   0.000000
   34       11.585226     11.585838   0.000000   0.000000
   35       12.334265     12.334810   0.000000   0.000000
   36       12.895469     12.894827   0.000000   0.000000
   37       13.581361     13.581258   0.000000   0.000000
   38       13.953405     13.953994   0.000000   0.000000
   39       15.142753     15.144219   0.000000   0.000000
   40       15.377529     15.403383   0.000000   0.000000
 
 -0.1250000E+00  0.1428571E+00  0.2468901E-14  0.1020408E-01
    1      -43.487326    -43.487071   1.000000   1.000000
    2      -26.351459    -26.351065   1.000000   1.000000
    3      -25.250567    -25.250980   1.000000   1.000000
    4      -25.161335    -25.161229   1.000000   1.000000
    5      -24.545953    -24.544457   1.000000   1.000000
    6      -13.994961    -13.994804   1.000000   1.000000
    7      -13.039326    -13.039311   1.000000   1.000000
    8      -12.957171    -12.955633   1.000000   1.000000
    9      -12.019155    -12.018813   1.000000   1.000000
   10       -8.158561     -8.158451   1.000000   1.000000
   11       -7.841339     -7.840825   1.000000   1.000000
   12       -7.292862     -7.292862   1.000000   1.000000
   13       -7.073563     -7.073450   1.000000   1.000000
   14       -6.544612     -6.543618   1.000000   1.000000
   15       -6.063999     -6.062719   1.000000   1.000000
   16       -5.820148     -5.820637   1.000000   1.000000
   17       -5.555186     -5.554580   1.000000   1.000000
   18       -3.993207     -3.991398   1.000000   1.000000
   19       -3.881113     -3.880852   1.000000   1.000000