Automatically generated mesh
      60
Reciprocal lattice
    0.00000000000000    0.00000000000000    0.00000000000000             1
    0.14285714285715   -0.00000000000000   -0.00000000000000             4
    0.28571428571428    0.00000000000000   -0.00000000000000             4
    0.42857142857143    0.00000000000000    0.00000000000000             4
    0.14285714285715    0.14285714285715   -0.00000000000000             2
    0.28571428571428    0.14285714285715   -0.00000000000000             4
    0.42857142857143    0.14285714285715    0.00000000000000             4
   -0.42857142857143    0.14285714285715   -0.00000000000000             4
   -0.28571428571428    0.14285714285715   -0.00000000000000             4
   -0.14285714285715    0.14285714285715   -0.00000000000000             2
    0.28571428571428    0.28571428571428   -0.00000000000000             2
    0.42857142857143    0.28571428571428   -0.00000000000000             4
   -0.42857142857143    0.28571428571428   -0.00000000000000             4
   -0.28571428571428    0.28571428571428   -0.00000000000000             2
    0.42857142857143    0.42857142857143    0.00000000000000             2
   -0.42857142857143    0.42857142857143   -0.00000000000000             2
   -0.00000000000000   -0.00000000000000    0.25000000000000             2
    0.14285714285715    0.00000000000000    0.25000000000000             4
    0.28571428571428    0.00000000000000    0.25000000000000             4
    0.42857142857143    0.00000000000000    0.25000000000000             4
   -0.42857142857143   -0.00000000000000    0.25000000000000             4
   -0.28571428571428   -0.00000000000000    0.25000000000000             4
   -0.14285714285715    0.00000000000000    0.25000000000000             4
    0.14285714285715    0.14285714285715    0.25000000000000             2
    0.28571428571428    0.14285714285715    0.25000000000000             4
    0.42857142857143    0.14285714285715    0.25000000000000             4
   -0.42857142857143    0.14285714285715    0.25000000000000             4
   -0.28571428571428    0.14285714285715    0.25000000000000             4
   -0.14285714285715    0.14285714285715    0.25000000000000             4
    0.28571428571428    0.28571428571428    0.25000000000000             2
    0.42857142857143    0.28571428571428    0.25000000000000             4
   -0.42857142857143    0.28571428571428    0.25000000000000             4
   -0.28571428571428    0.28571428571428    0.25000000000000             4
   -0.14285714285715    0.28571428571428    0.25000000000000             4
    0.42857142857143    0.42857142857143    0.25000000000000             2
   -0.42857142857143    0.42857142857143    0.25000000000000             4
   -0.28571428571428    0.42857142857143    0.25000000000000             4
   -0.14285714285715    0.42857142857143    0.25000000000000             4
   -0.42857142857143   -0.42857142857143    0.25000000000000             2
   -0.28571428571428   -0.42857142857143    0.25000000000000             4
   -0.14285714285715   -0.42857142857143    0.25000000000000             4
   -0.28571428571428   -0.28571428571428    0.25000000000000             2
   -0.14285714285715   -0.28571428571428    0.25000000000000             4
   -0.14285714285715   -0.14285714285715    0.25000000000000             2
   -0.00000000000000   -0.00000000000000    0.50000000000000             1
    0.14285714285715   -0.00000000000000    0.50000000000000             4
    0.28571428571428    0.00000000000000    0.50000000000000             4
    0.42857142857143    0.00000000000000    0.50000000000000             4
    0.14285714285715    0.14285714285715    0.50000000000000             2
    0.28571428571428    0.14285714285715    0.50000000000000             4
    0.42857142857143    0.14285714285715    0.50000000000000             4
   -0.42857142857143    0.14285714285715    0.50000000000000             4
   -0.28571428571428    0.14285714285715    0.50000000000000             4
   -0.14285714285715    0.14285714285715    0.50000000000000             2
    0.28571428571428    0.28571428571428    0.50000000000000             2
    0.42857142857143    0.28571428571428    0.50000000000000             4
   -0.42857142857143    0.28571428571428    0.50000000000000             4
   -0.28571428571428    0.28571428571428    0.50000000000000             2
    0.42857142857143    0.42857142857143    0.50000000000000             2
   -0.42857142857143    0.42857142857143    0.50000000000000             2
Tetrahedra
       294    0.00085034013605
         4         1         2         5        24
         4         1         2        18        24
         4         1        17        18        24
         4         2         5         6        25
         4         2         3         6        25
         4         2         3        19        25
         4         2         5        24        25
         4         2        18        24        25
         4         2        18        19        25
         4         3         6         7        26
         4         3         4         7        26
         4         3         4        20        26
         4         3         6        25        26
         4         3        19        25        26
         4         3        19        20        26
         4         4         7         8        27
         4         4         4         8        27
         4         4         4        21        27
         4         4         7        26        27
         4         4        20        26        27
         4         4        20        21        27
         4         4         8         9        28
         4         3         4         9        28
         4         3         4        22        28
         4         4         8        27        28
         4         4        21        27        28
         4         4        21        22        28
         4         3         9        10        29
         4         2         3        10        29
         4         2         3        23        29
         4         3         9        28        29
         4         3        22        28        29
         4         3        22        23        29
         4         2         2        10        18
         4         1         2         2        18
         4         1         2        17        18
         4         2        10        18        29
         4         2        18        23        29
         4         2        17        18        23
         4         5         6        11        30
         4         5         6        25        30
         4         5        24        25        30
         4         6        11        12        31
         4         6         7        12        31
         4         6         7        26        31
         4         6        11        30        31
         4         6        25        30        31
         4         6        25        26        31
         4         7        12        13        32
         4         7         8        13        32
         4         7         8        27        32
         4         7        12        31        32
         4         7        26        31        32
         4         7        26        27        32
         4         8        13        14        33
         4         8         9        14        33
         4         8         9        28        33
         4         8        13        32        33
         4         8        27        32        33
         4         8        27        28        33
         4         9         9        14        34
         4         9         9        10        34
         4         9        10        29        34
         4         9        14        33        34
         4         9        28        33        34
         4         9        28        29        34
         4         3         9        10        19
         4         2         3        10        19
         4         2        10        18        19
         4         9        10        19        34
         4        10        19        29        34
         4        10        18        19        29
         4        11        12        15        35
         4        11        12        31        35
         4        11        30        31        35
         4        12        15        16        36
         4        12        13        16        36
         4        12        13        32        36
         4        12        15        35        36
         4        12        31        35        36
         4        12        31        32        36
         4        13        13        16        37
         4        13        13        14        37
         4        13        14        33        37
         4        13        16        36        37
         4        13        32        36        37
         4        13        32        33        37
         4         8        13        14        38
         4         8         9        14        38
         4         9        14        34        38
         4        13        14        37        38
         4        14        33        37        38
         4        14        33        34        38
         4         4         8         9        20
         4         3         4         9        20
         4         3         9        19        20
         4         8         9        20        38
         4         9        20        34        38
         4         9        19        20        34
         4        15        15        16        39
         4        15        16        36        39
         4        15        35        36        39
         4        12        15        16        40
         4        12        13        16        40
         4        13        16        37        40
         4        15        16        39        40
         4        16        36        39        40
         4        16        36        37        40
         4         7        12        13        41
         4         7         8        13        41
         4         8        13        38        41
         4        12        13        40        41
         4        13        37        40        41
         4        13        37        38        41
         4         4         7         8        21
         4         4         4         8        21
         4         4         8        20        21
         4         7         8        21        41
         4         8        21        38        41
         4         8        20        21        38
         4        11        12        15        42
         4        12        15        40        42
         4        15        39        40        42
         4         6        11        12        43
         4         6         7        12        43
         4         7        12        41        43
         4        11        12        42        43
         4        12        40        42        43
         4        12        40        41        43
         4         3         6         7        22
         4         3         4         7        22
         4         4         7        21        22
         4         6         7        22        43
         4         7        22        41        43
         4         7        21        22        41
         4         5         6        11        44
         4         6        11        43        44
         4        11        42        43        44
         4         2         5         6        23
         4         2         3         6        23
         4         3         6        22        23
         4         5         6        23        44
         4         6        23        43        44
         4         6        22        23        43
         4         1         2         5        17
         4         2         5        17        23
         4         5        17        23        44
         4        17        18        24        49
         4        17        18        46        49
         4        17        45        46        49
         4        18        24        25        50
         4        18        19        25        50
         4        18        19        47        50
         4        18        24        49        50
         4        18        46        49        50
         4        18        46        47        50
         4        19        25        26        51
         4        19        20        26        51
         4        19        20        48        51
         4        19        25        50        51
         4        19        47        50        51
         4        19        47        48        51
         4        20        26        27        52
         4        20        21        27        52
         4        20        21        48        52
         4        20        26        51        52
         4        20        48        51        52
         4        20        48        48        52
         4        21        27        28        53
         4        21        22        28        53
         4        21        22        47        53
         4        21        27        52        53
         4        21        48        52        53
         4        21        47        48        53
         4        22        28        29        54
         4        22        23        29        54
         4        22        23        46        54
         4        22        28        53        54
         4        22        47        53        54
         4        22        46        47        54
         4        18        23        29        46
         4        17        18        23        46
         4        17        23        45        46
         4        23        29        46        54
         4        23        46        46        54
         4        23        45        46        46
         4        24        25        30        55
         4        24        25        50        55
         4        24        49        50        55
         4        25        30        31        56
         4        25        26        31        56
         4        25        26        51        56
         4        25        30        55        56
         4        25        50        55        56
         4        25        50        51        56
         4        26        31        32        57
         4        26        27        32        57
         4        26        27        52        57
         4        26        31        56        57
         4        26        51        56        57
         4        26        51        52        57
         4        27        32        33        58
         4        27        28        33        58
         4        27        28        53        58
         4        27        32        57        58
         4        27        52        57        58
         4        27        52        53        58
         4        28        33        34        53
         4        28        29        34        53
         4        28        29        53        54
         4        28        33        53        58
         4        28        53        53        58
         4        28        53        53        54
         4        19        29        34        47
         4        18        19        29        47
         4        18        29        46        47
         4        29        34        47        53
         4        29        47        53        54
         4        29        46        47        54
         4        30        31        35        59
         4        30        31        56        59
         4        30        55        56        59
         4        31        35        36        60
         4        31        32        36        60
         4        31        32        57        60
         4        31        35        59        60
         4        31        56        59        60
         4        31        56        57        60
         4        32        36        37        57
         4        32        33        37        57
         4        32        33        57        58
         4        32        36        57        60
         4        32        57        57        60
         4        32        57        57        58
         4        33        37        38        52
         4        33        34        38        52
         4        33        34        52        53
         4        33        37        52        57
         4        33        52        57        58
         4        33        52        53        58
         4        20        34        38        48
         4        19        20        34        48
         4        19        34        47        48
         4        34        38        48        52
         4        34        48        52        53
         4        34        47        48        53
         4        35        36        39        59
         4        35        36        59        60
         4        35        59        59        60
         4        36        39        40        56
         4        36        37        40        56
         4        36        37        56        57
         4        36        39        56        59
         4        36        56        59        60
         4        36        56        57        60
         4        37        40        41        51
         4        37        38        41        51
         4        37        38        51        52
         4        37        40        51        56
         4        37        51        56        57
         4        37        51        52        57
         4        21        38        41        48
         4        20        21        38        48
         4        20        38        48        48
         4        38        41        48        51
         4        38        48        51        52
         4        38        48        48        52
         4        39        40        42        55
         4        39        40        55        56
         4        39        55        56        59
         4        40        42        43        50
         4        40        41        43        50
         4        40        41        50        51
         4        40        42        50        55
         4        40        50        55        56
         4        40        50        51        56
         4        22        41        43        47
         4        21        22        41        47
         4        21        41        47        48
         4        41        43        47        50
         4        41        47        50        51
         4        41        47        48        51
         4        42        43        44        49
         4        42        43        49        50
         4        42        49        50        55
         4        23        43        44        46
         4        22        23        43        46
         4        22        43        46        47
         4        43        44        46        49
         4        43        46        49        50
         4        43        46        47        50
         4        17        23        44        45
         4        23        44        45        46
         4        44        45        46        49
