 running on    8 total cores
 distrk:  each k-point on    8 cores,    1 groups
 distr:  one band on    1 cores,    8 groups
 using from now: INCAR     
 vasp.6.1.2 22Jul20 (build Mar 20 2021 11:25:07) complex                        
  
 POSCAR found type information on POSCAR P N 
 POSCAR found :  2 types and      16 ions
 scaLAPACK will be used
 -----------------------------------------------------------------------------
|                                                                             |
|           W    W    AA    RRRRR   N    N  II  N    N   GGGG   !!!           |
|           W    W   A  A   R    R  NN   N  II  NN   N  G    G  !!!           |
|           W    W  A    A  R    R  N N  N  II  N N  N  G       !!!           |
|           W WW W  AAAAAA  RRRRR   N  N N  II  N  N N  G  GGG   !            |
|           WW  WW  A    A  R   R   N   NN  II  N   NN  G    G                |
|           W    W  A    A  R    R  N    N  II  N    N   GGGG   !!!           |
|                                                                             |
|     The value NCORE = 6 specified in the INCAR file was overwritten,        |
|     because it was not compatible with the 8 processes available:           |
|     NCORE = 1                                                               |
|     was used instead, please check that this makes sense for your           |
|     machine.                                                                |
|                                                                             |
 -----------------------------------------------------------------------------

 -----------------------------------------------------------------------------
|                                                                             |
|           W    W    AA    RRRRR   N    N  II  N    N   GGGG   !!!           |
|           W    W   A  A   R    R  NN   N  II  NN   N  G    G  !!!           |
|           W    W  A    A  R    R  N N  N  II  N N  N  G       !!!           |
|           W WW W  AAAAAA  RRRRR   N  N N  II  N  N N  G  GGG   !            |
|           WW  WW  A    A  R   R   N   NN  II  N   NN  G    G                |
|           W    W  A    A  R    R  N    N  II  N    N   GGGG   !!!           |
|                                                                             |
|     For optimal performance we recommend to set                             |
|       NCORE = 4 - approx SQRT(number of cores).                             |
|     NCORE specifies how many cores store one orbital (NPAR=cpu/NCORE).      |
|     This setting can greatly improve the performance of VASP for DFT.       |
|     The default, NCORE=1 might be grossly inefficient on modern             |
|     multi-core architectures or massively parallel machines. Do your        |
|     own testing!!!!                                                         |
|     Unfortunately you need to use the default for GW and RPA                |
|     calculations (for HF NCORE is supported but not extensively tested      |
|     yet).                                                                   |
|                                                                             |
 -----------------------------------------------------------------------------

 LDA part: xc-table for Pade appr. of Perdew
 generate k-points for:    7    7    4
 POSCAR, INCAR and KPOINTS ok, starting setup
 FFT: planning ...
 WAVECAR not read
 entering main loop
       N       E                     dE             d eps       ncg     rms          rms(c)
DAV:   1     0.451023761385E+03    0.45102E+03   -0.39111E+04 13440   0.129E+03
DAV:   2    -0.969911086967E+02   -0.54801E+03   -0.52383E+03 17232   0.291E+02
DAV:   3    -0.135304516276E+03   -0.38313E+02   -0.37951E+02 16864   0.808E+01
DAV:   4    -0.136073579182E+03   -0.76906E+00   -0.76536E+00 17496   0.121E+01
DAV:   5    -0.136094469659E+03   -0.20890E-01   -0.20864E-01 16544   0.188E+00    0.417E+01
DAV:   6    -0.116938612567E+03    0.19156E+02   -0.64395E+01 15944   0.305E+01    0.204E+01
DAV:   7    -0.119645532774E+03   -0.27069E+01   -0.92405E+00 16248   0.112E+01    0.689E+00
DAV:   8    -0.120156936054E+03   -0.51140E+00   -0.10807E+00 16472   0.413E+00    0.409E+00
DAV:   9    -0.120166569601E+03   -0.96335E-02   -0.89155E-02 16256   0.149E+00    0.202E+00
DAV:  10    -0.120165275853E+03    0.12937E-02   -0.23168E-02 18024   0.791E-01    0.428E-01
DAV:  11    -0.120167540637E+03   -0.22648E-02   -0.52874E-03 16048   0.370E-01    0.252E-01
DAV:  12    -0.120167989711E+03   -0.44907E-03   -0.62190E-04 17736   0.128E-01    0.153E-01
DAV:  13    -0.120168225591E+03   -0.23588E-03   -0.21592E-04 15912   0.704E-02    0.585E-02
DAV:  14    -0.120168273729E+03   -0.48138E-04   -0.30317E-05 13960   0.269E-02    0.183E-02
DAV:  15    -0.120168283644E+03   -0.99152E-05   -0.99214E-06 10680   0.153E-02
   1 F= -.12016828E+03 E0= -.12016828E+03  d E =0.000000E+00  mag=     0.0001
