   16   16    1    2
  0.1444881E+02  0.4572754E-09  0.5593872E-09  0.1025075E-08  0.5000000E-15
  1.000000000000000E-004
  CAR 
 unknown system                          
     64     56     46
 
  0.0000000E+00  0.0000000E+00  0.0000000E+00  0.5952381E-02
    1      -40.740958    -40.740942   1.000000   1.000000
    2      -40.736936    -40.736905   1.000000   1.000000
    3      -40.731206    -40.731233   1.000000   1.000000
    4      -40.726779    -40.726803   1.000000   1.000000
    5      -40.724719    -40.724714   1.000000   1.000000
    6      -40.724008    -40.724018   1.000000   1.000000
    7      -40.722143    -40.722096   1.000000   1.000000
    8      -40.721963    -40.721918   1.000000   1.000000
    9       -8.810939     -8.810955   1.000000   1.000000
   10       -8.532972     -8.532985   1.000000   1.000000
   11       -5.957424     -5.957433   1.000000   1.000000
   12       -5.559282     -5.559285   1.000000   1.000000
   13       -5.333258     -5.333262   1.000000   1.000000
   14       -5.290736     -5.290737   1.000000   1.000000
   15       -1.722023     -1.722028   1.000000   1.000000
   16       -1.441984     -1.441981   1.000000   1.000000
   17       -0.665388     -0.665393   1.000000   1.000000
   18        0.063697      0.063669   1.000000   1.000000
   19        0.103433      0.103433   1.000000   1.000000
   20        0.465080      0.465059   1.000000   1.000000
   21        1.116458      1.116431   1.000000   1.000000
   22        1.420116      1.420099   1.000000   1.000000
   23        1.598946      1.598928   1.000000   1.000000
   24        1.843981      1.843965   1.000000   1.000000
   25        2.504581      2.504569   1.000000   1.000000
   26        2.751202      2.751200   1.000000   1.000000
   27        3.115073      3.115067   1.000000   1.000000
   28        3.312615      3.312611   1.000000   1.000000
   29        3.791865      3.791858   1.000000   1.000000
   30        4.159068      4.159056   1.000000   1.000000
   31        4.166489      4.166482   1.000000   1.000000
   32        4.844291      4.844286   1.000000   1.000000
   33        6.224624      6.224618   0.000000   0.000000
   34        6.610808      6.610796   0.000000   0.000000
   35        6.632928      6.632925   0.000000   0.000000
   36        7.295867      7.295845   0.000000   0.000000
   37        7.605744      7.605723   0.000000   0.000000
   38        8.270718      8.270709   0.000000   0.000000
   39        8.538944      8.538907   0.000000   0.000000
   40        8.542561      8.542525   0.000000   0.000000
   41        9.128644      9.128628   0.000000   0.000000
   42        9.208541      9.208564   0.000000   0.000000
   43        9.629890      9.629884   0.000000   0.000000
   44        9.699100      9.699115   0.000000   0.000000
   45        9.887338      9.887374   0.000000   0.000000
   46       10.236143     10.241296   0.000000   0.000000
 
  0.1428571E+00  0.0000000E+00  0.0000000E+00  0.1190476E-01
    1      -40.740290    -40.740274   1.000000   1.000000
    2      -40.736467    -40.736436   1.000000   1.000000
    3      -40.730946    -40.730973   1.000000   1.000000
    4      -40.726911    -40.726934   1.000000   1.000000
    5      -40.725852    -40.725839   1.000000   1.000000
    6      -40.725567    -40.725567   1.000000   1.000000
    7      -40.721425    -40.721385   1.000000   1.000000
    8      -40.721118    -40.721085   1.000000   1.000000
    9       -8.722045     -8.722060   1.000000   1.000000
   10       -8.448026     -8.448039   1.000000   1.000000
   11       -6.277026     -6.277032   1.000000   1.000000
   12       -6.118293     -6.118298   1.000000   1.000000
   13       -5.005336     -5.005340   1.000000   1.000000
   14       -4.788931     -4.788934   1.000000   1.000000
   15       -2.085149     -2.085150   1.000000   1.000000
   16       -1.580960     -1.580959   1.000000   1.000000
   17       -0.559857     -0.559864   1.000000   1.000000
   18        0.139748      0.139722   1.000000   1.000000
   19        0.275388      0.275362   1.000000   1.000000
   20        0.375093      0.375090   1.000000   1.000000
   21        0.789309      0.789282   1.000000   1.000000
   22        1.459484      1.459467   1.000000   1.000000
   23        1.687445      1.687435   1.000000   1.000000
   24        1.852932      1.852923   1.000000   1.000000
   25        2.717921      2.717908   1.000000   1.000000
   26        2.929365      2.929362   1.000000   1.000000
   27        2.965887      2.965877   1.000000   1.000000
   28        3.346601      3.346590   1.000000   1.000000
   29        3.657592      3.657580   1.000000   1.000000
   30        3.748934      3.748919   1.000000   1.000000
   31        4.001475      4.001462   1.000000   1.000000
   32        4.895951      4.895941   1.000000   1.000000
   33        6.426194      6.426181   0.000000   0.000000
   34        6.754534      6.754533   0.000000   0.000000
   35        7.196640      7.196630   0.000000   0.000000
   36        7.284761      7.284750   0.000000   0.000000
   37        7.913079      7.913066   0.000000   0.000000
   38        8.023048      8.023034   0.000000   0.000000
   39        8.180731      8.180723   0.000000   0.000000
   40        9.076982      9.076978   0.000000   0.000000
   41        9.094862      9.094841   0.000000   0.000000
   42        9.453023      9.453026   0.000000   0.000000
   43        9.517637      9.517624   0.000000   0.000000
   44        9.762496      9.762491   0.000000   0.000000
   45        9.953700      9.954157   0.000000   0.000000
   46       10.318253     10.301047   0.000000   0.000000
 
  0.2857143E+00  0.0000000E+00  0.0000000E+00  0.1190476E-01
    1      -40.738361    -40.738343   1.000000   1.000000
    2      -40.735206    -40.735172   1.000000   1.000000
    3      -40.730229    -40.730257   1.000000   1.000000
    4      -40.728406    -40.728402   1.000000   1.000000
    5      -40.727956    -40.727940   1.000000   1.000000
    6      -40.727323    -40.727350   1.000000   1.000000
    7      -40.720540    -40.720506   1.000000   1.000000
    8      -40.720267    -40.720236   1.000000   1.000000
    9       -8.460042     -8.460056   1.000000   1.000000
   10       -8.199374     -8.199385   1.000000   1.000000
   11       -6.863745     -6.863751   1.000000   1.000000
   12       -6.737841     -6.737848   1.000000   1.000000
   13       -4.519114     -4.519120   1.000000   1.000000
   14       -4.154632     -4.154634   1.000000   1.000000
   15       -2.694802     -2.694802   1.000000   1.000000
   16       -2.145953     -2.145952   1.000000   1.000000
   17       -0.159675     -0.159684   1.000000   1.000000
   18        0.082217      0.082187   1.000000   1.000000
   19        0.355143      0.355122   1.000000   1.000000
   20        0.585806      0.585780   1.000000   1.000000
   21        0.819138      0.819134   1.000000   1.000000
   22        0.952681      0.952661   1.000000   1.000000
   23        1.728187      1.728184   1.000000   1.000000
   24        1.790250      1.790248   1.000000   1.000000
   25        2.312402      2.312381   1.000000   1.000000
   26        2.801676      2.801660   1.000000   1.000000
   27        3.038996      3.038979   1.000000   1.000000
   28        3.259611      3.259606   1.000000   1.000000
   29        3.707860      3.707844   1.000000   1.000000
   30        3.857812      3.857792   1.000000   1.000000
   31        3.949733      3.949716   1.000000   1.000000
   32        4.959082      4.959068   1.000000   1.000000
   33        6.649583      6.649561   0.000000   0.000000
   34        7.064076      7.064077   0.000000   0.000000
   35        7.173058      7.173057   0.000000   0.000000
   36        7.815012      7.814996   0.000000   0.000000
   37        7.916691      7.916693   0.000000   0.000000
   38        8.499258      8.499266   0.000000   0.000000
   39        8.600016      8.600020   0.000000   0.000000
   40        9.027650      9.027631   0.000000   0.000000
   41        9.098831      9.098819   0.000000   0.000000
   42        9.253180      9.253172   0.000000   0.000000
   43       10.167455     10.167431   0.000000   0.000000
   44       10.288372     10.288374   0.000000   0.000000
   45       10.444616     10.444725   0.000000   0.000000
   46       10.653843     10.657113   0.000000   0.000000
 
  0.4285714E+00  0.0000000E+00  0.0000000E+00  0.1190476E-01
    1      -40.735598    -40.735573   1.000000   1.000000
    2      -40.733751    -40.733705   1.000000   1.000000
    3      -40.731159    -40.731169   1.000000   1.000000
    4      -40.730388    -40.730383   1.000000   1.000000
    5      -40.729057    -40.729078   1.000000   1.000000
    6      -40.728082    -40.728108   1.000000   1.000000
    7      -40.720002    -40.719969   1.000000   1.000000
    8      -40.719890    -40.719858   1.000000   1.000000
    9       -8.039966     -8.039978   1.000000   1.000000
   10       -7.806568     -7.806577   1.000000   1.000000
   11       -7.490603     -7.490612   1.000000   1.000000
   12       -7.304422     -7.304430   1.000000   1.000000
   13       -3.962484     -3.962488   1.000000   1.000000
   14       -3.501602     -3.501603   1.000000   1.000000
   15       -3.344669     -3.344671   1.000000   1.000000
   16       -2.823159     -2.823158   1.000000   1.000000
   17        0.111374      0.111347   1.000000   1.000000
   18        0.206700      0.206685   1.000000   1.000000
   19        0.551398      0.551379   1.000000   1.000000
   20        0.568360      0.568339   1.000000   1.000000
   21        0.733552      0.733536   1.000000   1.000000
   22        1.212072      1.212063   1.000000   1.000000
   23        1.247979      1.247978   1.000000   1.000000
   24        1.603797      1.603798   1.000000   1.000000
   25        1.988327      1.988298   1.000000   1.000000
   26        2.147740      2.147715   1.000000   1.000000
   27        3.083148      3.083129   1.000000   1.000000
   28        3.296002      3.295990   1.000000   1.000000
   29        3.732864      3.732849   1.000000   1.000000
   30        3.934334      3.934318   1.000000   1.000000
   31        4.624263      4.624248   1.000000   1.000000
   32        4.915887      4.915872   1.000000   1.000000
   33        6.956101      6.956082   0.000000   0.000000
   34        7.110243      7.110235   0.000000   0.000000
   35        7.243133      7.243136   0.000000   0.000000
   36        7.542982      7.542984   0.000000   0.000000
   37        8.181386      8.181364   0.000000   0.000000
   38        8.616600      8.616580   0.000000   0.000000
   39        9.050048      9.050033   0.000000   0.000000
   40        9.360002      9.359998   0.000000   0.000000
   41        9.375909      9.375919   0.000000   0.000000
   42        9.995131      9.995113   0.000000   0.000000
   43       10.180638     10.180651   0.000000   0.000000
   44       10.864888     10.864902   0.000000   0.000000
   45       10.890489     10.890477   0.000000   0.000000
   46       11.068008     11.067990   0.000000   0.000000
 
  0.0000000E+00  0.1666667E+00  0.2543196E-15  0.1190476E-01
    1      -40.740037    -40.740021   1.000000   1.000000
    2      -40.736865    -40.736840   1.000000   1.000000
    3      -40.730726    -40.730742   1.000000   1.000000
    4      -40.727533    -40.727555   1.000000   1.000000
    5      -40.726316    -40.726299   1.000000   1.000000
    6      -40.725976    -40.725976   1.000000   1.000000
    7      -40.720740    -40.720708   1.000000   1.000000
    8      -40.720489    -40.720459   1.000000   1.000000
    9       -8.765184     -8.765199   1.000000   1.000000
   10       -8.546950     -8.546962   1.000000   1.000000
   11       -5.874460     -5.874471   1.000000   1.000000
   12       -5.608838     -5.608841   1.000000   1.000000
   13       -5.485181     -5.485184   1.000000   1.000000
   14       -5.326942     -5.326945   1.000000   1.000000
   15       -1.628353     -1.628358   1.000000   1.000000
   16       -1.300944     -1.300942   1.000000   1.000000
   17       -0.638640     -0.638647   1.000000   1.000000
   18       -0.210536     -0.210539   1.000000   1.000000
   19        0.128818      0.128792   1.000000   1.000000
   20        0.645388      0.645366   1.000000   1.000000
   21        1.007857      1.007836   1.000000   1.000000
   22        1.399385      1.399370   1.000000   1.000000
   23        1.625450      1.625431   1.000000   1.000000
   24        1.788115      1.788097   1.000000   1.000000
   25        2.372957      2.372946   1.000000   1.000000
   26        2.963262      2.963261   1.000000   1.000000
   27        3.026704      3.026697   1.000000   1.000000
   28        3.604313      3.604308   1.000000   1.000000
   29        3.931316      3.931307   1.000000   1.000000
   30        4.052506      4.052499   1.000000   1.000000
   31        4.195091      4.195080   1.000000   1.000000
   32        4.695425      4.695420   1.000000   1.000000
   33        6.388635      6.388626   0.000000   0.000000
   34        6.672291      6.672277   0.000000   0.000000
   35        6.672670      6.672664   0.000000   0.000000
   36        7.512438      7.512419   0.000000   0.000000
   37        7.600526      7.600514   0.000000   0.000000
   38        7.793590      7.793581   0.000000   0.000000
   39        8.544756      8.544723   0.000000   0.000000
   40        8.620428      8.620394   0.000000   0.000000
   41        9.329368      9.329384   0.000000   0.000000
   42        9.424360      9.424367   0.000000   0.000000
   43        9.578053      9.578045   0.000000   0.000000
   44        9.602815      9.602808   0.000000   0.000000
   45        9.774523      9.774538   0.000000   0.000000
   46       10.216860     10.217134   0.000000   0.000000
 
  0.1428571E+00  0.1666667E+00  0.2543196E-15  0.2380952E-01
    1      -40.739528    -40.739511   1.000000   1.000000
    2      -40.736274    -40.736248   1.000000   1.000000
    3      -40.730623    -40.730635   1.000000   1.000000
    4      -40.728052    -40.728048   1.000000   1.000000
    5      -40.727593    -40.727616   1.000000   1.000000
    6      -40.724775    -40.724777   1.000000   1.000000
    7      -40.722031    -40.721988   1.000000   1.000000
    8      -40.719688    -40.719659   1.000000   1.000000
    9       -8.676698     -8.676714   1.000000   1.000000
   10       -8.462911     -8.462923   1.000000   1.000000
   11       -6.240695     -6.240702   1.000000   1.000000
   12       -6.155664     -6.155668   1.000000   1.000000
   13       -5.090014     -5.090020   1.000000   1.000000
   14       -4.850607     -4.850609   1.000000   1.000000
   15       -1.987598     -1.987599   1.000000   1.000000
   16       -1.596847     -1.596846   1.000000   1.000000
   17       -0.459319     -0.459329   1.000000   1.000000
   18       -0.079687     -0.079709   1.000000   1.000000
   19        0.149776      0.149762   1.000000   1.000000
   20        0.713017      0.713000   1.000000   1.000000
   21        0.783840      0.783815   1.000000   1.000000
   22        1.342623      1.342607   1.000000   1.000000
   23        1.582861      1.582852   1.000000   1.000000
   24        1.912702      1.912692   1.000000   1.000000
   25        2.509921      2.509910   1.000000   1.000000
   26        2.913164      2.913152   1.000000   1.000000
   27        3.144396      3.144391   1.000000   1.000000
   28        3.687876      3.687868   1.000000   1.000000
   29        3.734446      3.734432   1.000000   1.000000
   30        3.906255      3.906241   1.000000   1.000000
   31        3.959863      3.959850   1.000000   1.000000
   32        4.924521      4.924514   1.000000   1.000000
   33        6.508362      6.508349   0.000000   0.000000
   34        6.722633      6.722630   0.000000   0.000000
   35        7.066126      7.066114   0.000000   0.000000
   36        7.392940      7.392934   0.000000   0.000000
   37        7.496933      7.496926   0.000000   0.000000
   38        7.996665      7.996655   0.000000   0.000000
   39        8.508079      8.508062   0.000000   0.000000
   40        8.878514      8.878498   0.000000   0.000000
   41        9.212041      9.212027   0.000000   0.000000
   42        9.435471      9.435468   0.000000   0.000000
   43        9.750141      9.750146   0.000000   0.000000
   44        9.859313      9.859308   0.000000   0.000000
   45        9.972450      9.972450   0.000000   0.000000
   46       10.244206     10.244226   0.000000   0.000000
 
  0.2857143E+00  0.1666667E+00  0.2543196E-15  0.2380952E-01
    1      -40.738098    -40.738078   1.000000   1.000000
    2      -40.734657    -40.734626   1.000000   1.000000
    3      -40.731065    -40.731060   1.000000   1.000000
    4      -40.729287    -40.729308   1.000000   1.000000
    5      -40.727837    -40.727862   1.000000   1.000000
    6      -40.725800    -40.725799   1.000000   1.000000
    7      -40.721964    -40.721922   1.000000   1.000000
    8      -40.719497    -40.719467   1.000000   1.000000
    9       -8.416241     -8.416255   1.000000   1.000000
   10       -8.217423     -8.217434   1.000000   1.000000
   11       -6.816115     -6.816121   1.000000   1.000000
   12       -6.779707     -6.779713   1.000000   1.000000
   13       -4.558717     -4.558724   1.000000   1.000000
   14       -4.248864     -4.248866   1.000000   1.000000
   15       -2.619806     -2.619807   1.000000   1.000000
   16       -2.252163     -2.252162   1.000000   1.000000
   17       -0.275065     -0.275093   1.000000   1.000000
   18        0.067555      0.067539   1.000000   1.000000
   19        0.371530      0.371516   1.000000   1.000000
   20        0.647967      0.647945   1.000000   1.000000
   21        0.784135      0.784113   1.000000   1.000000
   22        0.987387      0.987380   1.000000   1.000000
   23        1.628275      1.628271   1.000000   1.000000
   24        1.915598      1.915595   1.000000   1.000000
   25        2.459222      2.459205   1.000000   1.000000
   26        2.761911      2.761895   1.000000   1.000000
   27        3.230541      3.230523   1.000000   1.000000
   28        3.598751      3.598738   1.000000   1.000000
   29        3.641968      3.641953   1.000000   1.000000
   30        3.737650      3.737638   1.000000   1.000000
   31        4.092396      4.092380   1.000000   1.000000
   32        5.080193      5.080180   1.000000   1.000000
   33        6.735486      6.735467   0.000000   0.000000
   34        7.091025      7.091020   0.000000   0.000000
   35        7.405385      7.405383   0.000000   0.000000
   36        7.552285      7.552287   0.000000   0.000000
   37        7.919055      7.919044   0.000000   0.000000
   38        8.219801      8.219792   0.000000   0.000000
   39        8.685698      8.685698   0.000000   0.000000
   40        8.933432      8.933423   0.000000   0.000000
   41        9.224209      9.224203   0.000000   0.000000
   42        9.509516      9.509529   0.000000   0.000000
   43       10.064292     10.064271   0.000000   0.000000
   44       10.157214     10.157218   0.000000   0.000000
   45       10.263168     10.263156   0.000000   0.000000
   46       10.475188     10.475244   0.000000   0.000000
 
  0.4285714E+00  0.1666667E+00  0.2543196E-15  0.2380952E-01
    1      -40.736038    -40.736013   1.000000   1.000000
    2      -40.733934    -40.733893   1.000000   1.000000
    3      -40.731407    -40.731413   1.000000   1.000000
    4      -40.729160    -40.729173   1.000000   1.000000
    5      -40.728484    -40.728506   1.000000   1.000000
    6      -40.728065    -40.728073   1.000000   1.000000
    7      -40.720880    -40.720845   1.000000   1.000000
    8      -40.719965    -40.719933   1.000000   1.000000
    9       -8.001084     -8.001095   1.000000   1.000000
   10       -7.835355     -7.835364   1.000000   1.000000
   11       -7.440260     -7.440269   1.000000   1.000000
   12       -7.326590     -7.326597   1.000000   1.000000
   13       -3.965902     -3.965907   1.000000   1.000000
   14       -3.629591     -3.629591   1.000000   1.000000
   15       -3.293864     -3.293867   1.000000   1.000000
   16       -2.945504     -2.945504   1.000000   1.000000
   17       -0.172301     -0.172330   1.000000   1.000000
   18        0.158763      0.158739   1.000000   1.000000
   19        0.369438      0.369419   1.000000   1.000000
   20        0.547015      0.546999   1.000000   1.000000
   21        0.851277      0.851265   1.000000   1.000000
   22        1.376759      1.376757   1.000000   1.000000
   23        1.429927      1.429920   1.000000   1.000000
   24        1.632237      1.632236   1.000000   1.000000
   25        2.330739      2.330710   1.000000   1.000000
   26        2.550213      2.550186   1.000000   1.000000
   27        3.009929      3.009918   1.000000   1.000000
   28        3.303617      3.303609   1.000000   1.000000
   29        3.679200      3.679180   1.000000   1.000000
   30        3.774577      3.774559   1.000000   1.000000
   31        4.701079      4.701066   1.000000   1.000000
   32        5.038017      5.038002   1.000000   1.000000
   33        7.083352      7.083335   0.000000   0.000000
   34        7.326830      7.326821   0.000000   0.000000
   35        7.753233      7.753232   0.000000   0.000000
   36        7.904834      7.904830   0.000000   0.000000
   37        8.251120      8.251101   0.000000   0.000000
   38        8.620372      8.620361   0.000000   0.000000
   39        8.854242      8.854236   0.000000   0.000000
   40        9.066492      9.066490   0.000000   0.000000
   41        9.254443      9.254435   0.000000   0.000000
   42        9.424053      9.424054   0.000000   0.000000
   43        9.653851      9.653865   0.000000   0.000000
   44       10.219630     10.219637   0.000000   0.000000
   45       10.557448     10.557437   0.000000   0.000000
   46       10.996585     10.996583   0.000000   0.000000
 
  0.0000000E+00  0.3333333E+00  0.5245816E-15  0.1190476E-01
    1      -40.737561    -40.737542   1.000000   1.000000
    2      -40.736132    -40.736117   1.000000   1.000000
    3      -40.731540    -40.731524   1.000000   1.000000
    4      -40.729338    -40.729345   1.000000   1.000000
    5      -40.728620    -40.728615   1.000000   1.000000
    6      -40.726901    -40.726922   1.000000   1.000000
    7      -40.719775    -40.719744   1.000000   1.000000
    8      -40.718818    -40.718793   1.000000   1.000000
    9       -8.664180     -8.664195   1.000000   1.000000
   10       -8.572972     -8.572984   1.000000   1.000000
   11       -5.837594     -5.837604   1.000000   1.000000
   12       -5.816716     -5.816720   1.000000   1.000000
   13       -5.546364     -5.546367   1.000000   1.000000
   14       -5.348648     -5.348652   1.000000   1.000000
   15       -1.687549     -1.687552   1.000000   1.000000
   16       -1.009154     -1.009151   1.000000   1.000000
   17       -0.688500     -0.688513   1.000000   1.000000
   18       -0.382152     -0.382156   1.000000   1.000000
   19        0.366013      0.365990   1.000000   1.000000
   20        0.684107      0.684078   1.000000   1.000000
   21        1.095664      1.095648   1.000000   1.000000
   22        1.233679      1.233666   1.000000   1.000000
   23        1.743751      1.743735   1.000000   1.000000
   24        1.750507      1.750492   1.000000   1.000000
   25        2.157853      2.157841   1.000000   1.000000
   26        2.950915      2.950910   1.000000   1.000000
   27        3.460612      3.460611   1.000000   1.000000
   28        3.464263      3.464258   1.000000   1.000000
   29        3.842474      3.842472   1.000000   1.000000
   30        4.184222      4.184210   1.000000   1.000000
   31        4.321043      4.321034   1.000000   1.000000
   32        4.631626      4.631624   1.000000   1.000000
   33        6.658720      6.658712   0.000000   0.000000
   34        6.695188      6.695182   0.000000   0.000000
   35        6.785121      6.785107   0.000000   0.000000
   36        6.917446      6.917441   0.000000   0.000000
   37        7.844662      7.844650   0.000000   0.000000
   38        8.329422      8.329402   0.000000   0.000000
   39        8.687226      8.687191   0.000000   0.000000
   40        8.694736      8.694710   0.000000   0.000000
   41        9.082683      9.082678   0.000000   0.000000
   42        9.176234      9.176220   0.000000   0.000000
   43        9.576422      9.576440   0.000000   0.000000
   44        9.892392      9.892393   0.000000   0.000000
   45        9.974545      9.974554   0.000000   0.000000
   46       10.096546     10.096450   0.000000   0.000000
 
  0.1428571E+00  0.3333333E+00  0.5245816E-15  0.2380952E-01
    1      -40.737702    -40.737683   1.000000   1.000000
    2      -40.735045    -40.735027   1.000000   1.000000
    3      -40.732266    -40.732251   1.000000   1.000000
    4      -40.728974    -40.728992   1.000000   1.000000
    5      -40.728302    -40.728301   1.000000   1.000000
    6      -40.726749    -40.726759   1.000000   1.000000
    7      -40.720556    -40.720524   1.000000   1.000000
    8      -40.718906    -40.718880   1.000000   1.000000
    9       -8.577127     -8.577142   1.000000   1.000000
   10       -8.489678     -8.489690   1.000000   1.000000
   11       -6.346534     -6.346541   1.000000   1.000000
   12       -6.079831     -6.079835   1.000000   1.000000
   13       -5.301278     -5.301288   1.000000   1.000000
   14       -4.850059     -4.850062   1.000000   1.000000
   15       -1.944921     -1.944922   1.000000   1.000000
   16       -1.638565     -1.638565   1.000000   1.000000
   17       -0.485241     -0.485257   1.000000   1.000000
   18       -0.113905     -0.113934   1.000000   1.000000
   19        0.228524      0.228520   1.000000   1.000000
   20        0.680566      0.680544   1.000000   1.000000
   21        1.074489      1.074475   1.000000   1.000000
   22        1.183944      1.183928   1.000000   1.000000
   23        1.527099      1.527089   1.000000   1.000000
   24        1.948033      1.948022   1.000000   1.000000
   25        2.495516      2.495504   1.000000   1.000000
   26        2.905993      2.905978   1.000000   1.000000
   27        3.483918      3.483913   1.000000   1.000000
   28        3.651529      3.651519   1.000000   1.000000
   29        3.856328      3.856319   1.000000   1.000000
   30        3.916049      3.916041   1.000000   1.000000
   31        4.315755      4.315746   1.000000   1.000000
   32        4.764050      4.764046   1.000000   1.000000
   33        6.694354      6.694351   0.000000   0.000000
   34        6.790320      6.790311   0.000000   0.000000
   35        7.079671      7.079660   0.000000   0.000000
   36        7.175839      7.175831   0.000000   0.000000
   37        7.768213      7.768206   0.000000   0.000000
   38        8.297990      8.297972   0.000000   0.000000
   39        8.506569      8.506554   0.000000   0.000000
   40        8.731882      8.731873   0.000000   0.000000
   41        9.185286      9.185288   0.000000   0.000000
   42        9.291137      9.291136   0.000000   0.000000
   43        9.380448      9.380442   0.000000   0.000000
   44        9.932629      9.932620   0.000000   0.000000
   45       10.052593     10.052606   0.000000   0.000000
   46       10.511550     10.522534   0.000000   0.000000
 
  0.2857143E+00  0.3333333E+00  0.5245816E-15  0.2380952E-01
    1      -40.737346    -40.737325   1.000000   1.000000
    2      -40.733819    -40.733778   1.000000   1.000000
    3      -40.732483    -40.732493   1.000000   1.000000
    4      -40.728801    -40.728822   1.000000   1.000000
    5      -40.727970    -40.727991   1.000000   1.000000
    6      -40.726002    -40.726003   1.000000   1.000000
    7      -40.722136    -40.722094   1.000000   1.000000
    8      -40.719601    -40.719572   1.000000   1.000000
    9       -8.322616     -8.322629   1.000000   1.000000
   10       -8.245498     -8.245509   1.000000   1.000000
   11       -6.882722     -6.882728   1.000000   1.000000
   12       -6.715967     -6.715973   1.000000   1.000000
   13       -4.735162     -4.735171   1.000000   1.000000
   14       -4.276650     -4.276652   1.000000   1.000000
   15       -2.518714     -2.518716   1.000000   1.000000
   16       -2.458610     -2.458610   1.000000   1.000000
   17       -0.441725     -0.441759   1.000000   1.000000
   18       -0.054831     -0.054850   1.000000   1.000000
   19        0.389808      0.389790   1.000000   1.000000
   20        0.555477      0.555453   1.000000   1.000000
   21        0.902972      0.902969   1.000000   1.000000
   22        0.984849      0.984838   1.000000   1.000000
   23        1.723183      1.723179   1.000000   1.000000
   24        2.086963      2.086960   1.000000   1.000000
   25        2.737908      2.737881   1.000000   1.000000
   26        2.987494      2.987482   1.000000   1.000000
   27        3.330295      3.330273   1.000000   1.000000
   28        3.436716      3.436706   1.000000   1.000000
   29        3.885881      3.885874   1.000000   1.000000
   30        4.105776      4.105765   1.000000   1.000000
   31        4.440658      4.440648   1.000000   1.000000
   32        5.137781      5.137771   1.000000   1.000000
   33        6.801238      6.801234   0.000000   0.000000
   34        7.064089      7.064075   0.000000   0.000000
   35        7.422207      7.422204   0.000000   0.000000
   36        7.696406      7.696390   0.000000   0.000000
   37        8.025653      8.025648   0.000000   0.000000
   38        8.343077      8.343078   0.000000   0.000000
   39        8.424458      8.424450   0.000000   0.000000
   40        8.794679      8.794687   0.000000   0.000000
   41        8.934529      8.934545   0.000000   0.000000