   16   16    1    2
  0.1281002E+02  0.5077290E-09  0.5077290E-09  0.9302587E-09  0.5000000E-15
  1.000000000000000E-004
  CAR 
 unknown system                          
     80     60     54
 
  0.0000000E+00  0.0000000E+00  0.0000000E+00  0.5102041E-02
    1      -16.484315    -16.484316   1.000000   1.000000
    2      -15.783907    -15.783910   1.000000   1.000000
    3      -14.684958    -14.684953   1.000000   1.000000
    4      -12.594300    -12.594299   1.000000   1.000000
    5      -12.431864    -12.431871   1.000000   1.000000
    6      -12.204038    -12.204055   1.000000   1.000000
    7      -12.177569    -12.177587   1.000000   1.000000
    8      -12.031699    -12.031705   1.000000   1.000000
    9      -11.953807    -11.953821   1.000000   1.000000
   10      -11.497345    -11.497363   1.000000   1.000000
   11       -8.877813     -8.877798   1.000000   1.000000
   12       -8.708916     -8.708892   1.000000   1.000000
   13       -8.625341     -8.625324   1.000000   1.000000
   14       -5.877329     -5.877319   1.000000   1.000000
   15       -5.794123     -5.794113   1.000000   1.000000
   16       -5.014414     -5.014408   1.000000   1.000000
   17       -4.461174     -4.461167   1.000000   1.000000
   18       -3.891789     -3.891784   1.000000   1.000000
   19       -3.372184     -3.372180   1.000000   1.000000
   20       -3.314135     -3.314130   1.000000   1.000000
   21       -2.519702     -2.519687   1.000000   1.000000
   22       -2.513248     -2.513252   1.000000   1.000000
   23       -2.498669     -2.498663   1.000000   1.000000
   24       -1.974101     -1.974104   1.000000   1.000000
   25       -0.051909     -0.051920   1.000000   1.000000
   26        0.417006      0.416981   1.000000   1.000000
   27        0.508579      0.508548   1.000000   1.000000
   28        0.534566      0.534543   1.000000   1.000000
   29        0.554648      0.554617   1.000000   1.000000
   30        1.141709      1.141675   1.000000   1.000000
   31        1.160467      1.160449   1.000000   1.000000
   32        1.298782      1.298758   1.000000   1.000000
   33        1.366560      1.366545   1.000000   1.000000
   34        1.882787      1.882769   1.000000   1.000000
   35        2.038146      2.038121   1.000000   1.000000
   36        2.514992      2.514961   1.000000   1.000000
   37        2.619668      2.619638   1.000000   1.000000
   38        2.985421      2.985392   1.000000   1.000000
   39        3.400170      3.400130   1.000000   1.000000
   40        3.788137      3.788101   1.000000   1.000000
   41        7.914713      7.914733   0.000000   0.000000
   42        8.101424      8.101466   0.000000   0.000000
   43        8.778541      8.778551   0.000000   0.000000
   44        8.966263      8.966270   0.000000   0.000000
   45        8.981881      8.981900   0.000000   0.000000
   46        9.141689      9.141757   0.000000   0.000000
   47        9.407443      9.407425   0.000000   0.000000
   48        9.941624      9.941655   0.000000   0.000000
   49       10.094513     10.094531   0.000000   0.000000
   50       10.149402     10.149387   0.000000   0.000000
   51       10.177235     10.177270   0.000000   0.000000
   52       11.160143     11.160181   0.000000   0.000000
   53       11.488374     11.493544   0.000000   0.000000
   54       11.659237     11.663453   0.000000   0.000000
 
  0.1428571E+00 -0.6271192E-17 -0.1376311E-17  0.2040816E-01
    1      -16.425369    -16.425369   1.000000   1.000000
    2      -15.776103    -15.776106   1.000000   1.000000
    3      -14.637293    -14.637289   1.000000   1.000000
    4      -12.986612    -12.986611   1.000000   1.000000
    5      -12.669735    -12.669741   1.000000   1.000000
    6      -12.264661    -12.264673   1.000000   1.000000
    7      -12.131099    -12.131116   1.000000   1.000000
    8      -11.920108    -11.920123   1.000000   1.000000
    9      -11.642600    -11.642613   1.000000   1.000000
   10      -11.482862    -11.482880   1.000000   1.000000
   11       -9.373461     -9.373438   1.000000   1.000000
   12       -8.452410     -8.452394   1.000000   1.000000
   13       -8.018510     -8.018493   1.000000   1.000000
   14       -6.169882     -6.169871   1.000000   1.000000
   15       -5.590936     -5.590927   1.000000   1.000000
   16       -5.005463     -5.005457   1.000000   1.000000
   17       -4.464841     -4.464834   1.000000   1.000000
   18       -4.025066     -4.025061   1.000000   1.000000
   19       -3.347340     -3.347336   1.000000   1.000000
   20       -3.198996     -3.198990   1.000000   1.000000
   21       -2.725737     -2.725730   1.000000   1.000000
   22       -2.502594     -2.502595   1.000000   1.000000
   23       -2.353952     -2.353941   1.000000   1.000000
   24       -1.985544     -1.985547   1.000000   1.000000
   25       -0.189103     -0.189117   1.000000   1.000000
   26        0.154375      0.154348   1.000000   1.000000
   27        0.423067      0.423038   1.000000   1.000000
   28        0.625548      0.625524   1.000000   1.000000
   29        0.859696      0.859668   1.000000   1.000000
   30        1.083793      1.083761   1.000000   1.000000
   31        1.189198      1.189179   1.000000   1.000000
   32        1.310639      1.310616   1.000000   1.000000
   33        1.412895      1.412877   1.000000   1.000000
   34        1.834534      1.834515   1.000000   1.000000
   35        2.145108      2.145083   1.000000   1.000000
   36        2.449374      2.449345   1.000000   1.000000
   37        2.567395      2.567365   1.000000   1.000000
   38        2.921712      2.921684   1.000000   1.000000
   39        3.342344      3.342304   1.000000   1.000000
   40        3.662677      3.662643   1.000000   1.000000
   41        8.017531      8.017566   0.000000   0.000000
   42        8.116514      8.116537   0.000000   0.000000
   43        8.499342      8.499372   0.000000   0.000000
   44        8.908686      8.908712   0.000000   0.000000
   45        9.126294      9.126336   0.000000   0.000000
   46        9.266626      9.266642   0.000000   0.000000
   47        9.513154      9.513155   0.000000   0.000000
   48        9.676648      9.676636   0.000000   0.000000
   49        9.919709      9.919734   0.000000   0.000000
   50       10.477458     10.477467   0.000000   0.000000
   51       10.692040     10.692054   0.000000   0.000000
   52       10.863024     10.863034   0.000000   0.000000
   53       11.182062     11.182054   0.000000   0.000000
   54       11.775348     11.774208   0.000000   0.000000
 
  0.2857143E+00 -0.5142801E-16 -0.6678007E-16  0.2040816E-01
    1      -16.263353    -16.263354   1.000000   1.000000
    2      -15.775182    -15.775185   1.000000   1.000000
    3      -14.532960    -14.532957   1.000000   1.000000
    4      -13.459315    -13.459314   1.000000   1.000000
    5      -13.035248    -13.035251   1.000000   1.000000
    6      -12.385354    -12.385365   1.000000   1.000000
    7      -12.114450    -12.114465   1.000000   1.000000
    8      -11.817294    -11.817311   1.000000   1.000000
    9      -11.467570    -11.467588   1.000000   1.000000
   10      -11.396546    -11.396564   1.000000   1.000000
   11       -9.485103     -9.485077   1.000000   1.000000
   12       -8.059393     -8.059377   1.000000   1.000000
   13       -7.431719     -7.431704   1.000000   1.000000
   14       -6.367803     -6.367792   1.000000   1.000000
   15       -5.432229     -5.432221   1.000000   1.000000
   16       -5.089025     -5.089018   1.000000   1.000000
   17       -4.469676     -4.469669   1.000000   1.000000
   18       -4.202794     -4.202788   1.000000   1.000000
   19       -3.349013     -3.349009   1.000000   1.000000
   20       -3.047937     -3.047933   1.000000   1.000000
   21       -2.776790     -2.776781   1.000000   1.000000
   22       -2.548726     -2.548726   1.000000   1.000000
   23       -2.260915     -2.260903   1.000000   1.000000
   24       -2.065917     -2.065921   1.000000   1.000000
   25       -0.317262     -0.317274   1.000000   1.000000
   26       -0.162611     -0.162639   1.000000   1.000000
   27        0.233283      0.233251   1.000000   1.000000
   28        0.572320      0.572297   1.000000   1.000000
   29        0.954160      0.954132   1.000000   1.000000
   30        1.180462      1.180435   1.000000   1.000000
   31        1.244284      1.244261   1.000000   1.000000
   32        1.413595      1.413568   1.000000   1.000000
   33        1.623127      1.623109   1.000000   1.000000
   34        1.824748      1.824728   1.000000   1.000000
   35        2.160503      2.160479   1.000000   1.000000
   36        2.358148      2.358120   1.000000   1.000000
   37        2.427105      2.427075   1.000000   1.000000
   38        2.797607      2.797582   1.000000   1.000000
   39        3.222600      3.222564   1.000000   1.000000
   40        3.500082      3.500049   1.000000   1.000000
   41        7.768526      7.768569   0.000000   0.000000
   42        8.079562      8.079595   0.000000   0.000000
   43        8.582787      8.582815   0.000000   0.000000
   44        8.858371      8.858403   0.000000   0.000000
   45        9.232773      9.232794   0.000000   0.000000
   46        9.327684      9.327708   0.000000   0.000000
   47        9.656871      9.656890   0.000000   0.000000
   48       10.069208     10.069163   0.000000   0.000000
   49       10.289766     10.289790   0.000000   0.000000
   50       10.489027     10.489052   0.000000   0.000000
   51       10.744078     10.744107   0.000000   0.000000
   52       10.975307     10.975262   0.000000   0.000000
   53       11.161205     11.161226   0.000000   0.000000
   54       11.550695     11.550633   0.000000   0.000000
 
  0.4285714E+00  0.1481999E-16  0.1643823E-16  0.2040816E-01
    1      -16.055113    -16.055115   1.000000   1.000000
    2      -15.838508    -15.838511   1.000000   1.000000
    3      -14.472490    -14.472487   1.000000   1.000000
    4      -13.679704    -13.679704   1.000000   1.000000
    5      -13.297512    -13.297511   1.000000   1.000000
    6      -12.515584    -12.515592   1.000000   1.000000
    7      -12.111145    -12.111160   1.000000   1.000000
    8      -11.712392    -11.712411   1.000000   1.000000
    9      -11.484218    -11.484237   1.000000   1.000000
   10      -11.422261    -11.422278   1.000000   1.000000
   11       -9.246508     -9.246484   1.000000   1.000000
   12       -7.724385     -7.724371   1.000000   1.000000
   13       -7.502259     -7.502243   1.000000   1.000000
   14       -5.962080     -5.962071   1.000000   1.000000
   15       -5.443838     -5.443832   1.000000   1.000000
   16       -5.288417     -5.288406   1.000000   1.000000
   17       -4.515542     -4.515534   1.000000   1.000000
   18       -4.269704     -4.269696   1.000000   1.000000
   19       -3.242191     -3.242186   1.000000   1.000000
   20       -3.056957     -3.056953   1.000000   1.000000
   21       -2.734039     -2.734040   1.000000   1.000000
   22       -2.574676     -2.574665   1.000000   1.000000
   23       -2.240018     -2.240010   1.000000   1.000000
   24       -2.187558     -2.187559   1.000000   1.000000
   25       -0.382783     -0.382807   1.000000   1.000000
   26       -0.312863     -0.312877   1.000000   1.000000
   27       -0.063964     -0.063994   1.000000   1.000000
   28        0.616333      0.616302   1.000000   1.000000
   29        0.902239      0.902213   1.000000   1.000000
   30        1.222541      1.222522   1.000000   1.000000
   31        1.402225      1.402199   1.000000   1.000000
   32        1.464855      1.464821   1.000000   1.000000
   33        1.770509      1.770482   1.000000   1.000000
   34        1.866152      1.866131   1.000000   1.000000
   35        1.970794      1.970774   1.000000   1.000000
   36        2.238385      2.238362   1.000000   1.000000
   37        2.440405      2.440375   1.000000   1.000000
   38        2.726651      2.726629   1.000000   1.000000
   39        3.108608      3.108579   1.000000   1.000000
   40        3.519158      3.519120   1.000000   1.000000
   41        7.332251      7.332303   0.000000   0.000000
   42        8.042836      8.042867   0.000000   0.000000
   43        8.816016      8.816048   0.000000   0.000000
   44        9.023102      9.023123   0.000000   0.000000
   45        9.375115      9.375132   0.000000   0.000000
   46        9.624509      9.624521   0.000000   0.000000
   47        9.964441      9.964465   0.000000   0.000000
   48       10.162738     10.162781   0.000000   0.000000
   49       10.451630     10.451645   0.000000   0.000000
   50       10.543300     10.543293   0.000000   0.000000
   51       10.669103     10.669125   0.000000   0.000000
   52       10.817527     10.817538   0.000000   0.000000
   53       11.319923     11.323571   0.000000   0.000000
   54       11.349417     11.366799   0.000000   0.000000
 
  0.1428571E+00  0.1428571E+00 -0.3183607E-16  0.1020408E-01
    1      -16.370131    -16.370132   1.000000   1.000000
    2      -15.794653    -15.794656   1.000000   1.000000
    3      -14.529595    -14.529591   1.000000   1.000000
    4      -13.070490    -13.070492   1.000000   1.000000
    5      -12.726349    -12.726355   1.000000   1.000000
    6      -12.709186    -12.709188   1.000000   1.000000
    7      -12.021444    -12.021461   1.000000   1.000000
    8      -11.806299    -11.806313   1.000000   1.000000
    9      -11.699532    -11.699548   1.000000   1.000000
   10      -11.499819    -11.499837   1.000000   1.000000
   11       -8.660252     -8.660236   1.000000   1.000000
   12       -8.416867     -8.416845   1.000000   1.000000
   13       -8.357660     -8.357644   1.000000   1.000000
   14       -6.415340     -6.415328   1.000000   1.000000
   15       -5.242730     -5.242723   1.000000   1.000000
   16       -4.985334     -4.985326   1.000000   1.000000
   17       -4.422636     -4.422629   1.000000   1.000000
   18       -3.967225     -3.967220   1.000000   1.000000
   19       -3.435283     -3.435278   1.000000   1.000000
   20       -3.300373     -3.300371   1.000000   1.000000
   21       -2.669742     -2.669735   1.000000   1.000000
   22       -2.536651     -2.536639   1.000000   1.000000
   23       -2.400562     -2.400562   1.000000   1.000000
   24       -2.011955     -2.011957   1.000000   1.000000
   25       -0.265653     -0.265664   1.000000   1.000000
   26        0.125806      0.125773   1.000000   1.000000
   27        0.215835      0.215805   1.000000   1.000000
   28        0.639904      0.639883   1.000000   1.000000
   29        0.838460      0.838435   1.000000   1.000000
   30        1.144272      1.144246   1.000000   1.000000
   31        1.198911      1.198891   1.000000   1.000000
   32        1.422663      1.422640   1.000000   1.000000
   33        1.458126      1.458104   1.000000   1.000000
   34        1.872139      1.872118   1.000000   1.000000
   35        2.179688      2.179662   1.000000   1.000000
   36        2.416951      2.416922   1.000000   1.000000
   37        2.518890      2.518862   1.000000   1.000000
   38        2.873217      2.873188   1.000000   1.000000
   39        3.234725      3.234687   1.000000   1.000000
   40        3.573098      3.573067   1.000000   1.000000
   41        8.114486      8.114509   0.000000   0.000000
   42        8.301189      8.301229   0.000000   0.000000
   43        8.401118      8.401150   0.000000   0.000000
   44        8.462152      8.462189   0.000000   0.000000
   45        9.223822      9.223837   0.000000   0.000000
   46        9.355004      9.355040   0.000000   0.000000
   47        9.531835      9.531828   0.000000   0.000000
   48        9.863988      9.863960   0.000000   0.000000
   49        9.909174      9.909200   0.000000   0.000000
   50       10.371336     10.371302   0.000000   0.000000
   51       10.649271     10.649307   0.000000   0.000000
   52       11.136283     11.136282   0.000000   0.000000
   53       11.423687     11.423723   0.000000   0.000000
   54       11.571552     11.571619   0.000000   0.000000
 
  0.2857143E+00  0.1428571E+00 -0.4040080E-16  0.2040816E-01
    1      -16.207633    -16.207634   1.000000   1.000000
    2      -15.796633    -15.796636   1.000000   1.000000
    3      -14.387709    -14.387706   1.000000   1.000000
    4      -13.485407    -13.485408   1.000000   1.000000
    5      -13.148255    -13.148257   1.000000   1.000000
    6      -12.763900    -12.763904   1.000000   1.000000
    7      -11.988831    -11.988847   1.000000   1.000000
    8      -11.779206    -11.779223   1.000000   1.000000
    9      -11.561405    -11.561422   1.000000   1.000000
   10      -11.480598    -11.480616   1.000000   1.000000
   11       -8.714345     -8.714326   1.000000   1.000000
   12       -8.065332     -8.065316   1.000000   1.000000
   13       -7.798405     -7.798390   1.000000   1.000000
   14       -6.564999     -6.564987   1.000000   1.000000
   15       -5.061951     -5.061943   1.000000   1.000000
   16       -5.015438     -5.015430   1.000000   1.000000
   17       -4.407329     -4.407322   1.000000   1.000000
   18       -4.095056     -4.095049   1.000000   1.000000
   19       -3.526826     -3.526822   1.000000   1.000000
   20       -3.243577     -3.243576   1.000000   1.000000
   21       -2.737730     -2.737721   1.000000   1.000000
   22       -2.455900     -2.455891   1.000000   1.000000
   23       -2.428165     -2.428163   1.000000   1.000000
   24       -2.048395     -2.048395   1.000000   1.000000
   25       -0.374192     -0.374204   1.000000   1.000000
   26       -0.021954     -0.021984   1.000000   1.000000
   27        0.062996      0.062962   1.000000   1.000000
   28        0.498270      0.498251   1.000000   1.000000
   29        0.857592      0.857568   1.000000   1.000000
   30        1.069825      1.069802   1.000000   1.000000
   31        1.249029      1.249004   1.000000   1.000000
   32        1.554689      1.554666   1.000000   1.000000
   33        1.701331      1.701307   1.000000   1.000000
   34        1.883366      1.883343   1.000000   1.000000
   35        2.183663      2.183636   1.000000   1.000000
   36        2.317769      2.317744   1.000000   1.000000
   37        2.453807      2.453778   1.000000   1.000000
   38        2.751595      2.751568   1.000000   1.000000
   39        3.114092      3.114056   1.000000   1.000000
   40        3.398684      3.398654   1.000000   1.000000
   41        7.827661      7.827706   0.000000   0.000000
   42        8.347060      8.347089   0.000000   0.000000
   43        8.447656      8.447688   0.000000   0.000000
   44        8.790600      8.790627   0.000000   0.000000
   45        8.973873      8.973901   0.000000   0.000000
   46        9.434297      9.434320   0.000000   0.000000
   47        9.593638      9.593656   0.000000   0.000000
   48        9.973862      9.973858   0.000000   0.000000
   49       10.201385     10.201361   0.000000   0.000000
   50       10.467617     10.467587   0.000000   0.000000
   51       10.979742     10.979738   0.000000   0.000000
   52       11.128151     11.128177   0.000000   0.000000
   53       11.355576     11.355587   0.000000   0.000000
   54       11.621634     11.621697   0.000000   0.000000
 
  0.4285714E+00  0.1428571E+00  0.1591513E-15  0.2040816E-01
    1      -15.991609    -15.991611   1.000000   1.000000
    2      -15.832320    -15.832323   1.000000   1.000000
    3      -14.363377    -14.363374   1.000000   1.000000
    4      -13.796205    -13.796206   1.000000   1.000000
    5      -13.381719    -13.381718   1.000000   1.000000
    6      -12.731488    -12.731492   1.000000   1.000000
    7      -12.000066    -12.000082   1.000000   1.000000
    8      -11.736251    -11.736268   1.000000   1.000000
    9      -11.561098    -11.561115   1.000000   1.000000
   10      -11.479199    -11.479217   1.000000   1.000000
   11       -8.743671     -8.743651   1.000000   1.000000
   12       -7.730006     -7.729992   1.000000   1.000000
   13       -7.575150     -7.575134   1.000000   1.000000
   14       -6.127736     -6.127725   1.000000   1.000000
   15       -5.435136     -5.435128   1.000000   1.000000
   16       -5.023790     -5.023781   1.000000   1.000000
   17       -4.363342     -4.363334   1.000000   1.000000
   18       -4.328275     -4.328267   1.000000   1.000000
   19       -3.422295     -3.422292   1.000000   1.000000
   20       -3.155674     -3.155668   1.000000   1.000000
   21       -2.800808     -2.800806   1.000000   1.000000
   22       -2.554498     -2.554493   1.000000   1.000000
   23       -2.270969     -2.270961   1.000000   1.000000
   24       -2.096204     -2.096202   1.000000   1.000000
   25       -0.423184     -0.423206   1.000000   1.000000
   26       -0.167790     -0.167809   1.000000   1.000000
   27       -0.068100     -0.068132   1.000000   1.000000
   28        0.397831      0.397806   1.000000   1.000000
   29        0.956524      0.956497   1.000000   1.000000
   30        1.161501      1.161475   1.000000   1.000000
   31        1.265423      1.265402   1.000000   1.000000
   32        1.490472      1.490445   1.000000   1.000000
   33        1.765595      1.765571   1.000000   1.000000
   34        1.885050      1.885028   1.000000   1.000000
   35        1.961941      1.961918   1.000000   1.000000
   36        2.267322      2.267298   1.000000   1.000000
   37        2.479484      2.479454   1.000000   1.000000
   38        2.742539      2.742516   1.000000   1.000000
   39        3.029489      3.029458   1.000000   1.000000
   40        3.409396      3.409361   1.000000   1.000000
   41        7.405166      7.405218   0.000000   0.000000
   42        8.398868      8.398900   0.000000   0.000000
   43        8.705485      8.705506   0.000000   0.000000
   44        8.860147      8.860175   0.000000   0.000000
   45        9.245174      9.245198   0.000000   0.000000
   46        9.481028      9.481047   0.000000   0.000000
   47        9.566664      9.566687   0.000000   0.000000
   48       10.224697     10.224713   0.000000   0.000000
   49       10.330631     10.330653   0.000000   0.000000
   50       10.647644     10.647619   0.000000   0.000000
   51       10.995317     10.995318   0.000000   0.000000
   52       11.162827     11.162819   0.000000   0.000000
   53       11.318680     11.318644   0.000000   0.000000
   54       11.607312     11.607354   0.000000   0.000000
 
 -0.4285714E+00  0.1428571E+00  0.6545219E-16  0.2040816E-01
    1      -16.011870    -16.011872   1.000000   1.000000
    2      -15.760762    -15.760765   1.000000   1.000000
    3      -14.456036    -14.456033   1.000000   1.000000
    4      -13.911486    -13.911484   1.000000   1.000000
    5      -13.361314    -13.361314   1.000000   1.000000
    6      -12.475356    -12.475363   1.000000   1.000000
    7      -12.021568    -12.021583   1.000000   1.000000
    8      -11.704654    -11.704672   1.000000   1.000000
    9      -11.631833    -11.631849   1.000000   1.000000
   10      -11.469997    -11.470015   1.000000   1.000000
   11       -9.152802     -9.152781   1.000000   1.000000
   12       -7.484085     -7.484071   1.000000   1.000000
   13       -7.290402     -7.290386   1.000000   1.000000
   14       -5.937957     -5.937950   1.000000   1.000000
   15       -5.581694     -5.581685   1.000000   1.000000
   16       -5.290702     -5.290691   1.000000   1.000000
   17       -4.536230     -4.536223   1.000000   1.000000
   18       -4.378743     -4.378735   1.000000   1.000000
   19       -3.245473     -3.245468   1.000000   1.000000
   20       -3.148783     -3.148779   1.000000   1.000000
   21       -2.803737     -2.803738   1.000000   1.000000
   22       -2.498411     -2.498404   1.000000   1.000000
   23       -2.269494     -2.269488   1.000000   1.000000
   24       -2.038329     -2.038322   1.000000   1.000000
   25       -0.425918     -0.425950   1.000000   1.000000
   26       -0.162250     -0.162258   1.000000   1.000000
   27       -0.059736     -0.059767   1.000000   1.000000
   28        0.560707      0.560677   1.000000   1.000000
   29        0.907850      0.907825   1.000000   1.000000
   30        1.184680      1.184657   1.000000   1.000000
   31        1.264723      1.264692   1.000000   1.000000
   32        1.374459      1.374439   1.000000   1.000000
   33        1.640229      1.640208   1.000000   1.000000
   34        1.901107      1.901085   1.000000   1.000000
   35        1.990328      1.990308   1.000000   1.000000
   36        2.300802      2.300773   1.000000   1.000000
   37        2.396920      2.396889   1.000000   1.000000
   38        2.737146      2.737125   1.000000   1.000000
   39        3.068769      3.068739   1.000000   1.000000
   40        3.458665      3.458628   1.000000   1.000000
   41        7.413166      7.413218   0.000000   0.000000
   42        8.109188      8.109217   0.000000   0.000000
   43        8.847826      8.847863   0.000000   0.000000
   44        9.153915      9.153933   0.000000   0.000000
   45        9.278764      9.278780   0.000000   0.000000
   46        9.402266      9.402298   0.000000   0.000000
   47        9.605027      9.605046   0.000000   0.000000
   48       10.341955     10.341970   0.000000   0.000000
   49       10.448817     10.448845   0.000000   0.000000
   50       10.461451     10.461471   0.000000   0.000000
   51       11.013152     11.013151   0.000000   0.000000
   52       11.134462     11.134475   0.000000   0.000000
   53       11.439236     11.441083   0.000000   0.000000
   54       11.617252     11.619784   0.000000   0.000000
 
 -0.2857143E+00  0.1428571E+00 -0.5976998E-17  0.2040816E-01
    1      -16.205344    -16.205345   1.000000   1.000000
    2      -15.696866    -15.696870   1.000000   1.000000
    3      -14.569486    -14.569482   1.000000   1.000000
    4      -13.733455    -13.733452   1.000000   1.000000
    5      -13.152953    -13.152955   1.000000   1.000000
    6      -12.165344    -12.165357   1.000000   1.000000
    7      -12.047823    -12.047839   1.000000   1.000000
    8      -11.866068    -11.866084   1.000000   1.000000
    9      -11.468565    -11.468583   1.000000   1.000000
   10      -11.421943    -11.421958   1.000000   1.000000
   11       -9.750289     -9.750261   1.000000   1.000000
   12       -7.703214     -7.703198   1.000000   1.000000
   13       -6.854182     -6.854167   1.000000   1.000000
   14       -6.333321     -6.333313   1.000000   1.000000
   15       -5.896525     -5.896514   1.000000   1.000000
   16       -5.011357     -5.011351   1.000000   1.000000
   17       -4.561399     -4.561393   1.000000   1.000000
   18       -4.435374     -4.435367   1.000000   1.000000
   19       -3.289914     -3.289909   1.000000   1.000000
   20       -3.062780     -3.062777   1.000000   1.000000
   21       -2.674417     -2.674422   1.000000   1.000000
   22       -2.591825     -2.591814   1.000000   1.000000
   23       -2.212571     -2.212564   1.000000   1.000000
   24       -1.978066     -1.978061   1.000000   1.000000
   25       -0.416751     -0.416777   1.000000   1.000000
   26        0.047630      0.047612   1.000000   1.000000
   27        0.229957      0.229930   1.000000   1.000000
   28        0.687176      0.687153   1.000000   1.000000
   29        0.744132      0.744104   1.000000   1.000000
   30        1.038079      1.038047   1.000000   1.000000
   31        1.205659      1.205643   1.000000   1.000000
   32        1.435267      1.435246   1.000000   1.000000
   33        1.592383      1.592358   1.000000   1.000000
   34        1.881392      1.881372   1.000000   1.000000
   35        2.079453      2.079429   1.000000   1.000000
   36        2.309663      2.309636   1.000000   1.000000
   37        2.403400      2.403370   1.000000   1.000000
   38        2.789159      2.789136   1.000000   1.000000
   39        3.188194      3.188159   1.000000   1.000000
   40        3.462268      3.462233   1.000000   1.000000
   41        7.815830      7.815864   0.000000   0.000000
   42        7.966576      7.966615   0.000000   0.000000
   43        8.585511      8.585554   0.000000   0.000000
   44        8.930455      8.930471   0.000000   0.000000
   45        9.197386      9.197417   0.000000   0.000000
   46        9.598499      9.598525   0.000000   0.000000
   47        9.656053      9.656075   0.000000   0.000000
   48       10.007550     10.007574   0.000000   0.000000
   49       10.290217     10.290232   0.000000   0.000000
   50       10.398058     10.398021   0.000000   0.000000
   51       10.925892     10.925898   0.000000   0.000000
   52       11.217371     11.217334   0.000000   0.000000
   53       11.330933     11.330703   0.000000   0.000000
   54       11.695560     11.702318   0.000000   0.000000
 
 -0.1428571E+00  0.1428571E+00 -0.6868408E-16  0.1020408E-01
    1      -16.363686    -16.363686   1.000000   1.000000
    2      -15.729713    -15.729716   1.000000   1.000000
    3      -14.647909    -14.647905   1.000000   1.000000
    4      -13.339183    -13.339181   1.000000   1.000000
    5      -12.846216    -12.846220   1.000000   1.000000
    6      -12.094865    -12.094883   1.000000   1.000000
    7      -12.081905    -12.081923   1.000000   1.000000
    8      -11.963872    -11.963886   1.000000   1.000000
    9      -11.462711    -11.462730   1.000000   1.000000
   10      -11.338735    -11.338752   1.000000   1.000000
   11       -9.951530     -9.951497   1.000000   1.000000
   12       -8.164090     -8.164074   1.000000   1.000000
   13       -7.318005     -7.317989   1.000000   1.000000
   14       -6.076542     -6.076533   1.000000   1.000000
   15       -6.001569     -6.001558   1.000000   1.000000
   16       -4.967623     -4.967617   1.000000   1.000000
   17       -4.508790     -4.508783   1.000000   1.000000