Automatically generated mesh
      80
Reciprocal lattice
    0.00000000000000    0.00000000000000    0.00000000000000             1
    0.09090909090909    0.00000000000000    0.00000000000000             6
    0.18181818181818    0.00000000000000    0.00000000000000             6
    0.27272727272727    0.00000000000000    0.00000000000000             6
    0.36363636363637    0.00000000000000    0.00000000000000             6
    0.45454545454545    0.00000000000000    0.00000000000000             6
    0.09090909090909    0.09090909090909    0.00000000000000             6
    0.18181818181818    0.09090909090909    0.00000000000000            12
    0.27272727272727    0.09090909090909    0.00000000000000            12
    0.36363636363637    0.09090909090909    0.00000000000000            12
    0.45454545454545    0.09090909090909    0.00000000000000             6
    0.18181818181818    0.18181818181818    0.00000000000000             6
    0.27272727272727    0.18181818181818    0.00000000000000            12
    0.36363636363637    0.18181818181818    0.00000000000000            12
    0.27272727272727    0.27272727272727    0.00000000000000             6
    0.36363636363637    0.27272727272727    0.00000000000000             6
    0.00000000000000    0.00000000000000    0.11111111111111             2
    0.09090909090909    0.00000000000000    0.11111111111111            12
    0.18181818181818    0.00000000000000    0.11111111111111            12
    0.27272727272727    0.00000000000000    0.11111111111111            12
    0.36363636363637    0.00000000000000    0.11111111111111            12
    0.45454545454545    0.00000000000000    0.11111111111111            12
    0.09090909090909    0.09090909090909    0.11111111111111            12
    0.18181818181818    0.09090909090909    0.11111111111111            24
    0.27272727272727    0.09090909090909    0.11111111111111            24
    0.36363636363637    0.09090909090909    0.11111111111111            24
    0.45454545454545    0.09090909090909    0.11111111111111            12
    0.18181818181818    0.18181818181818    0.11111111111111            12
    0.27272727272727    0.18181818181818    0.11111111111111            24
    0.36363636363637    0.18181818181818    0.11111111111111            24
    0.27272727272727    0.27272727272727    0.11111111111111            12
    0.36363636363637    0.27272727272727    0.11111111111111            12
    0.00000000000000    0.00000000000000    0.22222222222222             2
    0.09090909090909    0.00000000000000    0.22222222222222            12
    0.18181818181818    0.00000000000000    0.22222222222222            12
    0.27272727272727    0.00000000000000    0.22222222222222            12
    0.36363636363637    0.00000000000000    0.22222222222222            12
    0.45454545454545    0.00000000000000    0.22222222222222            12
    0.09090909090909    0.09090909090909    0.22222222222222            12
    0.18181818181818    0.09090909090909    0.22222222222222            24
    0.27272727272727    0.09090909090909    0.22222222222222            24
    0.36363636363637    0.09090909090909    0.22222222222222            24
    0.45454545454545    0.09090909090909    0.22222222222222            12
    0.18181818181818    0.18181818181818    0.22222222222222            12
    0.27272727272727    0.18181818181818    0.22222222222222            24
    0.36363636363637    0.18181818181818    0.22222222222222            24
    0.27272727272727    0.27272727272727    0.22222222222222            12
    0.36363636363637    0.27272727272727    0.22222222222222            12
    0.00000000000000    0.00000000000000    0.33333333333333             2
    0.09090909090909    0.00000000000000    0.33333333333333            12
    0.18181818181818    0.00000000000000    0.33333333333333            12
    0.27272727272727    0.00000000000000    0.33333333333333            12
    0.36363636363637    0.00000000000000    0.33333333333333            12
    0.45454545454545    0.00000000000000    0.33333333333333            12
    0.09090909090909    0.09090909090909    0.33333333333333            12
    0.18181818181818    0.09090909090909    0.33333333333333            24
    0.27272727272727    0.09090909090909    0.33333333333333            24
    0.36363636363637    0.09090909090909    0.33333333333333            24
    0.45454545454545    0.09090909090909    0.33333333333333            12
    0.18181818181818    0.18181818181818    0.33333333333333            12
    0.27272727272727    0.18181818181818    0.33333333333333            24
    0.36363636363637    0.18181818181818    0.33333333333333            24
    0.27272727272727    0.27272727272727    0.33333333333333            12
    0.36363636363637    0.27272727272727    0.33333333333333            12
    0.00000000000000    0.00000000000000    0.44444444444444             2
    0.09090909090909    0.00000000000000    0.44444444444444            12
    0.18181818181818    0.00000000000000    0.44444444444444            12
    0.27272727272727    0.00000000000000    0.44444444444444            12
    0.36363636363637    0.00000000000000    0.44444444444444            12
    0.45454545454545    0.00000000000000    0.44444444444444            12
    0.09090909090909    0.09090909090909    0.44444444444444            12
    0.18181818181818    0.09090909090909    0.44444444444444            24
    0.27272727272727    0.09090909090909    0.44444444444444            24
    0.36363636363637    0.09090909090909    0.44444444444444            24
    0.45454545454545    0.09090909090909    0.44444444444444            12
    0.18181818181818    0.18181818181818    0.44444444444444            12
    0.27272727272727    0.18181818181818    0.44444444444444            24
    0.36363636363637    0.18181818181818    0.44444444444444            24
    0.27272727272727    0.27272727272727    0.44444444444444            12
    0.36363636363637    0.27272727272727    0.44444444444444            12
Tetrahedra
      1078    0.00015304560759
         8         1         2         2        18
         8         2         2         7        18
         4         2         7        18        23
         4         1         2        17        18
         8         2        17        18        18
         8         2        18        18        23
         8         2         3         7        19
         8         3         7         8        19
         4         7         8        19        24
         4         2         7        18        19
         8         7        18        19        23
         8         7        19        23        24
         8         3         4         8        20
         8         4         8         9        20
         4         8         9        20        25
         4         3         8        19        20
         8         8        19        20        24
         8         8        20        24        25
         8         4         5         9        21
         8         5         9        10        21
         4         9        10        21        26
         4         4         9        20        21
         8         9        20        21        25
         8         9        21        25        26
         8         5         6        10        22
         8         6        10        11        22
         4        10        11        22        27
         4         5        10        21        22
         8        10        21        22        26
         8        10        22        26        27
         8         6         6        11        22
         4        10        11        22        26
         4         6        11        22        22
         4        11        22        22        27
         8        11        22        26        27
         8         5         6        10        21
         4         9        10        21        25
         4         6        10        21        22
         8        10        21        25        26
         8         4         5         9        20
         4         8         9        20        24
         4         5         9        20        21
         8         9        20        24        25
         8         3         4         8        19
         4         7         8        19        23
         4         4         8        19        20
         8         8        19        23        24
         8         2         3         7        18
         4         2         7        18        18
         4         3         7        18        19
         4         7        18        18        23
         4         1         2         2        17
         4         2         2        17        18
         8         2         3         7        23
         8         3         7         8        23
         4         3         8        23        24
         4         2         3        18        23
         8         3        18        19        23
         8         3        19        23        24
         8         7         8         8        24
         8         8         8        12        24
         4         8        12        24        28
         4         7         8        23        24
         8         8        23        24        24
         8         8        24        24        28
         8         8         9        12        25
         8         9        12        13        25
         4        12        13        25        29
         4         8        12        24        25
         8        12        24        25        28
         8        12        25        28        29
         8         9        10        13        26
         8        10        13        14        26
         4        13        14        26        30
         4         9        13        25        26
         8        13        25        26        29
         8        13        26        29        30
         8        10        11        14        27
         4        11        14        14        27
         4        14        14        27        30
         4        10        14        26        27
         8        14        26        27        30
         8        14        27        30        30
         8        10        11        14        26
         4        13        14        26        29
         4        11        14        26        27
         8        14        26        29        30
         8         9        10        13        25
         4        12        13        25        28
         4        10        13        25        26
         8        13        25        28        29
         8         8         9        12        24
         4         8        12        24        24
         4         9        12        24        25
         4        12        24        24        28
         4         7         8         8        23
         4         3         8        19        23
         4         8         8        23        24
         4         3         7        18        23
         8         3         4         8        24
         8         4         8         9        24
         4         4         9        24        25
         4         3         4        19        24
         8         4        19        20        24
         8         4        20        24        25
         8         8         9        12        28
         8         9        12        13        28
         4         9        13        28        29
         4         8         9        24        28
         8         9        24        25        28
         8         9        25        28        29
         8        12        13        13        29
         8        13        13        15        29
         4        13        15        29        31
         4        12        13        28        29
         8        13        28        29        29
         8        13        29        29        31
         8        13        14        15        30
         8        14        15        16        30
         4        15        16        30        32
         4        13        15        29        30
         8        15        29        30        31
         8        15        30        31        32
         8        14        14        16        30
         4        15        16        30        31
         4        14        16        30        30
         4        16        30        30        32
         8        16        30        31        32
         8        13        14        15        29
         4        13        15        29        29
         4        14        15        29        30
         4        15        29        29        31
         4        12        13        13        28
         4         9        13        25        28
         4        13        13        28        29
         4         4         9        20        24
         4         9        12        24        28
         4         4         8        19        24
         8         4         5         9        25
         8         5         9        10        25
         4         5        10        25        26
         4         4         5        20        25
         8         5        20        21        25
         8         5        21        25        26
         8         9        10        13        29
         8        10        13        14        29
         4        10        14        29        30
         4         9        10        25        29
         8        10        25        26        29
         8        10        26        29        30
         8        13        14        15        31
         8        14        15        16        31
         4        14        16        31        32
         4        13        14        29        31
         8        14        29        30        31
         8        14        30        31        32
         8        15        16        16        32
         4        16        16        16        32
         4        16        16        32        32
         4        15        16        31        32
         8        16        31        32        32
         4        16        32        32        32
         4        15        16        16        31
         4        14        16        30        31
         4        16        16        31        32
         4        10        14        26        29
         4        14        15        29        31
         4         5        10        21        25
         4        10        13        25        29
         4         5         9        20        25
         8         5         6        10        26
         8         6        10        11        26
         4         6        11        26        27
         4         5         6        21        26
         8         6        21        22        26
         8         6        22        26        27
         8        10        11        14        30
         8        11        14        14        30
         4        11        14        30        30
         4        10        11        26        30
         8        11        26        27        30
         4        11        27        30        30
         4        14        14        16        32
         8        14        15        16        32
         4        14        15        31        32
         4        14        14        30        32
         8        14        30        30        32
         4        14        15        30        32
         4        15        16        32        32
         4        15        31        32        32
         4        11        14        27        30
         4        14        16        30        32
         4         6        11        22        26
         4        11        14        26        30
         4         6        10        21        26
         4         6         6        11        27
         8         6        10        11        27
         4         6        10        26        27
         4         6         6        22        27
         8         6        22        22        27
         8        10        13        14        30
         4        10        13        29        30
         4        10        11        27        30
         8        10        26        27        30
         4        13        13        15        31
         4        13        13        29        31
         4        13        14        30        31
         8        13        29        30        31
         4        10        13        26        30
         4        13        15        30        31
         4         6        10        22        27
         4        10        14        27        30
         4         6        11        22        27
         8         5         9        10        26
         4         5         9        25        26
         4         5         6        22        26
         8         5        21        22        26
         8         9        12        13        29
         4         9        12        28        29
         4         9        10        26        29
         8         9        25        26        29
         4         9        12        25        29
         4        12        13        29        29
         4        12        28        29        29
         4         5         9        21        26
         4         9        13        26        29
         4         5        10        22        26
         8         4         8         9        25
         4         4         8        24        25
         4         4         5        21        25
         8         4        20        21        25
         4         8         8        12        28
         4         8         8        24        28
         4         8         9        25        28
         8         8        24        25        28
         4         4         8        20        25
         4         8        12        25        28
         4         4         9        21        25
         8         3         7         8        24
         4         3         7        23        24
         4         3         4        20        24
         8         3        19        20        24
         4         3         7        19        24
         4         7         8        24        24
         4         7        23        24        24
         4         3         8        20        24
         4         2         2         7        23
         4         2         2        18        23
         4         2         3        19        23
         8         2        18        19        23
         4         2         7        19        23
         4         1         2        18        18
         4         1        17        18        18
         8        17        18        18        34
         8        18        18        23        34
         4        18        23        34        39
         4        17        18        33        34
         8        18        33        34        34
         8        18        34        34        39
         8        18        19        23        35
         8        19        23        24        35
         4        23        24        35        40
         4        18        23        34        35
         8        23        34        35        39
         8        23        35        39        40
         8        19        20        24        36
         8        20        24        25        36
         4        24        25        36        41
         4        19        24        35        36
         8        24        35        36        40
         8        24        36        40        41
         8        20        21        25        37
         8        21        25        26        37
         4        25        26        37        42
         4        20        25        36        37
         8        25        36        37        41
         8        25        37        41        42
         8        21        22        26        38
         8        22        26        27        38
         4        26        27        38        43
         4        21        26        37        38
         8        26        37        38        42
         8        26        38        42        43
         8        22        22        27        38
         4        26        27        38        42
         4        22        27        38        38
         4        27        38        38        43
         8        27        38        42        43
         8        21        22        26        37
         4        25        26        37        41
         4        22        26        37        38
         8        26        37        41        42
         8        20        21        25        36
         4        24        25        36        40
         4        21        25        36        37
         8        25        36        40        41
         8        19        20        24        35
         4        23        24        35        39
         4        20        24        35        36
         8        24        35        39        40
         8        18        19        23        34
         4        18        23        34        34
         4        19        23        34        35
         4        23        34        34        39
         4        17        18        18        33
         4        18        18        33        34
         8        18        19        23        39
         8        19        23        24        39
         4        19        24        39        40
         4        18        19        34        39
         8        19        34        35        39
         8        19        35        39        40
         8        23        24        24        40
         8        24        24        28        40
         4        24        28        40        44
         4        23        24        39        40
         8        24        39        40        40
         8        24        40        40        44
         8        24        25        28        41
         8        25        28        29        41
         4        28        29        41        45
         4        24        28        40        41
         8        28        40        41        44
         8        28        41        44        45
         8        25        26        29        42
         8        26        29        30        42
         4        29        30        42        46
         4        25        29        41        42
         8        29        41        42        45
         8        29        42        45        46
         8        26        27        30        43
         4        27        30        30        43
         4        30        30        43        46
         4        26        30        42        43
         8        30        42        43        46
         8        30        43        46        46
         8        26        27        30        42
         4        29        30        42        45
         4        27        30        42        43
         8        30        42        45        46
         8        25        26        29        41
         4        28        29        41        44
         4        26        29        41        42
         8        29        41        44        45
         8        24        25        28        40
         4        24        28        40        40
         4        25        28        40        41
         4        28        40        40        44
         4        23        24        24        39
         4        19        24        35        39
         4        24        24        39        40
         4        19        23        34        39
         8        19        20        24        40
         8        20        24        25        40
         4        20        25        40        41
         4        19        20        35        40
         8        20        35        36        40
         8        20        36        40        41
         8        24        25        28        44
         8        25        28        29        44
         4        25        29        44        45
         4        24        25        40        44
         8        25        40        41        44
         8        25        41        44        45
         8        28        29        29        45
         8        29        29        31        45
         4        29        31        45        47
         4        28        29        44        45
         8        29        44        45        45
         8        29        45        45        47
         8        29        30        31        46
         8        30        31        32        46
         4        31        32        46        48
         4        29        31        45        46
         8        31        45        46        47
         8        31        46        47        48
         8        30        30        32        46
         4        31        32        46        47
         4        30        32        46        46
         4        32        46        46        48
         8        32        46        47        48
         8        29        30        31        45
         4        29        31        45        45
         4        30        31        45        46
         4        31        45        45        47
         4        28        29        29        44
         4        25        29        41        44
         4        29        29        44        45
         4        20        25        36        40
         4        25        28        40        44
         4        20        24        35        40
         8        20        21        25        41
         8        21        25        26        41
         4        21        26        41        42
         4        20        21        36        41
         8        21        36        37        41
         8        21        37        41        42
         8        25        26        29        45
         8        26        29        30        45
         4        26        30        45        46
         4        25        26        41        45
         8        26        41        42        45
         8        26        42        45        46
         8        29        30        31        47
         8        30        31        32        47
         4        30        32        47        48
         4        29        30        45        47
         8        30        45        46        47
         8        30        46        47        48
         8        31        32        32        48
         4        32        32        32        48
         4        32        32        48        48
         4        31        32        47        48
         8        32        47        48        48
         4        32        48        48        48
         4        31        32        32        47
         4        30        32        46        47
         4        32        32        47        48
         4        26        30        42        45
         4        30        31        45        47
         4        21        26        37        41
         4        26        29        41        45
         4        21        25        36        41
         8        21        22        26        42
         8        22        26        27        42
         4        22        27        42        43
         4        21        22        37        42
         8        22        37        38        42
         8        22        38        42        43
         8        26        27        30        46
         8        27        30        30        46
         4        27        30        46        46
         4        26        27        42        46
         8        27        42        43        46
         4        27        43        46        46
         4        30        30        32        48
         8        30        31        32        48
         4        30        31        47        48
         4        30        30        46        48
         8        30        46        46        48
         4        30        31        46        48
         4        31        32        48        48
         4        31        47        48        48
         4        27        30        43        46
         4        30        32        46        48
         4        22        27        38        42
         4        27        30        42        46
         4        22        26        37        42
         4        22        22        27        43
         8        22        26        27        43
         4        22        26        42        43
         4        22        22        38        43
         8        22        38        38        43
         8        26        29        30        46
         4        26        29        45        46
         4        26        27        43        46
         8        26        42        43        46
         4        29        29        31        47
         4        29        29        45        47
         4        29        30        46        47
         8        29        45        46        47
         4        26        29        42        46
         4        29        31        46        47
         4        22        26        38        43
         4        26        30        43        46
         4        22        27        38        43
         8        21        25        26        42
         4        21        25        41        42