 running on    8 total cores
 distrk:  each k-point on    8 cores,    1 groups
 distr:  one band on    1 cores,    8 groups
 using from now: INCAR     
 vasp.6.1.2 22Jul20 (build Mar 20 2021 11:25:07) complex                        
  
 POSCAR found type information on POSCAR LiP 
 POSCAR found :  2 types and      16 ions
 scaLAPACK will be used
 -----------------------------------------------------------------------------
|                                                                             |
|           W    W    AA    RRRRR   N    N  II  N    N   GGGG   !!!           |
|           W    W   A  A   R    R  NN   N  II  NN   N  G    G  !!!           |
|           W    W  A    A  R    R  N N  N  II  N N  N  G       !!!           |
|           W WW W  AAAAAA  RRRRR   N  N N  II  N  N N  G  GGG   !            |
|           WW  WW  A    A  R   R   N   NN  II  N   NN  G    G                |
|           W    W  A    A  R    R  N    N  II  N    N   GGGG   !!!           |
|                                                                             |
|     The value NCORE = 6 specified in the INCAR file was overwritten,        |
|     because it was not compatible with the 8 processes available:           |
|     NCORE = 1                                                               |
|     was used instead, please check that this makes sense for your           |
|     machine.                                                                |
|                                                                             |
 -----------------------------------------------------------------------------

 -----------------------------------------------------------------------------
|                                                                             |
|           W    W    AA    RRRRR   N    N  II  N    N   GGGG   !!!           |
|           W    W   A  A   R    R  NN   N  II  NN   N  G    G  !!!           |
|           W    W  A    A  R    R  N N  N  II  N N  N  G       !!!           |
|           W WW W  AAAAAA  RRRRR   N  N N  II  N  N N  G  GGG   !            |
|           WW  WW  A    A  R   R   N   NN  II  N   NN  G    G                |
|           W    W  A    A  R    R  N    N  II  N    N   GGGG   !!!           |
|                                                                             |
|     For optimal performance we recommend to set                             |
|       NCORE = 4 - approx SQRT(number of cores).                             |
|     NCORE specifies how many cores store one orbital (NPAR=cpu/NCORE).      |
|     This setting can greatly improve the performance of VASP for DFT.       |
|     The default, NCORE=1 might be grossly inefficient on modern             |
|     multi-core architectures or massively parallel machines. Do your        |
|     own testing!!!!                                                         |
|     Unfortunately you need to use the default for GW and RPA                |
|     calculations (for HF NCORE is supported but not extensively tested      |
|     yet).                                                                   |
|                                                                             |
 -----------------------------------------------------------------------------

 LDA part: xc-table for Pade appr. of Perdew
 generate k-points for:    6    7    4
 POSCAR, INCAR and KPOINTS ok, starting setup
 FFT: planning ...
 WAVECAR not read
 entering main loop
       N       E                     dE             d eps       ncg     rms          rms(c)
DAV:   1     0.396222582686E+03    0.39622E+03   -0.25703E+04 16520   0.131E+03
DAV:   2    -0.344594675614E+01   -0.39967E+03   -0.36579E+03 18344   0.314E+02
DAV:   3    -0.552875401567E+02   -0.51842E+02   -0.51130E+02 23640   0.879E+01
DAV:   4    -0.627361877070E+02   -0.74486E+01   -0.73686E+01 29104   0.325E+01
DAV:   5    -0.634520976316E+02   -0.71591E+00   -0.71561E+00 23176   0.749E+00    0.212E+01
DAV:   6    -0.646967433962E+02   -0.12446E+01   -0.27970E+00 22160   0.648E+00    0.113E+01
DAV:   7    -0.659650551388E+02   -0.12683E+01   -0.75778E-01 20208   0.414E+00    0.599E+00
DAV:   8    -0.661989528109E+02   -0.23390E+00   -0.62466E-01 21552   0.294E+00    0.128E+00
DAV:   9    -0.662293373095E+02   -0.30384E-01   -0.85358E-02 24328   0.114E+00    0.532E-01
DAV:  10    -0.662327688877E+02   -0.34316E-02   -0.74041E-03 21576   0.392E-01    0.237E-01
DAV:  11    -0.662342461671E+02   -0.14773E-02   -0.20521E-03 20648   0.210E-01    0.111E-01
DAV:  12    -0.662345420032E+02   -0.29584E-03   -0.62251E-04 21176   0.105E-01    0.416E-02
DAV:  13    -0.662345881948E+02   -0.46192E-04   -0.10487E-04 19304   0.522E-02    0.202E-02
DAV:  14    -0.662346044137E+02   -0.16219E-04   -0.34418E-05 16888   0.306E-02    0.698E-03
DAV:  15    -0.662346062584E+02   -0.18447E-05   -0.46001E-06 12384   0.129E-02
   1 F= -.66234606E+02 E0= -.66234606E+02  d E =0.000000E+00  mag=    -0.0002
