 running on   12 total cores
 distrk:  each k-point on   12 cores,    1 groups
 distr:  one band on    6 cores,    2 groups
 using from now: INCAR     
 vasp.6.1.2 22Jul20 (build Mar 20 2021 11:25:07) complex                        
  
 POSCAR found type information on POSCAR LiO 
 POSCAR found :  2 types and       9 ions
 scaLAPACK will be used
 LDA part: xc-table for Pade appr. of Perdew
 generate k-points for:    8    7    7
 POSCAR, INCAR and KPOINTS ok, starting setup
 FFT: planning ...
 WAVECAR not read
 entering main loop
       N       E                     dE             d eps       ncg     rms          rms(c)
DAV:   1     0.362957987499E+03    0.36296E+03   -0.28119E+04 26816   0.147E+03
DAV:   2    -0.187075940826E+02   -0.38167E+03   -0.36873E+03 34862   0.352E+02
DAV:   3    -0.435067340884E+02   -0.24799E+02   -0.24545E+02 39458   0.907E+01
DAV:   4    -0.444131443186E+02   -0.90641E+00   -0.90206E+00 45104   0.125E+01
DAV:   5    -0.444879464664E+02   -0.74802E-01   -0.74796E-01 36074   0.174E+00    0.146E+01
RMM:   6    -0.447877681837E+02   -0.29982E+00   -0.31810E+00 30838   0.933E+00    0.104E+01
RMM:   7    -0.442547107570E+02    0.53306E+00   -0.11325E+00 30166   0.575E+00    0.584E+00
RMM:   8    -0.440003186956E+02    0.25439E+00   -0.53501E-01 30590   0.424E+00    0.361E+00
RMM:   9    -0.440147199989E+02   -0.14401E-01   -0.20181E-01 31727   0.256E+00    0.290E+00
RMM:  10    -0.439759021766E+02    0.38818E-01   -0.71650E-02 32713   0.153E+00    0.116E+00
RMM:  11    -0.439736985389E+02    0.22036E-02   -0.18025E-02 35559   0.780E-01    0.731E-01
RMM:  12    -0.439725092857E+02    0.11893E-02   -0.61699E-03 35986   0.493E-01    0.280E-01
WARNING in EDDRMM: call to ZHEGV failed, returncode =   6  3      5
RMM:  13    -0.439733841545E+02   -0.87487E-03   -0.33418E-03 38692   0.356E-01    0.943E-02
RMM:  14    -0.439736238550E+02   -0.23970E-03   -0.11746E-03 44811   0.177E-01    0.639E-02
RMM:  15    -0.439737828372E+02   -0.15898E-03   -0.55290E-04 43804   0.123E-01    0.511E-02
WARNING in EDDRMM: call to ZHEGV failed, returncode =   6  3      3
RMM:  16    -0.439738944981E+02   -0.11166E-03   -0.30572E-04 43250   0.927E-02    0.470E-02
RMM:  17    -0.439739894541E+02   -0.94956E-04   -0.21689E-04 42003   0.827E-02    0.451E-02
WARNING in EDDRMM: call to ZHEGV failed, returncode =   8  4      5
RMM:  18    -0.439740658237E+02   -0.76370E-04   -0.15846E-04 41510   0.710E-02    0.450E-02
RMM:  19    -0.439740938612E+02   -0.28037E-04   -0.61187E-05 36797   0.425E-02    0.456E-02
RMM:  20    -0.439737396203E+02    0.35424E-03   -0.14961E-03 51449   0.228E-01    0.586E-02
RMM:  21    -0.439739012172E+02   -0.16160E-03   -0.21921E-04 44156   0.106E-01    0.538E-02
RMM:  22    -0.439740972596E+02   -0.19604E-03   -0.56820E-03 52420   0.441E-01    0.764E-02
RMM:  23    -0.439743915380E+02   -0.29428E-03   -0.13247E-04 41614   0.965E-02    0.700E-02
RMM:  24    -0.439744429638E+02   -0.51426E-04   -0.43750E-04 47124   0.126E-01    0.587E-02
RMM:  25    -0.439743634554E+02    0.79508E-04   -0.64173E-04 46490   0.159E-01    0.600E-02
RMM:  26    -0.439742990564E+02    0.64399E-04   -0.10032E-04 37890   0.572E-02    0.606E-02
RMM:  27    -0.439743538964E+02   -0.54840E-04   -0.22793E-04 39186   0.929E-02    0.584E-02
RMM:  28    -0.439743850248E+02   -0.31128E-04   -0.10464E-05 19337   0.214E-02    0.590E-02
RMM:  29    -0.439743970123E+02   -0.11987E-04   -0.27470E-06 18572   0.108E-02    0.591E-02
WARNING in EDDRMM: call to ZHEGV failed, returncode =   8  4     16
WARNING in EDDRMM: call to ZHEGV failed, returncode =   8  4     16
RMM:  30    -0.439744071423E+02   -0.10130E-04   -0.50360E-06 18227   0.119E-02    0.587E-02
RMM:  31    -0.439744317563E+02   -0.24614E-04   -0.26535E-05 24030   0.282E-02    0.580E-02
RMM:  32    -0.439744404807E+02   -0.87243E-05   -0.24010E-06 18348   0.103E-02
   1 F= -.43974440E+02 E0= -.43974440E+02  d E =0.000000E+00  mag=     0.1150
 -----------------------------------------------------------------------------
|                                                                             |
|           W    W    AA    RRRRR   N    N  II  N    N   GGGG   !!!           |
|           W    W   A  A   R    R  NN   N  II  NN   N  G    G  !!!           |
|           W    W  A    A  R    R  N N  N  II  N N  N  G       !!!           |
|           W WW W  AAAAAA  RRRRR   N  N N  II  N  N N  G  GGG   !            |
|           WW  WW  A    A  R   R   N   NN  II  N   NN  G    G                |
|           W    W  A    A  R    R  N    N  II  N    N   GGGG   !!!           |
|                                                                             |
|     Tetrahedron method does not include variations of the Fermi             |
|     occupations, so forces and stress will be inaccurate. We suggest        |
|     using a different smearing scheme ISMEAR = 1 or 2 for metals in         |
|     relaxations.                                                            |
|                                                                             |
 -----------------------------------------------------------------------------

