 running on    8 total cores
 distrk:  each k-point on    8 cores,    1 groups
 distr:  one band on    1 cores,    8 groups
 using from now: INCAR     
 vasp.6.1.2 22Jul20 (build Mar 20 2021 11:25:07) complex                        
  
 POSCAR found type information on POSCAR LiP O 
 POSCAR found :  3 types and      16 ions
 scaLAPACK will be used
 -----------------------------------------------------------------------------
|                                                                             |
|           W    W    AA    RRRRR   N    N  II  N    N   GGGG   !!!           |
|           W    W   A  A   R    R  NN   N  II  NN   N  G    G  !!!           |
|           W    W  A    A  R    R  N N  N  II  N N  N  G       !!!           |
|           W WW W  AAAAAA  RRRRR   N  N N  II  N  N N  G  GGG   !            |
|           WW  WW  A    A  R   R   N   NN  II  N   NN  G    G                |
|           W    W  A    A  R    R  N    N  II  N    N   GGGG   !!!           |
|                                                                             |
|     The value NCORE = 6 specified in the INCAR file was overwritten,        |
|     because it was not compatible with the 8 processes available:           |
|     NCORE = 1                                                               |
|     was used instead, please check that this makes sense for your           |
|     machine.                                                                |
|                                                                             |
 -----------------------------------------------------------------------------

 -----------------------------------------------------------------------------
|                                                                             |
|           W    W    AA    RRRRR   N    N  II  N    N   GGGG   !!!           |
|           W    W   A  A   R    R  NN   N  II  NN   N  G    G  !!!           |
|           W    W  A    A  R    R  N N  N  II  N N  N  G       !!!           |
|           W WW W  AAAAAA  RRRRR   N  N N  II  N  N N  G  GGG   !            |
|           WW  WW  A    A  R   R   N   NN  II  N   NN  G    G                |
|           W    W  A    A  R    R  N    N  II  N    N   GGGG   !!!           |
|                                                                             |
|     For optimal performance we recommend to set                             |
|       NCORE = 4 - approx SQRT(number of cores).                             |
|     NCORE specifies how many cores store one orbital (NPAR=cpu/NCORE).      |
|     This setting can greatly improve the performance of VASP for DFT.       |
|     The default, NCORE=1 might be grossly inefficient on modern             |
|     multi-core architectures or massively parallel machines. Do your        |
|     own testing!!!!                                                         |
|     Unfortunately you need to use the default for GW and RPA                |
|     calculations (for HF NCORE is supported but not extensively tested      |
|     yet).                                                                   |
|                                                                             |
 -----------------------------------------------------------------------------

 LDA part: xc-table for Pade appr. of Perdew
 generate k-points for:    7    6    5
 POSCAR, INCAR and KPOINTS ok, starting setup
 FFT: planning ...
 WAVECAR not read
 entering main loop
       N       E                     dE             d eps       ncg     rms          rms(c)
DAV:   1     0.603909618682E+03    0.60391E+03   -0.36449E+04 14784   0.142E+03
DAV:   2    -0.448525163803E+02   -0.64876E+03   -0.61251E+03 17056   0.374E+02
DAV:   3    -0.102997221106E+03   -0.58145E+02   -0.57801E+02 20368   0.105E+02
DAV:   4    -0.108353674321E+03   -0.53565E+01   -0.53229E+01 25120   0.264E+01
DAV:   5    -0.108838932832E+03   -0.48526E+00   -0.48511E+00 20744   0.550E+00    0.372E+01
RMM:   6    -0.989708508022E+02    0.98681E+01   -0.38225E+01 16149   0.219E+01    0.148E+01
RMM:   7    -0.100019493403E+03   -0.10486E+01   -0.38358E+00 21269   0.752E+00    0.792E+00
RMM:   8    -0.100219306075E+03   -0.19981E+00   -0.86899E-01 23776   0.391E+00    0.396E+00
RMM:   9    -0.100292041271E+03   -0.72735E-01   -0.31601E-01 24092   0.280E+00    0.790E-01
RMM:  10    -0.100320254310E+03   -0.28213E-01   -0.21989E-01 27596   0.161E+00    0.364E-01
RMM:  11    -0.100334143178E+03   -0.13889E-01   -0.96755E-02 28311   0.991E-01    0.284E-01
RMM:  12    -0.100340194846E+03   -0.60517E-02   -0.39035E-02 28656   0.612E-01    0.166E-01
RMM:  13    -0.100342376693E+03   -0.21818E-02   -0.15038E-02 27998   0.412E-01    0.714E-02
RMM:  14    -0.100343294853E+03   -0.91816E-03   -0.76057E-03 28452   0.287E-01    0.316E-02
RMM:  15    -0.100343661279E+03   -0.36643E-03   -0.33289E-03 27880   0.180E-01    0.257E-02
RMM:  16    -0.100343822777E+03   -0.16150E-03   -0.15033E-03 27498   0.119E-01    0.156E-02
RMM:  17    -0.100343892370E+03   -0.69593E-04   -0.61279E-04 26875   0.818E-02    0.103E-02
RMM:  18    -0.100343923019E+03   -0.30649E-04   -0.29667E-04 26191   0.545E-02    0.878E-03
RMM:  19    -0.100343932815E+03   -0.97953E-05   -0.10827E-04 24141   0.381E-02    0.570E-03
RMM:  20    -0.100343933122E+03   -0.30760E-06   -0.24962E-05 18913   0.291E-02
   1 F= -.10034393E+03 E0= -.10034393E+03  d E =0.000000E+00  mag=    -0.0000
