    8    8    1    2
  0.8941058E+01  0.3371183E-09  0.3180362E-09  0.7703522E-09  0.5000000E-15
  1.000000000000000E-004
  CAR 
 unknown system                          
     36    201     26
 
  0.0000000E+00  0.0000000E+00  0.0000000E+00  0.1893939E-02
    1      -42.339558    -42.339391   1.000000   1.000000
    2      -42.335041    -42.334872   1.000000   1.000000
    3      -41.961547    -41.961414   1.000000   1.000000
    4      -41.957745    -41.957612   1.000000   1.000000
    5      -18.366115    -18.366165   1.000000   1.000000
    6      -18.188560    -18.188614   1.000000   1.000000
    7      -13.326099    -13.326153   1.000000   1.000000
    8      -12.649999    -12.650069   1.000000   1.000000
    9       -4.204106     -4.204118   1.000000   1.000000
   10       -2.542122     -2.542170   1.000000   1.000000
   11       -1.455751     -1.455800   1.000000   1.000000
   12       -1.283570     -1.283622   1.000000   1.000000
   13       -1.276960     -1.277011   1.000000   1.000000
   14       -1.118240     -1.118295   1.000000   1.000000
   15        1.682446      1.682377   1.000000   1.000000
   16        1.829542      1.829471   1.000000   1.000000
   17        1.943838      1.943762   1.000000   1.000000
   18        2.067852      2.067775   1.000000   1.000000
   19        4.115081      4.115071   0.000004   0.000004
   20        6.301060      6.300993   0.000000   0.000000
   21        7.507609      7.507636   0.000000   0.000000
   22        7.784168      7.784215   0.000000   0.000000
   23       10.203729     10.203728   0.000000   0.000000
   24       10.390367     10.390351   0.000000   0.000000
   25       12.674437     12.674346   0.000000   0.000000
   26       13.516247     13.519618   0.000000   0.000000
 
  0.9090909E-01  0.9875910E-17  0.0000000E+00  0.3787879E-02
    1      -42.338801    -42.338634   1.000000   1.000000
    2      -42.334545    -42.334376   1.000000   1.000000
    3      -41.960738    -41.960604   1.000000   1.000000
    4      -41.957199    -41.957066   1.000000   1.000000
    5      -18.356113    -18.356164   1.000000   1.000000
    6      -18.183110    -18.183164   1.000000   1.000000
    7      -13.299788    -13.299843   1.000000   1.000000
    8      -12.639956    -12.640027   1.000000   1.000000
    9       -4.187646     -4.187658   1.000000   1.000000
   10       -2.559491     -2.559538   1.000000   1.000000
   11       -1.613091     -1.613135   1.000000   1.000000
   12       -1.395607     -1.395657   1.000000   1.000000
   13       -1.331571     -1.331621   1.000000   1.000000
   14       -1.139346     -1.139401   1.000000   1.000000
   15        1.496949      1.496885   1.000000   1.000000
   16        1.768510      1.768440   1.000000   1.000000
   17        1.806147      1.806076   1.000000   1.000000
   18        2.078614      2.078537   1.000000   1.000000
   19        4.193791      4.193776   0.000000   0.000000
   20        6.292414      6.292346   0.000000   0.000000
   21        7.714327      7.714347   0.000000   0.000000
   22        7.965827      7.965869   0.000000   0.000000
   23       10.338584     10.338581   0.000000   0.000000
   24       10.630000     10.629974   0.000000   0.000000
   25       12.509769     12.509897   0.000000   0.000000
   26       13.673886     13.663769   0.000000   0.000000
 
  0.1818182E+00  0.1277681E-16  0.0000000E+00  0.3787879E-02
    1      -42.336736    -42.336568   1.000000   1.000000
    2      -42.333261    -42.333093   1.000000   1.000000
    3      -41.958559    -41.958425   1.000000   1.000000
    4      -41.955764    -41.955630   1.000000   1.000000
    5      -18.328677    -18.328729   1.000000   1.000000
    6      -18.169067    -18.169121   1.000000   1.000000
    7      -13.225538    -13.225594   1.000000   1.000000
    8      -12.615212    -12.615283   1.000000   1.000000
    9       -4.140619     -4.140632   1.000000   1.000000
   10       -2.625923     -2.625969   1.000000   1.000000
   11       -1.981955     -1.981992   1.000000   1.000000
   12       -1.688111     -1.688154   1.000000   1.000000
   13       -1.469961     -1.470010   1.000000   1.000000
   14       -1.200378     -1.200432   1.000000   1.000000
   15        1.070578      1.070524   1.000000   1.000000
   16        1.430652      1.430591   1.000000   1.000000
   17        1.639377      1.639310   1.000000   1.000000
   18        2.085285      2.085207   1.000000   1.000000
   19        4.378093      4.378068   0.000000   0.000000
   20        6.253540      6.253472   0.000000   0.000000
   21        8.250633      8.250637   0.000000   0.000000
   22        8.447082      8.447114   0.000000   0.000000
   23       10.697042     10.697037   0.000000   0.000000
   24       11.262849     11.262800   0.000000   0.000000
   25       12.150721     12.152125   0.000000   0.000000
   26       13.909846     13.912153   0.000000   0.000000
 
  0.2727273E+00  0.1429198E-16  0.0000000E+00  0.3787879E-02
    1      -42.334032    -42.333864   1.000000   1.000000
    2      -42.331566    -42.331398   1.000000   1.000000
    3      -41.955722    -41.955589   1.000000   1.000000
    4      -41.953832    -41.953699   1.000000   1.000000
    5      -18.290314    -18.290367   1.000000   1.000000
    6      -18.151975    -18.152031   1.000000   1.000000
    7      -13.119199    -13.119258   1.000000   1.000000
    8      -12.589745    -12.589816   1.000000   1.000000
    9       -4.070429     -4.070444   1.000000   1.000000
   10       -2.808237     -2.808272   1.000000   1.000000
   11       -2.327150     -2.327185   1.000000   1.000000
   12       -2.052561     -2.052598   1.000000   1.000000
   13       -1.626253     -1.626300   1.000000   1.000000
   14       -1.288264     -1.288317   1.000000   1.000000
   15        0.609027      0.608984   1.000000   1.000000
   16        0.957357      0.957306   1.000000   1.000000
   17        1.497640      1.497576   1.000000   1.000000
   18        2.071902      2.071824   1.000000   1.000000
   19        4.593784      4.593750   0.000000   0.000000
   20        6.171309      6.171242   0.000000   0.000000
   21        8.875852      8.875849   0.000000   0.000000
   22        9.117311      9.117332   0.000000   0.000000
   23       11.154880     11.155002   0.000000   0.000000
   24       11.820285     11.820719   0.000000   0.000000
   25       12.102487     12.103564   0.000000   0.000000
   26       13.514209     13.518713   0.000000   0.000000
 
  0.3636364E+00  0.1580715E-16  0.0000000E+00  0.3787879E-02
    1      -42.331575    -42.331407   1.000000   1.000000
    2      -42.330007    -42.329838   1.000000   1.000000
    3      -41.953167    -41.953034   1.000000   1.000000
    4      -41.952020    -41.951887   1.000000   1.000000
    5      -18.251713    -18.251768   1.000000   1.000000
    6      -18.138835    -18.138891   1.000000   1.000000
    7      -13.007141    -13.007202   1.000000   1.000000
    8      -12.578126    -12.578196   1.000000   1.000000
    9       -3.989984     -3.990001   1.000000   1.000000
   10       -3.113317     -3.113340   1.000000   1.000000
   11       -2.506003     -2.506039   1.000000   1.000000
   12       -2.344052     -2.344087   1.000000   1.000000
   13       -1.758035     -1.758080   1.000000   1.000000
   14       -1.371943     -1.371996   1.000000   1.000000
   15        0.254836      0.254800   1.000000   1.000000
   16        0.532839      0.532794   1.000000   1.000000
   17        1.380822      1.380760   1.000000   1.000000
   18        2.049547      2.049470   1.000000   1.000000
   19        4.795166      4.795126   0.000000   0.000000
   20        6.059483      6.059419   0.000000   0.000000
   21        9.320301      9.320372   0.000000   0.000000
   22        9.835568      9.835589   0.000000   0.000000
   23       11.572909     11.573062   0.000000   0.000000
   24       11.615264     11.615585   0.000000   0.000000
   25       12.917472     12.909564   0.000000   0.000000
   26       13.191983     13.200212   0.000000   0.000000
 
  0.4545455E+00  0.5000597E-17  0.0000000E+00  0.3787879E-02
    1      -42.330091    -42.329922   1.000000   1.000000
    2      -42.329070    -42.328901   1.000000   1.000000
    3      -41.951681    -41.951548   1.000000   1.000000
    4      -41.950852    -41.950719   1.000000   1.000000
    5      -18.226198    -18.226254   1.000000   1.000000
    6      -18.133049    -18.133105   1.000000   1.000000
    7      -12.929307    -12.929371   1.000000   1.000000
    8      -12.581232    -12.581301   1.000000   1.000000
    9       -3.923277     -3.923296   1.000000   1.000000
   10       -3.339242     -3.339257   1.000000   1.000000
   11       -2.612638     -2.612669   1.000000   1.000000
   12       -2.468527     -2.468566   1.000000   1.000000
   13       -1.832573     -1.832618   1.000000   1.000000
   14       -1.422070     -1.422122   1.000000   1.000000
   15        0.080046      0.080015   1.000000   1.000000
   16        0.272344      0.272300   1.000000   1.000000
   17        1.315452      1.315391   1.000000   1.000000
   18        2.033608      2.033531   1.000000   1.000000
   19        4.929650      4.929606   0.000000   0.000000
   20        5.968260      5.968199   0.000000   0.000000
   21        9.515088      9.515450   0.000000   0.000000
   22       10.331582     10.331607   0.000000   0.000000
   23       11.520014     11.519848   0.000000   0.000000
   24       11.828448     11.828419   0.000000   0.000000
   25       13.050848     13.051712   0.000000   0.000000
   26       13.354803     13.354951   0.000000   0.000000
 
 -0.1791538E-17  0.8333333E-01  0.0000000E+00  0.3787879E-02
    1      -42.338707    -42.338539   1.000000   1.000000
    2      -42.334484    -42.334316   1.000000   1.000000
    3      -41.960640    -41.960506   1.000000   1.000000
    4      -41.957072    -41.956938   1.000000   1.000000
    5      -18.354723    -18.354774   1.000000   1.000000
    6      -18.181059    -18.181113   1.000000   1.000000
    7      -13.299527    -13.299581   1.000000   1.000000
    8      -12.637419    -12.637490   1.000000   1.000000
    9       -4.187068     -4.187080   1.000000   1.000000
   10       -2.551293     -2.551341   1.000000   1.000000
   11       -1.525839     -1.525886   1.000000   1.000000
   12       -1.437803     -1.437852   1.000000   1.000000
   13       -1.298062     -1.298114   1.000000   1.000000
   14       -1.215970     -1.216023   1.000000   1.000000
   15        1.598157      1.598091   1.000000   1.000000
   16        1.672374      1.672306   1.000000   1.000000
   17        1.909954      1.909882   1.000000   1.000000
   18        1.989551      1.989475   1.000000   1.000000
   19        4.186044      4.186030   0.000001   0.000001
   20        6.294439      6.294372   0.000000   0.000000
   21        7.662618      7.662639   0.000000   0.000000
   22        7.926176      7.926221   0.000000   0.000000
   23       10.320755     10.320751   0.000000   0.000000
   24       10.603156     10.603134   0.000000   0.000000
   25       12.823993     12.823791   0.000000   0.000000
   26       13.185231     13.184274   0.000000   0.000000
 
  0.9090909E-01  0.8333333E-01  0.0000000E+00  0.3787879E-02
    1      -42.337297    -42.337130   1.000000   1.000000
    2      -42.333548    -42.333380   1.000000   1.000000
    3      -41.959112    -41.958979   1.000000   1.000000
    4      -41.956041    -41.955907   1.000000   1.000000
    5      -18.335421    -18.335472   1.000000   1.000000
    6      -18.170575    -18.170629   1.000000   1.000000
    7      -13.249026    -13.249082   1.000000   1.000000
    8      -12.619076    -12.619147   1.000000   1.000000
    9       -4.154784     -4.154797   1.000000   1.000000
   10       -2.587010     -2.587057   1.000000   1.000000
   11       -1.805744     -1.805784   1.000000   1.000000
   12       -1.623731     -1.623775   1.000000   1.000000
   13       -1.401589     -1.401640   1.000000   1.000000
   14       -1.257039     -1.257092   1.000000   1.000000
   15        1.274931      1.274873   1.000000   1.000000
   16        1.495184      1.495123   1.000000   1.000000
   17        1.745763      1.745693   1.000000   1.000000
   18        2.008099      2.008022   1.000000   1.000000
   19        4.315922      4.315900   0.000000   0.000000
   20        6.271541      6.271473   0.000000   0.000000
   21        8.018588      8.018599   0.000000   0.000000
   22        8.246389      8.246426   0.000000   0.000000
   23       10.559896     10.559890   0.000000   0.000000
   24       11.033392     11.033377   0.000000   0.000000
   25       12.431130     12.431842   0.000000   0.000000
   26       13.600861     13.610682   0.000000   0.000000
 
  0.1818182E+00  0.8333333E-01  0.0000000E+00  0.3787879E-02
    1      -42.334889    -42.334721   1.000000   1.000000
    2      -42.332022    -42.331854   1.000000   1.000000
    3      -41.956557    -41.956424   1.000000   1.000000
    4      -41.954327    -41.954193   1.000000   1.000000
    5      -18.301835    -18.301888   1.000000   1.000000
    6      -18.154598    -18.154654   1.000000   1.000000
    7      -13.157609    -13.157667   1.000000   1.000000
    8      -12.593512    -12.593583   1.000000   1.000000
    9       -4.094154     -4.094169   1.000000   1.000000
   10       -2.698404     -2.698446   1.000000   1.000000
   11       -2.183272     -2.183307   1.000000   1.000000
   12       -1.953060     -1.953098   1.000000   1.000000
   13       -1.550760     -1.550808   1.000000   1.000000
   14       -1.326889     -1.326941   1.000000   1.000000
   15        0.824497      0.824449   1.000000   1.000000
   16        1.129993      1.129941   1.000000   1.000000
   17        1.564773      1.564706   1.000000   1.000000
   18        1.995820      1.995743   1.000000   1.000000
   19        4.517752      4.517721   0.000000   0.000000
   20        6.209479      6.209412   0.000000   0.000000
   21        8.635648      8.635645   0.000000   0.000000
   22        8.805789      8.805818   0.000000   0.000000
   23       10.971176     10.971188   0.000000   0.000000
   24       11.769393     11.769338   0.000000   0.000000
   25       12.007484     12.008359   0.000000   0.000000
   26       13.756857     13.753606   0.000000   0.000000
 
  0.2727273E+00  0.8333333E-01  0.0000000E+00  0.3787879E-02
    1      -42.332273    -42.332105   1.000000   1.000000
    2      -42.330398    -42.330230   1.000000   1.000000
    3      -41.953837    -41.953703   1.000000   1.000000
    4      -41.952440    -41.952306   1.000000   1.000000
    5      -18.262484    -18.262538   1.000000   1.000000
    6      -18.139851    -18.139907   1.000000   1.000000
    7      -13.045577    -13.045638   1.000000   1.000000
    8      -12.576500    -12.576570   1.000000   1.000000
    9       -4.013289     -4.013306   1.000000   1.000000
   10       -2.957126     -2.957155   1.000000   1.000000
   11       -2.434671     -2.434708   1.000000   1.000000
   12       -2.280917     -2.280951   1.000000   1.000000
   13       -1.707007     -1.707052   1.000000   1.000000
   14       -1.407172     -1.407223   1.000000   1.000000
   15        0.418557      0.418516   1.000000   1.000000
   16        0.719798      0.719752   1.000000   1.000000
   17        1.397164      1.397102   1.000000   1.000000
   18        1.967777      1.967702   1.000000   1.000000
   19        4.734709      4.734671   0.000000   0.000000
   20        6.106334      6.106269   0.000000   0.000000
   21        9.250712      9.250703   0.000000   0.000000
   22        9.518315      9.518330   0.000000   0.000000
   23       11.424935     11.424991   0.000000   0.000000
   24       11.702514     11.702575   0.000000   0.000000
   25       12.610511     12.609579   0.000000   0.000000
   26       13.302748     13.303241   0.000000   0.000000
 
  0.3636364E+00  0.8333333E-01  0.0000000E+00  0.3787879E-02
    1      -42.330329    -42.330161   1.000000   1.000000
    2      -42.329174    -42.329006   1.000000   1.000000
    3      -41.951841    -41.951707   1.000000   1.000000
    4      -41.950984    -41.950851   1.000000   1.000000
    5      -18.229108    -18.229163   1.000000   1.000000
    6      -18.131916    -18.131972   1.000000   1.000000
    7      -12.944731    -12.944793   1.000000   1.000000
    8      -12.577819    -12.577889   1.000000   1.000000
    9       -3.927316     -3.927334   1.000000   1.000000
   10       -3.245276     -3.245295   1.000000   1.000000
   11       -2.574694     -2.574727   1.000000   1.000000
   12       -2.481409     -2.481447   1.000000   1.000000
   13       -1.821716     -1.821760   1.000000   1.000000
   14       -1.470703     -1.470753   1.000000   1.000000
   15        0.162241      0.162207   1.000000   1.000000
   16        0.395501      0.395456   1.000000   1.000000
   17        1.278569      1.278510   1.000000   1.000000
   18        1.936782      1.936707   1.000000   1.000000
   19        4.919881      4.919837   0.000000   0.000000
   20        5.990659      5.990597   0.000000   0.000000
   21        9.623613      9.623679   0.000000   0.000000
   22       10.223714     10.223724   0.000000   0.000000
   23       11.538169     11.538145   0.000000   0.000000
   24       11.791434     11.791346   0.000000   0.000000
   25       13.049120     13.049621   0.000000   0.000000
   26       13.227057     13.227163   0.000000   0.000000
 
  0.4545455E+00  0.8333333E-01  0.0000000E+00  0.3787879E-02
    1      -42.329618    -42.329450   1.000000   1.000000
    2      -42.328714    -42.328545   1.000000   1.000000
    3      -41.951129    -41.950996   1.000000   1.000000
    4      -41.950428    -41.950294   1.000000   1.000000
    5      -18.215391    -18.215447   1.000000   1.000000
    6      -18.130975    -18.131031   1.000000   1.000000
    7      -12.900126    -12.900190   1.000000   1.000000
    8      -12.585646    -12.585716   1.000000   1.000000
    9       -3.879409     -3.879428   1.000000   1.000000
   10       -3.372530     -3.372545   1.000000   1.000000
   11       -2.642581     -2.642612   1.000000   1.000000
   12       -2.531789     -2.531828   1.000000   1.000000
   13       -1.866439     -1.866482   1.000000   1.000000
   14       -1.495404     -1.495453   1.000000   1.000000
   15        0.086522      0.086491   1.000000   1.000000
   16        0.265896      0.265852   1.000000   1.000000
   17        1.229181      1.229123   1.000000   1.000000
   18        1.919698      1.919623   1.000000   1.000000
   19        5.003273      5.003226   0.000000   0.000000
   20        5.931187      5.931125   0.000000   0.000000
   21        9.739977      9.740248   0.000000   0.000000
   22       10.571579     10.571603   0.000000   0.000000
   23       11.493761     11.493679   0.000000   0.000000
   24       11.946178     11.946145   0.000000   0.000000
   25       12.982185     12.982362   0.000000   0.000000
   26       13.346537     13.356180   0.000000   0.000000
 
 -0.4545455E+00  0.8333333E-01  0.0000000E+00  0.3787879E-02
    1      -42.330360    -42.330192   1.000000   1.000000
    2      -42.329208    -42.329040   1.000000   1.000000
    3      -41.951887    -41.951753   1.000000   1.000000
    4      -41.951049    -41.950915   1.000000   1.000000
    5      -18.229376    -18.229432   1.000000   1.000000
    6      -18.134054    -18.134110   1.000000   1.000000
    7      -12.942577    -12.942640   1.000000   1.000000
    8      -12.581787    -12.581857   1.000000   1.000000
    9       -3.924358     -3.924376   1.000000   1.000000
   10       -3.248239     -3.248258   1.000000   1.000000
   11       -2.582926     -2.582960   1.000000   1.000000
   12       -2.479203     -2.479240   1.000000   1.000000
   13       -1.831020     -1.831063   1.000000   1.000000
   14       -1.472985     -1.473035   1.000000   1.000000
   15        0.170216      0.170182   1.000000   1.000000
   16        0.396316      0.396271   1.000000   1.000000
   17        1.257799      1.257740   1.000000   1.000000
   18        1.925738      1.925664   1.000000   1.000000
   19        4.930812      4.930768   0.000000   0.000000
   20        5.983367      5.983305   0.000000   0.000000
   21        9.649080      9.649189   0.000000   0.000000
   22       10.293057     10.293068   0.000000   0.000000
   23       11.590729     11.590668   0.000000   0.000000
   24       11.813123     11.813101   0.000000   0.000000
   25       13.046958     13.047057   0.000000   0.000000
   26       13.178717     13.176908   0.000000   0.000000
 
 -0.3636364E+00  0.8333333E-01  0.0000000E+00  0.3787879E-02
    1      -42.332371    -42.332203   1.000000   1.000000
    2      -42.330487    -42.330319   1.000000   1.000000
    3      -41.953942    -41.953808   1.000000   1.000000
    4      -41.952614    -41.952480   1.000000   1.000000
    5      -18.263489    -18.263543   1.000000   1.000000
    6      -18.142896    -18.142952   1.000000   1.000000
    7      -13.043394    -13.043454   1.000000   1.000000
    8      -12.582024    -12.582094   1.000000   1.000000
    9       -4.010215     -4.010231   1.000000   1.000000
   10       -2.966045     -2.966073   1.000000   1.000000
   11       -2.445028     -2.445064   1.000000   1.000000
   12       -2.279469     -2.279504   1.000000   1.000000
   13       -1.718217     -1.718260   1.000000   1.000000
   14       -1.410528     -1.410578   1.000000   1.000000
   15        0.424963      0.424923   1.000000   1.000000
   16        0.724679      0.724632   1.000000   1.000000
   17        1.362539      1.362479   1.000000   1.000000
   18        1.952066      1.951992   1.000000   1.000000
   19        4.750982      4.750943   0.000000   0.000000
   20        6.097326      6.097261   0.000000   0.000000
   21        9.313096      9.313112   0.000000   0.000000
   22        9.624727      9.624741   0.000000   0.000000
   23       11.457546     11.458537   0.000000   0.000000
   24       11.746308     11.747260   0.000000   0.000000
   25       12.605669     12.603552   0.000000   0.000000
   26       13.257699     13.257530   0.000000   0.000000
 
 -0.2727273E+00  0.8333333E-01  0.0000000E+00  0.3787879E-02
    1      -42.334991    -42.334823   1.000000   1.000000
    2      -42.332136    -42.331967   1.000000   1.000000
    3      -41.956680    -41.956547   1.000000   1.000000
    4      -41.954517    -41.954384   1.000000   1.000000
    5      -18.303284    -18.303336   1.000000   1.000000
    6      -18.157733    -18.157788   1.000000   1.000000
    7      -13.156233    -13.156291   1.000000   1.000000
    8      -12.598394    -12.598465   1.000000   1.000000
    9       -4.092499     -4.092513   1.000000   1.000000
   10       -2.714104     -2.714146   1.000000   1.000000
   11       -2.185549     -2.185585   1.000000   1.000000
   12       -1.970800     -1.970839   1.000000   1.000000
   13       -1.545399     -1.545445   1.000000   1.000000
   14       -1.329071     -1.329122   1.000000   1.000000
   15        0.821102      0.821053   1.000000   1.000000
   16        1.132143      1.132089   1.000000   1.000000
   17        1.533477      1.533413   1.000000   1.000000
   18        1.985546      1.985471   1.000000   1.000000
   19        4.534626      4.534594   0.000000   0.000000
   20        6.202391      6.202324   0.000000   0.000000
   21        8.727604      8.727600   0.000000   0.000000
   22        8.891181      8.891206   0.000000   0.000000
   23       11.004475     11.004497   0.000000   0.000000
   24       11.798322     11.798220   0.000000   0.000000
   25       11.991236     11.992124   0.000000   0.000000
   26       13.583154     13.583483   0.000000   0.000000
 
 -0.1818182E+00  0.8333333E-01  0.0000000E+00  0.3787879E-02
    1      -42.337344    -42.337176   1.000000   1.000000
    2      -42.333616    -42.333447   1.000000   1.000000
    3      -41.959183    -41.959050   1.000000   1.000000
    4      -41.956160    -41.956026   1.000000   1.000000
    5      -18.336545    -18.336596   1.000000   1.000000
    6      -18.172864    -18.172918   1.000000   1.000000
    7      -13.248204    -13.248260   1.000000   1.000000
    8      -12.622176    -12.622246   1.000000   1.000000
    9       -4.154388     -4.154401   1.000000   1.000000
   10       -2.598284     -2.598330   1.000000   1.000000
   11       -1.816693     -1.816734   1.000000   1.000000
   12       -1.662376     -1.662421   1.000000   1.000000
   13       -1.367072     -1.367121   1.000000   1.000000
   14       -1.253300     -1.253352   1.000000   1.000000
   15        1.253428      1.253369   1.000000   1.000000
   16        1.488432      1.488371   1.000000   1.000000
   17        1.735308      1.735240   1.000000   1.000000
   18        2.014250      2.014174   1.000000   1.000000
   19        4.328935      4.328913   0.000000   0.000000
   20        6.267623      6.267555   0.000000   0.000000
   21        8.088892      8.088902   0.000000   0.000000
   22        8.300332      8.300367   0.000000   0.000000
   23       10.585203     10.585196   0.000000   0.000000
   24       11.061089     11.061072   0.000000   0.000000
   25       12.305211     12.306709   0.000000   0.000000
   26       13.765021     13.799522   0.000000   0.000000
 
 -0.9090909E-01  0.8333333E-01  0.0000000E+00  0.3787879E-02
    1      -42.338742    -42.338574   1.000000   1.000000
    2      -42.334497    -42.334329   1.000000   1.000000
    3      -41.960654    -41.960521   1.000000   1.000000
    4      -41.957128    -41.956994   1.000000   1.000000
    5      -18.355205    -18.355255   1.000000   1.000000
    6      -18.181903    -18.181957   1.000000   1.000000
    7      -13.299255    -13.299309   1.000000   1.000000
    8      -12.638585    -12.638655   1.000000   1.000000
    9       -4.187095     -4.187107   1.000000   1.000000
   10       -2.555057     -2.555105   1.000000   1.000000
   11       -1.553575     -1.553622   1.000000   1.000000
   12       -1.436102     -1.436151   1.000000   1.000000
   13       -1.296835     -1.296887   1.000000   1.000000
   14       -1.195197     -1.195249   1.000000   1.000000
   15        1.557768      1.557702   1.000000   1.000000
   16        1.704498      1.704431   1.000000   1.000000
   17        1.873710      1.873637   1.000000   1.000000
   18        2.022121      2.022046   1.000000   1.000000
   19        4.190872      4.190857   0.000000   0.000000
   20        6.293265      6.293197   0.000000   0.000000
   21        7.687201      7.687222   0.000000   0.000000
   22        7.944324      7.944366   0.000000   0.000000
   23       10.330749     10.330749   0.000000   0.000000
   24       10.613004     10.613005   0.000000   0.000000
   25       12.625138     12.625580   0.000000   0.000000
   26       13.498141     13.464698   0.000000   0.000000
 
 -0.8860965E-17  0.1666667E+00  0.0000000E+00  0.3787879E-02
    1      -42.336440    -42.336273   1.000000   1.000000
    2      -42.332940    -42.332772   1.000000   1.000000
    3      -41.958154    -41.958021   1.000000   1.000000
    4      -41.955273    -41.955139   1.000000   1.000000
    5      -18.322739    -18.322790   1.000000   1.000000
    6      -18.161155    -18.161210   1.000000   1.000000
    7      -13.223409    -13.223465   1.000000   1.000000
    8      -12.605370    -12.605441   1.000000   1.000000
    9       -4.137519     -4.137532   1.000000   1.000000
   10       -2.585789     -2.585836   1.000000   1.000000
   11       -1.818357     -1.818396   1.000000   1.000000
   12       -1.673548     -1.673594   1.000000   1.000000
   13       -1.507900     -1.507945   1.000000   1.000000
   14       -1.372336     -1.372389   1.000000   1.000000
   15        1.243636      1.243579   1.000000   1.000000
   16        1.473711      1.473647   1.000000   1.000000
   17        1.584105      1.584045   1.000000   1.000000
   18        1.968205      1.968127   1.000000   1.000000
   19        4.357983      4.357959   0.000000   0.000000
   20        6.262544      6.262476   0.000000   0.000000
   21        8.060726      8.060747   0.000000   0.000000
   22        8.316657      8.316690   0.000000   0.000000
   23       10.626516     10.626510   0.000000   0.000000
   24       11.177007     11.177112   0.000000   0.000000
   25       12.600566     12.599639   0.000000   0.000000
   26       13.341863     13.339594   0.000000   0.000000
 
  0.9090909E-01  0.1666667E+00  0.0000000E+00  0.3787879E-02
    1      -42.334664    -42.334496   1.000000   1.000000
    2      -42.331787    -42.331619   1.000000   1.000000
    3      -41.956234    -41.956101   1.000000   1.000000
    4      -41.953983    -41.953849   1.000000   1.000000
    5      -18.296760    -18.296812   1.000000   1.000000
    6      -18.148645    -18.148701   1.000000   1.000000
    7      -13.154185    -13.154242   1.000000   1.000000
    8      -12.586159    -12.586230   1.000000   1.000000
    9       -4.090246     -4.090260   1.000000   1.000000
   10       -2.655795     -2.655840   1.000000   1.000000
   11       -2.085207     -2.085242   1.000000   1.000000
   12       -1.969606     -1.969645   1.000000   1.000000
   13       -1.548907     -1.548953   1.000000   1.000000
   14       -1.476923     -1.476974   1.000000   1.000000
   15        0.940444      0.940391   1.000000   1.000000
   16        1.158058      1.158007   1.000000   1.000000
   17        1.510273      1.510209   1.000000   1.000000
   18        1.911127      1.911051   1.000000   1.000000
   19        4.510127      4.510097   0.000000   0.000000
   20        6.215081      6.215014   0.000000   0.000000
   21        8.484081      8.484078   0.000000   0.000000
   22        8.740318      8.740342   0.000000   0.000000
   23       10.915366     10.915360   0.000000   0.000000
   24       11.712903     11.713280   0.000000   0.000000
   25       12.245170     12.245477   0.000000   0.000000