       N       E                     dE             d eps       ncg     rms          rms(c)
DAV:   1     0.259083433344E+03    0.25908E+03   -0.17421E+04 20912   0.146E+03
DAV:   2    -0.139934605414E+02   -0.27308E+03   -0.26376E+03 25214   0.363E+02
DAV:   3    -0.371333361650E+02   -0.23140E+02   -0.22975E+02 32862   0.909E+01
DAV:   4    -0.391463721637E+02   -0.20130E+01   -0.20064E+01 31798   0.237E+01
DAV:   5    -0.392106520295E+02   -0.64280E-01   -0.64274E-01 29038   0.362E+00    0.177E+01
RMM:   6    -0.380699459266E+02    0.11407E+01   -0.52903E+00 23085   0.121E+01    0.782E+00
RMM:   7    -0.386672798107E+02   -0.59733E+00   -0.83383E-01 26658   0.565E+00    0.388E+00
RMM:   8    -0.387451379179E+02   -0.77858E-01   -0.38106E-01 31438   0.352E+00    0.157E+00
RMM:   9    -0.387576873334E+02   -0.12549E-01   -0.12813E-01 32401   0.236E+00    0.382E-01
RMM:  10    -0.387689003722E+02   -0.11213E-01   -0.69786E-02 36898   0.131E+00    0.192E-01
RMM:  11    -0.387733113632E+02   -0.44110E-02   -0.26821E-02 37976   0.780E-01    0.133E-01
RMM:  12    -0.387750031564E+02   -0.16918E-02   -0.12038E-02 39153   0.473E-01    0.995E-02
RMM:  13    -0.387754904542E+02   -0.48730E-03   -0.42405E-03 37003   0.336E-01    0.493E-02
RMM:  14    -0.387758538967E+02   -0.36344E-03   -0.23874E-03 37884   0.240E-01    0.134E-02
RMM:  15    -0.387759906466E+02   -0.13675E-03   -0.12074E-03 35853   0.142E-01    0.108E-02
RMM:  16    -0.387760450982E+02   -0.54452E-04   -0.49111E-04 34617   0.941E-02    0.981E-03
RMM:  17    -0.387760624841E+02   -0.17386E-04   -0.19142E-04 33106   0.652E-02    0.354E-03
RMM:  18    -0.387760704564E+02   -0.79722E-05   -0.79071E-05 27667   0.468E-02
   1 F= -.38776070E+02 E0= -.38776070E+02  d E =0.000000E+00  mag=    -0.0000
