 running on   24 total cores
 distrk:  each k-point on   24 cores,    1 groups
 distr:  one band on    6 cores,    4 groups
 using from now: INCAR     
 vasp.6.1.2 22Jul20 (build Mar 31 2021 18:09:49) complex                        
  
 POSCAR found type information on POSCAR LiO 
 POSCAR found :  2 types and       8 ions
 scaLAPACK will be used
 -----------------------------------------------------------------------------
|                                                                             |
|               ----> ADVICE to this user running VASP <----                  |
|                                                                             |
|     You have a (more or less) 'small supercell' and for smaller cells       |
|     it is recommended to use the reciprocal-space projection scheme!        |
|     The real-space optimization is not efficient for small cells and it     |
|     is also less accurate ...                                               |
|     Therefore, set LREAL=.FALSE. in the INCAR file.                         |
|                                                                             |
 -----------------------------------------------------------------------------

 LDA part: xc-table for Pade appr. of Perdew
 generate k-points for:   12   12    4
 POSCAR, INCAR and KPOINTS ok, starting setup
 FFT: planning ...
 WAVECAR not read
 entering main loop
       N       E                     dE             d eps       ncg     rms          rms(c)
DAV:   1     0.252160237312E+03    0.25216E+03   -0.17306E+04 18368   0.137E+03
DAV:   2    -0.147482381545E+02   -0.26691E+03   -0.25684E+03 22008   0.347E+02
DAV:   3    -0.374747802068E+02   -0.22727E+02   -0.22536E+02 29340   0.844E+01
DAV:   4    -0.392661041391E+02   -0.17913E+01   -0.17842E+01 27552   0.213E+01
DAV:   5    -0.393112708396E+02   -0.45167E-01   -0.45164E-01 25712   0.309E+00    0.178E+01
RMM:   6    -0.381988433838E+02    0.11124E+01   -0.44941E+00 20439   0.109E+01    0.783E+00
RMM:   7    -0.388066016626E+02   -0.60776E+00   -0.68015E-01 23084   0.506E+00    0.389E+00
RMM:   8    -0.388846307196E+02   -0.78029E-01   -0.30888E-01 27007   0.315E+00    0.156E+00
RMM:   9    -0.388953451427E+02   -0.10714E-01   -0.10611E-01 28697   0.204E+00    0.385E-01
RMM:  10    -0.389049261714E+02   -0.95810E-02   -0.54478E-02 32269   0.115E+00    0.187E-01
RMM:  11    -0.389087611036E+02   -0.38349E-02   -0.20957E-02 32986   0.667E-01    0.126E-01
RMM:  12    -0.389100833644E+02   -0.13223E-02   -0.88423E-03 34235   0.399E-01    0.918E-02
RMM:  13    -0.389104943596E+02   -0.41100E-03   -0.32245E-03 32676   0.273E-01    0.386E-02
RMM:  14    -0.389107595955E+02   -0.26524E-03   -0.16600E-03 33244   0.191E-01    0.959E-03
RMM:  15    -0.389108512948E+02   -0.91699E-04   -0.76081E-04 31570   0.112E-01    0.929E-03
RMM:  16    -0.389108859270E+02   -0.34632E-04   -0.31489E-04 30306   0.737E-02    0.622E-03
RMM:  17    -0.389108993081E+02   -0.13381E-04   -0.12560E-04 28226   0.511E-02    0.362E-03
RMM:  18    -0.389109035717E+02   -0.42637E-05   -0.44922E-05 23947   0.371E-02
   1 F= -.38910904E+02 E0= -.38910904E+02  d E =0.000000E+00  mag=    -0.0000
