       N       E                     dE             d eps       ncg     rms          rms(c)
DAV:   1     0.360662024985E+03    0.36066E+03   -0.27812E+04 15784   0.146E+03
DAV:   2    -0.175203452959E+02   -0.37818E+03   -0.36480E+03 20772   0.348E+02
DAV:   3    -0.431281149800E+02   -0.25608E+02   -0.25305E+02 23234   0.912E+01
DAV:   4    -0.441129136296E+02   -0.98480E+00   -0.98077E+00 26448   0.127E+01
DAV:   5    -0.441857175734E+02   -0.72804E-01   -0.72797E-01 21054   0.175E+00    0.143E+01
RMM:   6    -0.444794424420E+02   -0.29372E+00   -0.27608E+00 18023   0.858E+00    0.947E+00
RMM:   7    -0.441297603973E+02    0.34968E+00   -0.98825E-01 17499   0.533E+00    0.557E+00
RMM:   8    -0.439174564171E+02    0.21230E+00   -0.45157E-01 17883   0.388E+00    0.364E+00
RMM:   9    -0.439135604355E+02    0.38960E-02   -0.17534E-01 18716   0.232E+00    0.276E+00
RMM:  10    -0.438757962714E+02    0.37764E-01   -0.60023E-02 19194   0.141E+00    0.728E-01
RMM:  11    -0.438778983767E+02   -0.21021E-02   -0.11770E-02 21187   0.682E-01    0.399E-01
RMM:  12    -0.438783596210E+02   -0.46124E-03   -0.50879E-03 21828   0.456E-01    0.145E-01
RMM:  13    -0.438788652480E+02   -0.50563E-03   -0.20177E-03 25532   0.251E-01    0.540E-02
RMM:  14    -0.438790276185E+02   -0.16237E-03   -0.81628E-04 27230   0.138E-01    0.320E-02
RMM:  15    -0.438791250536E+02   -0.97435E-04   -0.39891E-04 26478   0.961E-02    0.192E-02
RMM:  16    -0.438791613793E+02   -0.36326E-04   -0.19543E-04 24895   0.638E-02    0.148E-02
RMM:  17    -0.438791891168E+02   -0.27738E-04   -0.96172E-05 22012   0.495E-02    0.947E-03
RMM:  18    -0.438792001949E+02   -0.11078E-04   -0.26389E-05 15491   0.346E-02    0.742E-03
RMM:  19    -0.438792121221E+02   -0.11927E-04   -0.43103E-05 18478   0.349E-02    0.708E-03
RMM:  20    -0.438792174601E+02   -0.53380E-05   -0.93101E-06 14190   0.269E-02
   1 F= -.43879217E+02 E0= -.43879217E+02  d E =0.000000E+00  mag=     0.0342
