    1    1    1    2
  0.2193157E+02  0.3054198E-09  0.3054198E-09  0.3054198E-09  0.5000000E-15
  1.000000000000000E-004
  CAR 
 unknown system                          
      3     84      8
 
  0.0000000E+00  0.0000000E+00  0.0000000E+00  0.4551661E-03
    1      -46.256009    -46.253095   1.000000   1.000000
    2       -3.043327     -3.042893   1.000000   1.000000
    3       14.214089     14.214243   0.000000   0.000000
    4       14.214089     14.214243   0.000000   0.000000
    5       14.214192     14.214275   0.000000   0.000000
    6       18.827339     18.828122   0.000000   0.000000
    7       18.827339     18.828122   0.000000   0.000000
    8       18.827356     18.828190   0.000000   0.000000
 
  0.7692308E-01  0.1037883E-17 -0.1037883E-17  0.5461994E-02
    1      -46.255205    -46.252291   1.000000   1.000000
    2       -2.934541     -2.934112   1.000000   1.000000
    3       13.497584     13.497845   0.000000   0.000000
    4       13.708513     13.708712   0.000000   0.000000
    5       14.034147     14.034261   0.000000   0.000000
    6       17.434765     17.434890   0.000000   0.000000
    7       17.637524     17.638129   0.000000   0.000000
    8       18.946484     18.946265   0.000000   0.000000
 
  0.1538462E+00  0.6452960E-17 -0.6452960E-17  0.5461994E-02
    1      -46.252937    -46.250022   1.000000   1.000000
    2       -2.608057     -2.607643   1.000000   1.000000
    3       11.546991     11.547449   0.000000   0.000000
    4       12.732657     12.732931   0.000000   0.000000
    5       13.543562     13.543591   0.000000   0.000000
    6       16.257242     16.257808   0.000000   0.000000
    7       16.504542     16.504855   0.000000   0.000000
    8       18.659442     18.659416   0.000000   0.000000
 
  0.2307692E+00 -0.4744800E-17  0.4744800E-17  0.5461994E-02
    1      -46.249793    -46.246877   1.000000   1.000000
    2       -2.064847     -2.064458   1.000000   1.000000
    3        9.215702      9.216037   0.000000   0.000000
    4       11.789293     11.789608   0.000000   0.000000
    5       12.911489     12.911446   0.000000   0.000000
    6       15.129399     15.129952   0.000000   0.000000
    7       16.243536     16.244146   0.000000   0.000000
    8       18.957447     18.957518   0.000000   0.000000
 
  0.3076923E+00  0.1290592E-16 -0.1290592E-16  0.5461994E-02
    1      -46.246408    -46.243490   1.000000   1.000000
    2       -1.312252     -1.311904   1.000000   1.000000
    3        6.995001      6.995346   0.000000   0.000000
    4       11.034296     11.034632   0.000000   0.000000
    5       12.324122     12.324035   0.000000   0.000000
    6       14.278711     14.279257   0.000000   0.000000
    7       16.265648     16.265947   0.000000   0.000000
    8       19.680698     19.680838   0.000000   0.000000
 
  0.3846154E+00  0.1708160E-17 -0.1708160E-17  0.5461994E-02
    1      -46.243599    -46.240682   1.000000   1.000000
    2       -0.388937     -0.388648   1.048607   1.048650
    3        5.059355      5.059750   0.000000   0.000000
    4       10.516738     10.517085   0.000000   0.000000
    5       11.892112     11.892003   0.000000   0.000000
    6       13.710308     13.710851   0.000000   0.000000
    7       16.406803     16.407178   0.000000   0.000000
    8       20.680795     20.681000   0.000000   0.000000
 
  0.4615385E+00 -0.8396696E-17  0.8396696E-17  0.5461994E-02
    1      -46.242028    -46.239109   1.000000   1.000000
    2        0.498172      0.498370   0.356896   0.356507
    3        3.658866      3.659348   0.000000   0.000000
    4       10.254726     10.255077   0.000000   0.000000
    5       11.666437     11.666317   0.000000   0.000000
    6       13.425832     13.426374   0.000000   0.000000
    7       16.530410     16.530867   0.000000   0.000000
    8       21.657894     21.658181   0.000000   0.000000
 
  0.7692308E-01  0.7692308E-01  0.8167137E-15  0.1092399E-01
    1      -46.253651    -46.250736   1.000000   1.000000
    2       -2.716832     -2.716413   1.000000   1.000000
    3       12.558311     12.558790   0.000000   0.000000
    4       12.621525     12.621742   0.000000   0.000000
    5       13.469497     13.469607   0.000000   0.000000
    6       16.671622     16.671646   0.000000   0.000000
    7       16.927575     16.928059   0.000000   0.000000
    8       18.724565     18.724840   0.000000   0.000000
 
  0.1538462E+00  0.7692308E-01  0.8512899E-15  0.2184797E-01
    1      -46.250947    -46.248031   1.000000   1.000000
    2       -2.281306     -2.280909   1.000000   1.000000
    3       10.411585     10.411932   0.000000   0.000000
    4       11.610658     11.611036   0.000000   0.000000
    5       12.711164     12.711256   0.000000   0.000000
    6       16.297070     16.297463   0.000000   0.000000
    7       16.367327     16.367614   0.000000   0.000000
    8       18.822334     18.822624   0.000000   0.000000
 
  0.2307692E+00  0.7692308E-01  0.8241385E-15  0.2184797E-01
    1      -46.247708    -46.244791   1.000000   1.000000
    2       -1.630601     -1.630235   1.000000   1.000000
    3        8.114796      8.115106   0.000000   0.000000
    4       10.787433     10.787791   0.000000   0.000000
    5       11.978119     11.978201   0.000000   0.000000
    6       15.666101     15.666566   0.000000   0.000000
    7       16.334350     16.334595   0.000000   0.000000
    8       19.300508     19.301056   0.000000   0.000000
 
  0.3076923E+00  0.7692308E-01  0.8309591E-15  0.2184797E-01
    1      -46.244614    -46.241697   1.000000   1.000000
    2       -0.780857     -0.780538   1.007504   1.007516
    3        6.021583      6.021932   0.000000   0.000000
    4       10.175047     10.175409   0.000000   0.000000
    5       11.399656     11.399735   0.000000   0.000000
    6       15.110759     15.111185   0.000000   0.000000
    7       16.504398     16.504630   0.000000   0.000000
    8       20.104763     20.105232   0.000000   0.000000
 
  0.3846154E+00  0.7692308E-01  0.8699124E-15  0.2184797E-01
    1      -46.242426    -46.239508   1.000000   1.000000
    2        0.184386      0.184632   0.864723   0.864389
    3        4.293171      4.293586   0.000000   0.000000
    4        9.800104      9.800472   0.000000   0.000000
    5       11.036808     11.036886   0.000000   0.000000
    6       14.753989     14.754398   0.000000   0.000000
    7       16.712878     16.713206   0.000000   0.000000
    8       21.098739     21.099150   0.000000   0.000000
 
  0.4615385E+00  0.7692308E-01  0.8800173E-15  0.1092399E-01
    1      -46.241685    -46.238766   1.000000   1.000000
    2        0.779895      0.780064  -0.008728  -0.008811
    3        3.440719      3.441210   0.000000   0.000000
    4        9.673934      9.674306   0.000000   0.000000
    5       10.913709     10.913787   0.000000   0.000000
    6       14.631983     14.632388   0.000000   0.000000
    7       16.807052     16.807428   0.000000   0.000000
    8       21.848869     21.849401   0.000000   0.000000
 
  0.1538462E+00  0.1538462E+00  0.5177387E-14  0.1092399E-01
    1      -46.248168    -46.245251   1.000000   1.000000
    2       -1.736513     -1.736140   1.000000   1.000000
    3        9.052968      9.053167   0.000000   0.000000
    4        9.903896      9.904334   0.000000   0.000000
    5       11.928734     11.928892   0.000000   0.000000
    6       16.312020     16.312039   0.000000   0.000000
    7       16.725592     16.726358   0.000000   0.000000
    8       19.323850     19.324147   0.000000   0.000000
 
  0.2307692E+00  0.1538462E+00  0.5240811E-14  0.2184797E-01
    1      -46.245196    -46.242279   1.000000   1.000000
    2       -0.978652     -0.978316   1.003089   1.003094
    3        7.068669      7.068919   0.000000   0.000000
    4        8.994628      8.995054   0.000000   0.000000
    5       11.312568     11.312752   0.000000   0.000000
    6       16.345910     16.346153   0.000000   0.000000
    7       16.925531     16.925906   0.000000   0.000000
    8       19.984965     19.985523   0.000000   0.000000
 
  0.3076923E+00  0.1538462E+00  0.5198689E-14  0.2184797E-01
    1      -46.242707    -46.239790   1.000000   1.000000
    2       -0.038183     -0.037902   0.970796   0.970643
    3        5.173253      5.173563   0.000000   0.000000
    4        8.470295      8.470709   0.000000   0.000000
    5       10.877300     10.877501   0.000000   0.000000
    6       16.230031     16.230397   0.000000   0.000000
    7       17.295181     17.295381   0.000000   0.000000
    8       20.650019     20.650442   0.000000   0.000000
 
  0.3846154E+00  0.1538462E+00  0.5209887E-14  0.2184797E-01
    1      -46.241342    -46.238423   1.000000   1.000000
    2        0.898901      0.899099   0.006301   0.006218
    3        3.741726      3.742120   0.000000   0.000000
    4        8.212841      8.213254   0.000000   0.000000
    5       10.652771     10.652980   0.000000   0.000000
    6       16.119346     16.119759   0.000000   0.000000
    7       17.657213     17.657423   0.000000   0.000000
    8       21.206835     21.207242   0.000000   0.000000
 
  0.2307692E+00  0.2307692E+00 -0.4597936E-14  0.1092399E-01
    1      -46.242820    -46.239903   1.000000   1.000000
    2       -0.116806     -0.116514   0.989254   0.989131
    3        5.804439      5.804620   0.000000   0.000000
    4        7.632400      7.632933   0.000000   0.000000
    5       10.869671     10.869904   0.000000   0.000000
    6       16.799578     16.799634   0.000000   0.000000
    7       17.502391     17.502944   0.000000   0.000000
    8       21.111531     21.111866   0.000000   0.000000
 
  0.3076923E+00  0.2307692E+00 -0.4615587E-14  0.2184797E-01
    1      -46.241149    -46.238230   1.000000   1.000000
    2        0.903397      0.903634   0.035963   0.035831
    3        4.322158      4.322383   0.000000   0.000000
    4        6.999202      6.999749   0.000000   0.000000
    5       10.594534     10.594794   0.000000   0.000000
    6       17.093671     17.093892   0.000000   0.000000
    7       18.134540     18.134976   0.000000   0.000000
    8       20.934109     20.934279   0.000000   0.000000
 
  0.3846154E+00  0.2307692E+00 -0.4604389E-14  0.1092399E-01
    1      -46.240521    -46.237602   1.000000   1.000000
    2        1.623433      1.623603  -0.004064  -0.004059
    3        3.412125      3.412420   0.000000   0.000000
    4        6.820100      6.820643   0.000000   0.000000
    5       10.500798     10.501067   0.000000   0.000000
    6       17.158996     17.159312   0.000000   0.000000
    7       18.745985     18.746401   0.000000   0.000000
    8       20.041026     20.041125   0.000000   0.000000
 
  0.3076923E+00  0.3076923E+00 -0.2478564E-15  0.1092399E-01
    1      -46.240240    -46.237321   1.000000   1.000000
    2        1.983083      1.983273  -0.002919  -0.002915
    3        3.304604      3.304777   0.000000   0.000000
    4        6.224656      6.225303   0.000000   0.000000
    5       10.453152     10.453440   0.000000   0.000000
    6       18.029612     18.029696   0.000000   0.000000
    7       18.556782     18.557322   0.000000   0.000000
    8       19.565366     19.565576   0.000000   0.000000
 
  0.7692308E-01  0.7692308E-01  0.7692308E-01  0.3641329E-02
    1      -46.251680    -46.248764   1.000000   1.000000
    2       -2.390788     -2.390385   1.000000   1.000000
    3       11.631674     11.631838   0.000000   0.000000
    4       11.631674     11.631838   0.000000   0.000000
    5       11.708355     11.708962   0.000000   0.000000
    6       16.917632     16.917869   0.000000   0.000000
    7       16.917633     16.917869   0.000000   0.000000
    8       20.156198     20.156268   0.000000   0.000000
 
  0.1538462E+00  0.7692308E-01  0.7692308E-01  0.1092399E-01
    1      -46.248836    -46.245920   1.000000   1.000000
    2       -1.846997     -1.846619   1.000000   1.000000
    3        9.310896      9.311155   0.000000   0.000000
    4       10.679183     10.679322   0.000000   0.000000
    5       10.924765     10.925236   0.000000   0.000000
    6       17.011586     17.011920   0.000000   0.000000
    7       17.190173     17.190450   0.000000   0.000000
    8       20.014026     20.014109   0.000000   0.000000
 
  0.2307692E+00  0.7692308E-01  0.7692308E-01  0.1092399E-01
    1      -46.245762    -46.242844   1.000000   1.000000
    2       -1.091046     -1.090707   1.001183   1.001186
    3        7.092378      7.092663   0.000000   0.000000
    4        9.917976      9.918103   0.000000   0.000000
    5       10.309108     10.309597   0.000000   0.000000
    6       16.824961     16.825308   0.000000   0.000000
    7       17.383131     17.383597   0.000000   0.000000
    8       20.311949     20.312068   0.000000   0.000000
 
  0.3076923E+00  0.7692308E-01  0.7692308E-01  0.1092399E-01
    1      -46.243230    -46.240312   1.000000   1.000000
    2       -0.155763     -0.155480   1.032122   1.032032
    3        5.149757      5.150094   0.000000   0.000000
    4        9.396432      9.396554   0.000000   0.000000
    5        9.885235      9.885744   0.000000   0.000000
    6       16.536947     16.537278   0.000000   0.000000
    7       17.574074     17.574374   0.000000   0.000000
    8       21.146764     21.146946   0.000000   0.000000
 
  0.3846154E+00  0.7692308E-01  0.7692308E-01  0.1092399E-01
    1      -46.241801    -46.238884   1.000000   1.000000
    2        0.766118      0.766315   0.069529   0.069379
    3        3.717122      3.717543   0.000000   0.000000
    4        9.132469      9.132588   0.000000   0.000000
    5        9.669556      9.670078   0.000000   0.000000
    6       16.354113     16.354434   0.000000   0.000000
    7       17.716180     17.716540   0.000000   0.000000
    8       22.077119     22.077394   0.000000   0.000000
 
 -0.7692308E-01  0.7692308E-01  0.7692308E-01  0.2730997E-02
    1      -46.254350    -46.251435   1.000000   1.000000
    2       -2.825310     -2.824886   1.000000   1.000000
    3       13.139695     13.139969   0.000000   0.000000
    4       13.139751     13.139997   0.000000   0.000000
    5       13.750570     13.750839   0.000000   0.000000
    6       16.493936     16.493738   0.000000   0.000000
    7       18.044534     18.044970   0.000000   0.000000
    8       18.044550     18.044989   0.000000   0.000000
 
  0.1538462E+00  0.1538462E+00  0.7692308E-01  0.1092399E-01
    1      -46.246182    -46.243263   1.000000   1.000000
    2       -1.194749     -1.194404   1.000454   1.000456
    3        8.011756      8.011929   0.000000   0.000000
    4        8.905096      8.905379   0.000000   0.000000
    5       10.240976     10.241455   0.000000   0.000000
    6       17.740716     17.741146   0.000000   0.000000
    7       17.868458     17.868600   0.000000   0.000000
    8       20.726286     20.726500   0.000000   0.000000
 
  0.2307692E+00  0.1538462E+00  0.7692308E-01  0.2184797E-01
    1      -46.243692    -46.240774   1.000000   1.000000
    2       -0.334560     -0.334259   1.054903   1.054855
    3        6.138722      6.138946   0.000000   0.000000
    4        8.063346      8.063618   0.000000   0.000000
    5        9.765560      9.766081   0.000000   0.000000
    6       18.041004     18.041426   0.000000   0.000000
    7       18.400725     18.400896   0.000000   0.000000
    8       21.265507     21.265913   0.000000   0.000000
 
  0.3076923E+00  0.1538462E+00  0.7692308E-01  0.2184797E-01
    1      -46.241924    -46.239007   1.000000   1.000000
    2        0.671172      0.671411   0.190662   0.190445
    3        4.418603      4.418897   0.000000   0.000000
    4        7.638871      7.639129   0.000000   0.000000
    5        9.476793      9.477342   0.000000   0.000000
    6       18.042291     18.042655   0.000000   0.000000
    7       18.831378     18.831608   0.000000   0.000000
    8       22.029983     22.030492   0.000000   0.000000
 
  0.3846154E+00  0.1538462E+00  0.7692308E-01  0.1092399E-01
    1      -46.241295    -46.238376   1.000000   1.000000
    2        1.344306      1.344473  -0.011546  -0.011537
    3        3.500248      3.500615   0.000000   0.000000
    4        7.501018      7.501273   0.000000   0.000000
    5        9.379884      9.380443   0.000000   0.000000
    6       18.015014     18.015377   0.000000   0.000000
    7       19.011961     19.012218   0.000000   0.000000
    8       22.722466     22.722999   0.000000   0.000000
 
 -0.1538462E+00  0.1538462E+00  0.7692308E-01  0.1092399E-01
    1      -46.252156    -46.249240   1.000000   1.000000
    2       -2.497952     -2.497544   1.000000   1.000000
    3       11.499557     11.499918   0.000000   0.000000
    4       12.097087     12.097408   0.000000   0.000000
    5       13.365372     13.365529   0.000000   0.000000
    6       15.399213     15.399091   0.000000   0.000000
    7       17.124254     17.124757   0.000000   0.000000
    8       18.223729     18.224228   0.000000   0.000000
 
  0.2307692E+00  0.2307692E+00  0.7692308E-01  0.1092399E-01
    1      -46.241976    -46.239058   1.000000   1.000000
    2        0.624815      0.625070   0.240923   0.240689
    3        4.985129      4.985298   0.000000   0.000000
    4        6.793671      6.794053   0.000000   0.000000
    5        9.427377      9.427938   0.000000   0.000000
    6       18.954779     18.955259   0.000000   0.000000
    7       19.163121     19.163241   0.000000   0.000000
    8       22.333943     22.334226   0.000000   0.000000
 
  0.3076923E+00  0.2307692E+00  0.7692308E-01  0.2184797E-01
    1      -46.241020    -46.238102   1.000000   1.000000
    2        1.671352      1.671545  -0.009524  -0.009518
    3        3.691263      3.691476   0.000000   0.000000
    4        6.294938      6.295338   0.000000   0.000000
    5        9.257670      9.258257   0.000000   0.000000
    6       19.240364     19.240790   0.000000   0.000000
    7       19.990520     19.990728   0.000000   0.000000
    8       22.165028     22.165187   0.000000   0.000000
 
 -0.2307692E+00  0.2307692E+00  0.7692308E-01  0.1092399E-01
    1      -46.249056    -46.246138   1.000000   1.000000
    2       -1.952932     -1.952548   1.000000   1.000000
    3        9.253672      9.254006   0.000000   0.000000
    4       11.117652     11.118003   0.000000   0.000000
    5       12.823968     12.823978   0.000000   0.000000
    6       15.210908     15.210898   0.000000   0.000000
    7       16.067497     16.068015   0.000000   0.000000
    8       18.696555     18.697292   0.000000   0.000000
 
 -0.1538462E+00  0.2307692E+00  0.7692308E-01  0.1092399E-01
    1      -46.249567    -46.246651   1.000000   1.000000
    2       -2.060127     -2.059737   1.000000   1.000000
    3       10.236691     10.236949   0.000000   0.000000
    4       10.626957     10.627413   0.000000   0.000000
    5       12.985392     12.985535   0.000000   0.000000
    6       14.599840     14.599758   0.000000   0.000000
    7       17.016578     17.017471   0.000000   0.000000
    8       18.667708     18.668013   0.000000   0.000000
 
  0.3076923E+00  0.3076923E+00  0.7692308E-01  0.3641329E-02
    1      -46.240651    -46.237732   1.000000   1.000000
    2        2.749825      2.749991   0.000000   0.000000
    3        2.749848      2.750016   0.000000   0.000000
    4        5.795368      5.795842   0.000000   0.000000
    5        9.185601      9.186201   0.000000   0.000000
    6       19.931504     19.932042   0.000000   0.000000
    7       20.866450     20.866587   0.000000   0.000000
    8       20.866494     20.866603   0.000000   0.000000
 
 -0.3076923E+00  0.3076923E+00  0.7692308E-01  0.1092399E-01
    1      -46.245780    -46.242863   1.000000   1.000000
    2       -1.197414     -1.197068   1.000000   1.000000
    3        7.057145      7.057494   0.000000   0.000000
    4       10.343062     10.343429   0.000000   0.000000
    5       12.270774     12.270735   0.000000   0.000000
    6       15.245066     15.245587   0.000000   0.000000
    7       15.450449     15.450521   0.000000   0.000000
    8       19.346417     19.346896   0.000000   0.000000
 
 -0.2307692E+00  0.3076923E+00  0.7692308E-01  0.2184797E-01
    1      -46.246421    -46.243503   1.000000   1.000000
    2       -1.405202     -1.404843   1.000000   1.000000
    3        8.174375      8.174668   0.000000   0.000000
    4        9.670453      9.670860   0.000000   0.000000
    5       12.501548     12.501610   0.000000   0.000000
    6       14.559128     14.559120   0.000000   0.000000
    7       16.597380     16.598022   0.000000   0.000000
    8       19.283410     19.284026   0.000000   0.000000
 
 -0.3846154E+00  0.3846154E+00  0.7692308E-01  0.1092399E-01
    1      -46.243031    -46.240112   1.000000   1.000000
    2       -0.267963     -0.267676   1.052949   1.052951
    3        5.126449      5.126844   0.000000   0.000000
    4        9.814918      9.815293   0.000000   0.000000
    5       11.855450     11.855394   0.000000   0.000000
    6       14.690286     14.690807   0.000000   0.000000
    7       15.838840     15.839004   0.000000   0.000000
    8       20.092425     20.092904   0.000000   0.000000
 
 -0.3076923E+00  0.3846154E+00  0.7692308E-01  0.2184797E-01
    1      -46.243430    -46.240513   1.000000   1.000000
    2       -0.547645     -0.547331   1.029157   1.029170
    3        6.132651      6.132982   0.000000   0.000000
    4        9.030436      9.030846   0.000000   0.000000
    5       12.014505     12.014548   0.000000   0.000000
    6       14.870473     14.870593   0.000000   0.000000
    7       16.284058     16.284498   0.000000   0.000000
    8       19.788454     19.788925   0.000000   0.000000
 
 -0.2307692E+00  0.3846154E+00  0.7692308E-01  0.1092399E-01
    1      -46.243595    -46.240677   1.000000   1.000000
    2       -0.641899     -0.641578   1.024160   1.024170
    3        6.873208      6.873416   0.000000   0.000000
    4        8.251462      8.251991   0.000000   0.000000
    5       12.223944     12.224022   0.000000   0.000000
    6       14.481400     14.481411   0.000000   0.000000
    7       16.911196     16.911840   0.000000   0.000000
    8       20.341024     20.341303   0.000000   0.000000
 
 -0.4615385E+00  0.4615385E+00  0.7692308E-01  0.1092399E-01
    1      -46.241526    -46.238607   1.000000   1.000000
    2        0.632786      0.632983   0.165320   0.165046
    3        3.716402      3.716882   0.000000   0.000000
    4        9.548209      9.548587   0.000000   0.000000
    5       11.637336     11.637272   0.000000   0.000000
    6       14.411589     14.412111   0.000000   0.000000
    7       16.144712     16.144967   0.000000   0.000000
    8       20.849852     20.851110   0.000000   0.000000
 
 -0.3846154E+00  0.4615385E+00  0.7692308E-01  0.2184797E-01
    1      -46.241343    -46.238425   1.000000   1.000000
    2        0.435755      0.436002   0.468582   0.468232
    3        4.408856      4.409249   0.000000   0.000000
    4        8.644263      8.644678   0.000000   0.000000
    5       11.686500     11.686538   0.000000   0.000000
    6       15.090827     15.091175   0.000000   0.000000
    7       16.362678     16.362930   0.000000   0.000000
    8       19.811965     19.812742   0.000000   0.000000
 
 -0.3076923E+00  0.4615385E+00  0.7692308E-01  0.2184797E-01
    1      -46.241265    -46.238348   1.000000   1.000000
    2        0.312168      0.312443   0.616335   0.616025
    3        5.224033      5.224283   0.000000   0.000000
    4        7.536941      7.537478   0.000000   0.000000
    5       11.919976     11.920058   0.000000   0.000000
    6       14.847735     14.847811   0.000000   0.000000
    7       17.083100     17.083703   0.000000   0.000000
    8       20.035411     20.035582   0.000000   0.000000
 
 -0.4615385E+00 -0.4615385E+00  0.7692308E-01  0.1092399E-01
    1      -46.240638    -46.237718   1.000000   1.000000
    2        1.059332      1.059500  -0.030339  -0.030301
    3        3.534594      3.535063   0.000000   0.000000
    4        8.514828      8.515244   0.000000   0.000000
    5       11.572878     11.572915   0.000000   0.000000
    6       15.117958     15.118511   0.000000   0.000000
    7       16.561332     16.561531   0.000000   0.000000
    8       19.553597     19.553702   0.000000   0.000000
 
 -0.3846154E+00 -0.4615385E+00  0.7692308E-01  0.2184797E-01
    1      -46.239974    -46.237056   1.000000   1.000000
    2        1.294076      1.294277  -0.029928  -0.029922
    3        3.817783      3.818117   0.000000   0.000000
    4        7.236783      7.237315   0.000000   0.000000
    5       11.732540     11.732624   0.000000   0.000000
    6       15.231529     15.231742   0.000000   0.000000
    7       17.512174     17.512730   0.000000   0.000000
    8       18.605759     18.605931   0.000000   0.000000
 
 -0.3076923E+00 -0.4615385E+00  0.7692308E-01  0.1092399E-01
    1      -46.239731    -46.236811   1.000000   1.000000
    2        1.348453      1.348682  -0.032409  -0.032403
    3        4.130318      4.130505   0.000000   0.000000
    4        6.585301      6.585957   0.000000   0.000000
    5       11.827554     11.827656   0.000000   0.000000
    6       15.329313     15.329367   0.000000   0.000000
    7       17.268632     17.269109   0.000000   0.000000
    8       18.835508     18.835893   0.000000   0.000000
 
 -0.3846154E+00 -0.3846154E+00  0.7692308E-01  0.1092399E-01
    1      -46.239173    -46.236254   1.000000   1.000000
    2        2.179904      2.180079  -0.000333  -0.000332
    3        3.239293      3.239511   0.000000   0.000000
    4        6.299737      6.300417   0.000000   0.000000
    5       11.782855     11.782965   0.000000   0.000000
    6       15.808687     15.808788   0.000000   0.000000
    7       17.031079     17.031162   0.000000   0.000000
    8       18.325044     18.325800   0.000000   0.000000
 
  0.1538462E+00  0.1538462E+00  0.1538462E+00  0.3641329E-02
    1      -46.244071    -46.241152   1.000000   1.000000
    2       -0.434973     -0.434664   1.065754   1.065727
    3        7.207074      7.207234   0.000000   0.000000
    4        7.207074      7.207234   0.000000   0.000000
    5        9.331362      9.332089   0.000000   0.000000
    6       18.941279     18.941545   0.000000   0.000000
    7       18.941280     18.941546   0.000000   0.000000
    8       22.709405     22.709453   0.000000   0.000000
 
  0.2307692E+00  0.1538462E+00  0.1538462E+00  0.1092399E-01
    1      -46.242268    -46.239351   1.000000   1.000000
    2        0.526641      0.526901   0.332609   0.332351
    3        5.371512      5.371709   0.000000   0.000000
    4        6.663670      6.663823   0.000000   0.000000
    5        8.918554      8.919344   0.000000   0.000000
    6       19.599035     19.599375   0.000000   0.000000
    7       19.831433     19.831701   0.000000   0.000000
    8       23.118302     23.118332   0.000000   0.000000
 
  0.3076923E+00  0.1538462E+00  0.1538462E+00  0.1092399E-01
    1      -46.241270    -46.238353   1.000000   1.000000
    2        1.553974      1.554167  -0.011716  -0.011710
    3        3.875222      3.875487   0.000000   0.000000
    4        6.390383      6.390535   0.000000   0.000000
    5        8.732474      8.733288   0.000000   0.000000
    6       19.865509     19.865869   0.000000   0.000000
    7       20.308323     20.308655   0.000000   0.000000
    8       23.711311     23.711346   0.000000   0.000000
 
 -0.1538462E+00  0.1538462E+00  0.1538462E+00  0.2730997E-02
    1      -46.250117    -46.247201   1.000000   1.000000
    2       -2.167803     -2.167409   1.000000   1.000000
    3       10.993443     10.993816   0.000000   0.000000
    4       10.993485     10.993847   0.000000   0.000000
    5       12.976190     12.976407   0.000000   0.000000
    6       13.636142     13.635955   0.000000   0.000000
    7       18.475648     18.475961   0.000000   0.000000
    8       18.475672     18.475973   0.000000   0.000000
 
  0.2307692E+00  0.2307692E+00  0.1538462E+00  0.1092399E-01
    1      -46.241251    -46.238333   1.000000   1.000000
    2        1.583056      1.583271  -0.013599  -0.013594
    3        4.433888      4.434051   0.000000   0.000000
    4        5.562645      5.562847   0.000000   0.000000
    5        8.571231      8.572101   0.000000   0.000000
    6       20.636410     20.636815   0.000000   0.000000
    7       21.096498     21.096765   0.000000   0.000000
    8       23.913198     23.918125   0.000000   0.000000
 
  0.3076923E+00  0.2307692E+00  0.1538462E+00  0.1092399E-01
    1      -46.240854    -46.237936   1.000000   1.000000
    2        2.471493      2.471658   0.000000   0.000000
    3        3.472343      3.472538   0.000000   0.000000
    4        5.288445      5.288659   0.000000   0.000000
    5        8.471603      8.472489   0.000000   0.000000
    6       20.992754     20.993244   0.000000   0.000000
    7       21.792919     21.793198   0.000000   0.000000
    8       23.316541     23.316828   0.000000   0.000000
 
 -0.2307692E+00  0.2307692E+00  0.1538462E+00  0.1092399E-01
    1      -46.247149    -46.244232   1.000000   1.000000
    2       -1.617433     -1.617061   1.000000   1.000000
    3        9.310260      9.310607   0.000000   0.000000
    4        9.983771      9.984159   0.000000   0.000000
    5       12.566197     12.566292   0.000000   0.000000
    6       13.139002     13.138984   0.000000   0.000000
    7       17.967878     17.968318   0.000000   0.000000
    8       19.019019     19.019589   0.000000   0.000000
 
 -0.3076923E+00  0.3076923E+00  0.1538462E+00  0.1092399E-01
    1      -46.243968    -46.241051   1.000000   1.000000
    2       -0.852909     -0.852574   1.012781   1.012792
    3        7.238198      7.238531   0.000000   0.000000
    4        9.193360      9.193758   0.000000   0.000000