       N       E                     dE             d eps       ncg     rms          rms(c)
DAV:   1     0.200657043089E+00    0.20066E+00   -0.69922E+02  2712   0.255E+02
DAV:   2    -0.157477718090E+01   -0.17754E+01   -0.17533E+01  4040   0.351E+01
DAV:   3    -0.159652273964E+01   -0.21746E-01   -0.21732E-01  2952   0.316E+00
DAV:   4    -0.159704497459E+01   -0.52223E-03   -0.52133E-03  4056   0.362E-01
DAV:   5    -0.159704649303E+01   -0.15184E-05   -0.15153E-05  3088   0.175E-02    0.545E+00
RMM:   6    -0.182118842708E+01   -0.22414E+00   -0.60547E-02  3115   0.185E+00    0.258E+00
RMM:   7    -0.189726763919E+01   -0.76079E-01   -0.21805E-02  2828   0.114E+00    0.177E-01
RMM:   8    -0.189833266549E+01   -0.10650E-02   -0.50032E-03  3143   0.594E-01    0.945E-02
RMM:   9    -0.189856859668E+01   -0.23593E-03   -0.18808E-03  3623   0.335E-01    0.304E-02
RMM:  10    -0.189892914721E+01   -0.36055E-03   -0.15973E-03  3458   0.293E-01    0.281E-02
RMM:  11    -0.189897301296E+01   -0.43866E-04   -0.21077E-04  3827   0.114E-01    0.208E-02
RMM:  12    -0.189899386436E+01   -0.20851E-04   -0.15443E-04  3644   0.891E-02    0.106E-02
RMM:  13    -0.189900326522E+01   -0.94009E-05   -0.27840E-05  3333   0.450E-02
   1 F= -.18990033E+01 E0= -.18990033E+01  d E =0.000000E+00  mag=    -0.0001
