 running on    8 total cores
 distrk:  each k-point on    8 cores,    1 groups
 distr:  one band on    1 cores,    8 groups
 using from now: INCAR     
 vasp.6.1.2 22Jul20 (build Mar 20 2021 11:25:07) complex                        
  
 POSCAR found type information on POSCAR Li
 POSCAR found :  1 types and       1 ions
 scaLAPACK will be used
 -----------------------------------------------------------------------------
|                                                                             |
|           W    W    AA    RRRRR   N    N  II  N    N   GGGG   !!!           |
|           W    W   A  A   R    R  NN   N  II  NN   N  G    G  !!!           |
|           W    W  A    A  R    R  N N  N  II  N N  N  G       !!!           |
|           W WW W  AAAAAA  RRRRR   N  N N  II  N  N N  G  GGG   !            |
|           WW  WW  A    A  R   R   N   NN  II  N   NN  G    G                |
|           W    W  A    A  R    R  N    N  II  N    N   GGGG   !!!           |
|                                                                             |
|     The value NCORE = 6 specified in the INCAR file was overwritten,        |
|     because it was not compatible with the 8 processes available:           |
|     NCORE = 1                                                               |
|     was used instead, please check that this makes sense for your           |
|     machine.                                                                |
|                                                                             |
 -----------------------------------------------------------------------------

 -----------------------------------------------------------------------------
|                                                                             |
|           W    W    AA    RRRRR   N    N  II  N    N   GGGG   !!!           |
|           W    W   A  A   R    R  NN   N  II  NN   N  G    G  !!!           |
|           W    W  A    A  R    R  N N  N  II  N N  N  G       !!!           |
|           W WW W  AAAAAA  RRRRR   N  N N  II  N  N N  G  GGG   !            |
|           WW  WW  A    A  R   R   N   NN  II  N   NN  G    G                |
|           W    W  A    A  R    R  N    N  II  N    N   GGGG   !!!           |
|                                                                             |
|     For optimal performance we recommend to set                             |
|       NCORE = 4 - approx SQRT(number of cores).                             |
|     NCORE specifies how many cores store one orbital (NPAR=cpu/NCORE).      |
|     This setting can greatly improve the performance of VASP for DFT.       |
|     The default, NCORE=1 might be grossly inefficient on modern             |
|     multi-core architectures or massively parallel machines. Do your        |
|     own testing!!!!                                                         |
|     Unfortunately you need to use the default for GW and RPA                |
|     calculations (for HF NCORE is supported but not extensively tested      |
|     yet).                                                                   |
|                                                                             |
 -----------------------------------------------------------------------------

 -----------------------------------------------------------------------------
|                                                                             |
|               ----> ADVICE to this user running VASP <----                  |
|                                                                             |
|     You have a (more or less) 'small supercell' and for smaller cells       |
|     it is recommended to use the reciprocal-space projection scheme!        |
|     The real-space optimization is not efficient for small cells and it     |
|     is also less accurate ...                                               |
|     Therefore, set LREAL=.FALSE. in the INCAR file.                         |
|                                                                             |
 -----------------------------------------------------------------------------

 LDA part: xc-table for Pade appr. of Perdew
 generate k-points for:   13   13   13
 POSCAR, INCAR and KPOINTS ok, starting setup
 FFT: planning ...
 WAVECAR not read
 entering main loop
       N       E                     dE             d eps       ncg     rms          rms(c)
DAV:   1     0.200657043089E+00    0.20066E+00   -0.69922E+02  2712   0.255E+02
DAV:   2    -0.157477718090E+01   -0.17754E+01   -0.17533E+01  4040   0.351E+01
DAV:   3    -0.159652273964E+01   -0.21746E-01   -0.21732E-01  2952   0.316E+00
DAV:   4    -0.159704497459E+01   -0.52223E-03   -0.52133E-03  4056   0.362E-01
DAV:   5    -0.159704649303E+01   -0.15184E-05   -0.15153E-05  3088   0.175E-02    0.545E+00
RMM:   6    -0.182118842708E+01   -0.22414E+00   -0.60547E-02  3115   0.185E+00    0.258E+00
RMM:   7    -0.189726763919E+01   -0.76079E-01   -0.21805E-02  2828   0.114E+00    0.177E-01
RMM:   8    -0.189833266549E+01   -0.10650E-02   -0.50032E-03  3143   0.594E-01    0.945E-02
RMM:   9    -0.189856859668E+01   -0.23593E-03   -0.18808E-03  3623   0.335E-01    0.304E-02
RMM:  10    -0.189892914721E+01   -0.36055E-03   -0.15973E-03  3458   0.293E-01    0.281E-02
RMM:  11    -0.189897301296E+01   -0.43866E-04   -0.21077E-04  3827   0.114E-01    0.208E-02
RMM:  12    -0.189899386436E+01   -0.20851E-04   -0.15443E-04  3644   0.891E-02    0.106E-02
RMM:  13    -0.189900326522E+01   -0.94009E-05   -0.27840E-05  3333   0.450E-02
   1 F= -.18990033E+01 E0= -.18990033E+01  d E =0.000000E+00  mag=    -0.0001
 -----------------------------------------------------------------------------
|                                                                             |
|           W    W    AA    RRRRR   N    N  II  N    N   GGGG   !!!           |
|           W    W   A  A   R    R  NN   N  II  NN   N  G    G  !!!           |
|           W    W  A    A  R    R  N N  N  II  N N  N  G       !!!           |
|           W WW W  AAAAAA  RRRRR   N  N N  II  N  N N  G  GGG   !            |
|           WW  WW  A    A  R   R   N   NN  II  N   NN  G    G                |
|           W    W  A    A  R    R  N    N  II  N    N   GGGG   !!!           |
|                                                                             |
|     Tetrahedron method does not include variations of the Fermi             |
|     occupations, so forces and stress will be inaccurate. We suggest        |
|     using a different smearing scheme ISMEAR = 1 or 2 for metals in         |
|     relaxations.                                                            |
|                                                                             |
 -----------------------------------------------------------------------------

