   96   96    1    2
  0.8658484E+01  0.9424203E-09  0.9424203E-09  0.9424203E-09  0.5000000E-15
  1.000000000000000E-004
  CAR 
 unknown system                          
    368      8    264
 
  0.0000000E+00  0.0000000E+00  0.0000000E+00  0.3703704E-01
    1      -40.860059    -40.860056   1.000000   1.000000
    2      -40.858717    -40.858714   1.000000   1.000000
    3      -40.855162    -40.855159   1.000000   1.000000
    4      -40.854094    -40.854091   1.000000   1.000000
    5      -40.812667    -40.812660   1.000000   1.000000
    6      -40.812184    -40.812177   1.000000   1.000000
    7      -40.807131    -40.807124   1.000000   1.000000
    8      -40.806407    -40.806400   1.000000   1.000000
    9      -40.732997    -40.732982   1.000000   1.000000
   10      -40.732932    -40.732917   1.000000   1.000000
   11      -40.724999    -40.724984   1.000000   1.000000
   12      -40.724546    -40.724531   1.000000   1.000000
   13      -40.652525    -40.652515   1.000000   1.000000
   14      -40.652464    -40.652455   1.000000   1.000000
   15      -40.550814    -40.550805   1.000000   1.000000
   16      -40.549105    -40.549095   1.000000   1.000000
   17      -40.539953    -40.539943   1.000000   1.000000
   18      -40.539916    -40.539907   1.000000   1.000000
   19      -40.532557    -40.532548   1.000000   1.000000
   20      -40.525916    -40.525906   1.000000   1.000000
   21      -40.521144    -40.521135   1.000000   1.000000
   22      -40.516738    -40.516728   1.000000   1.000000
   23      -40.505263    -40.505254   1.000000   1.000000
   24      -40.503787    -40.503778   1.000000   1.000000
   25      -40.492965    -40.492955   1.000000   1.000000
   26      -40.488423    -40.488414   1.000000   1.000000
   27      -40.471622    -40.471613   1.000000   1.000000
   28      -40.470691    -40.470682   1.000000   1.000000
   29      -40.467174    -40.467166   1.000000   1.000000
   30      -40.466607    -40.466599   1.000000   1.000000
   31      -40.452063    -40.452056   1.000000   1.000000
   32      -40.448826    -40.448819   1.000000   1.000000
   33      -40.439808    -40.439801   1.000000   1.000000
   34      -40.438668    -40.438662   1.000000   1.000000
   35      -40.418026    -40.418018   1.000000   1.000000
   36      -40.417588    -40.417580   1.000000   1.000000
   37      -40.416570    -40.416562   1.000000   1.000000
   38      -40.415570    -40.415562   1.000000   1.000000
   39      -40.333447    -40.333441   1.000000   1.000000
   40      -40.332916    -40.332909   1.000000   1.000000
   41      -40.299389    -40.299383   1.000000   1.000000
   42      -40.297106    -40.297100   1.000000   1.000000
   43      -40.289049    -40.289044   1.000000   1.000000
   44      -40.289004    -40.288999   1.000000   1.000000
   45      -40.272319    -40.272315   1.000000   1.000000
   46      -40.272292    -40.272288   1.000000   1.000000
   47      -40.267262    -40.267258   1.000000   1.000000
   48      -40.267129    -40.267125   1.000000   1.000000
   49      -40.253567    -40.253562   1.000000   1.000000
   50      -40.251719    -40.251714   1.000000   1.000000
   51      -39.907651    -39.907626   1.000000   1.000000
   52      -39.907486    -39.907461   1.000000   1.000000
   53      -39.873586    -39.873562   1.000000   1.000000
   54      -39.868349    -39.868325   1.000000   1.000000
   55      -39.855516    -39.855489   1.000000   1.000000
   56      -39.855499    -39.855472   1.000000   1.000000
   57      -12.876896    -12.876899   1.000000   1.000000
   58      -12.872138    -12.872141   1.000000   1.000000
   59      -12.747863    -12.747869   1.000000   1.000000
   60      -12.745703    -12.745709   1.000000   1.000000
   61      -12.739391    -12.739397   1.000000   1.000000
   62      -12.736688    -12.736693   1.000000   1.000000
   63      -12.728066    -12.728073   1.000000   1.000000
   64      -12.726396    -12.726402   1.000000   1.000000
   65       -9.701718     -9.701725   1.000000   1.000000
   66       -9.680627     -9.680631   1.000000   1.000000
   67       -9.670504     -9.670508   1.000000   1.000000
   68       -9.665319     -9.665327   1.000000   1.000000
   69       -9.577573     -9.577579   1.000000   1.000000
   70       -9.573583     -9.573589   1.000000   1.000000
   71       -9.566062     -9.566068   1.000000   1.000000
   72       -9.563459     -9.563465   1.000000   1.000000
   73       -9.514983     -9.514990   1.000000   1.000000
   74       -9.464414     -9.464419   1.000000   1.000000
   75       -9.416554     -9.416562   1.000000   1.000000
   76       -9.415205     -9.415211   1.000000   1.000000
   77       -9.411195     -9.411203   1.000000   1.000000
   78       -9.398552     -9.398560   1.000000   1.000000
   79       -9.327054     -9.327061   1.000000   1.000000
   80       -9.314485     -9.314494   1.000000   1.000000
   81       -9.312006     -9.312013   1.000000   1.000000
   82       -9.277884     -9.277894   1.000000   1.000000
   83       -9.255450     -9.255459   1.000000   1.000000
   84       -9.234339     -9.234348   1.000000   1.000000
   85       -9.227125     -9.227135   1.000000   1.000000
   86       -9.220180     -9.220189   1.000000   1.000000
   87       -9.196233     -9.196241   1.000000   1.000000
   88       -9.177957     -9.177966   1.000000   1.000000
   89       -2.993483     -2.993487   1.000000   1.000000
   90       -2.733633     -2.733638   1.000000   1.000000
   91       -2.720427     -2.720432   1.000000   1.000000
   92       -2.672496     -2.672501   1.000000   1.000000
   93       -2.658336     -2.658341   1.000000   1.000000
   94       -2.597534     -2.597540   1.000000   1.000000
   95       -2.597076     -2.597082   1.000000   1.000000
   96       -2.559028     -2.559033   1.000000   1.000000
   97       -1.175763     -1.175766   1.000000   1.000000
   98       -1.162947     -1.162950   1.000000   1.000000
   99       -1.126570     -1.126572   1.000000   1.000000
  100       -1.115507     -1.115508   1.000000   1.000000
  101       -1.084559     -1.084560   1.000000   1.000000
  102       -1.083943     -1.083943   1.000000   1.000000
  103       -0.934600     -0.934601   1.000000   1.000000
  104       -0.873354     -0.873357   1.000000   1.000000
  105       -0.827738     -0.827741   1.000000   1.000000
  106       -0.825346     -0.825349   1.000000   1.000000
  107       -0.819720     -0.819724   1.000000   1.000000
  108       -0.790044     -0.790046   1.000000   1.000000
  109       -0.766107     -0.766110   1.000000   1.000000
  110       -0.719420     -0.719423   1.000000   1.000000
  111       -0.659229     -0.659232   1.000000   1.000000
  112       -0.537753     -0.537755   1.000000   1.000000
  113       -0.491207     -0.491211   1.000000   1.000000
  114       -0.449717     -0.449722   1.000000   1.000000
  115       -0.429204     -0.429209   1.000000   1.000000
  116       -0.388712     -0.388714   1.000000   1.000000
  117       -0.374830     -0.374832   1.000000   1.000000
  118       -0.311699     -0.311703   1.000000   1.000000
  119       -0.253391     -0.253395   1.000000   1.000000
  120       -0.248205     -0.248209   1.000000   1.000000
  121        1.096225      1.096223   1.000000   1.000000
  122        1.108573      1.108571   1.000000   1.000000
  123        1.304462      1.304460   1.000000   1.000000
  124        1.305777      1.305776   1.000000   1.000000
  125        1.329726      1.329725   1.000000   1.000000
  126        1.367047      1.367046   1.000000   1.000000
  127        1.368554      1.368553   1.000000   1.000000
  128        1.405511      1.405509   1.000000   1.000000
  129        1.412845      1.412845   1.000000   1.000000
  130        1.459388      1.459386   1.000000   1.000000
  131        1.482431      1.482429   1.000000   1.000000
  132        1.489639      1.489636   1.000000   1.000000
  133        1.522910      1.522908   1.000000   1.000000
  134        1.639166      1.639165   1.000000   1.000000
  135        1.694489      1.694484   1.000000   1.000000
  136        1.733074      1.733068   1.000000   1.000000
  137        1.751812      1.751811   1.000000   1.000000
  138        1.761984      1.761979   1.000000   1.000000
  139        1.780181      1.780180   1.000000   1.000000
  140        1.877592      1.877590   1.000000   1.000000
  141        1.898542      1.898539   1.000000   1.000000
  142        1.923243      1.923238   1.000000   1.000000
  143        1.928928      1.928925   1.000000   1.000000
  144        1.967713      1.967707   1.000000   1.000000
  145        1.993531      1.993527   1.000000   1.000000
  146        2.006813      2.006810   1.000000   1.000000
  147        2.020310      2.020308   1.000000   1.000000
  148        2.049296      2.049291   1.000000   1.000000
  149        2.077109      2.077105   1.000000   1.000000
  150        2.084837      2.084833   1.000000   1.000000
  151        2.115335      2.115331   1.000000   1.000000
  152        2.261692      2.261686   1.000000   1.000000
  153        2.339977      2.339972   1.000000   1.000000
  154        2.351900      2.351895   1.000000   1.000000
  155        2.417324      2.417320   1.000000   1.000000
  156        2.419351      2.419346   1.000000   1.000000
  157        2.473246      2.473242   1.000000   1.000000
  158        2.544496      2.544493   1.000000   1.000000
  159        2.555110      2.555106   1.000000   1.000000
  160        2.587713      2.587710   1.000000   1.000000
  161        2.667903      2.667899   1.000000   1.000000
  162        2.677806      2.677801   1.000000   1.000000
  163        2.706121      2.706118   1.000000   1.000000
  164        2.729015      2.729013   1.000000   1.000000
  165        2.845503      2.845496   1.000000   1.000000
  166        2.921416      2.921411   1.000000   1.000000
  167        2.939110      2.939105   1.000000   1.000000
  168        2.945707      2.945702   1.000000   1.000000
  169        2.952696      2.952690   1.000000   1.000000
  170        3.160672      3.160667   1.000000   1.000000
  171        3.180449      3.180444   1.000000   1.000000
  172        3.188545      3.188540   1.000000   1.000000
  173        3.266233      3.266227   1.000000   1.000000
  174        3.319716      3.319713   1.000000   1.000000
  175        3.336783      3.336777   1.000000   1.000000
  176        3.410321      3.410315   1.000000   1.000000
  177        3.441930      3.441924   1.000000   1.000000
  178        3.458104      3.458100   1.000000   1.000000
  179        3.499045      3.499039   1.000000   1.000000
  180        3.513121      3.513115   1.000000   1.000000
  181        3.611682      3.611675   1.000000   1.000000
  182        3.624917      3.624912   1.000000   1.000000
  183        3.684018      3.684013   1.000000   1.000000
  184        3.720348      3.720343   1.000000   1.000000
  185        7.022675      7.022722   0.000000   0.000000
  186        7.120533      7.120546   0.000000   0.000000
  187        7.120570      7.120597   0.000000   0.000000
  188        7.511500      7.511507   0.000000   0.000000
  189        7.864733      7.864745   0.000000   0.000000
  190        8.239091      8.239100   0.000000   0.000000
  191        8.273252      8.273261   0.000000   0.000000
  192        8.353344      8.353366   0.000000   0.000000
  193        8.397511      8.397520   0.000000   0.000000
  194        8.441852      8.441866   0.000000   0.000000
  195        8.666694      8.666697   0.000000   0.000000
  196        8.854859      8.854983   0.000000   0.000000
  197        8.892310      8.892314   0.000000   0.000000
  198        9.069708      9.069713   0.000000   0.000000
  199        9.241489      9.241513   0.000000   0.000000
  200        9.250765      9.250783   0.000000   0.000000
  201        9.291910      9.291920   0.000000   0.000000
  202        9.342396      9.342412   0.000000   0.000000
  203        9.367042      9.367062   0.000000   0.000000
  204        9.385879      9.385899   0.000000   0.000000
  205        9.512857      9.512861   0.000000   0.000000
  206        9.604499      9.604507   0.000000   0.000000
  207        9.641675      9.641681   0.000000   0.000000
  208        9.694148      9.694155   0.000000   0.000000
  209        9.861785      9.861815   0.000000   0.000000
  210        9.867070      9.867205   0.000000   0.000000
  211        9.897423      9.897434   0.000000   0.000000
  212        9.972296      9.972302   0.000000   0.000000
  213       10.090703     10.090706   0.000000   0.000000
  214       10.216516     10.216577   0.000000   0.000000
  215       10.390666     10.390670   0.000000   0.000000
  216       10.457634     10.457641   0.000000   0.000000
  217       10.707230     10.707252   0.000000   0.000000
  218       10.747974     10.747973   0.000000   0.000000
  219       10.872528     10.872534   0.000000   0.000000
  220       10.932924     10.932901   0.000000   0.000000
  221       11.050117     11.050228   0.000000   0.000000
  222       11.098495     11.098511   0.000000   0.000000
  223       11.223442     11.223421   0.000000   0.000000
  224       11.264168     11.264176   0.000000   0.000000
  225       11.290344     11.290486   0.000000   0.000000
  226       11.514428     11.514405   0.000000   0.000000
  227       11.531773     11.531735   0.000000   0.000000
  228       11.569001     11.568676   0.000000   0.000000
  229       11.602272     11.602330   0.000000   0.000000
  230       11.623253     11.623451   0.000000   0.000000
  231       11.663018     11.663154   0.000000   0.000000
  232       11.789981     11.790119   0.000000   0.000000
  233       11.811234     11.811177   0.000000   0.000000
  234       11.886301     11.886086   0.000000   0.000000
  235       11.920747     11.920776   0.000000   0.000000
  236       11.958639     11.958404   0.000000   0.000000
  237       12.141443     12.140965   0.000000   0.000000
  238       12.157994     12.157400   0.000000   0.000000
  239       12.168602     12.169174   0.000000   0.000000
  240       12.234927     12.235016   0.000000   0.000000
  241       12.237499     12.236004   0.000000   0.000000
  242       12.586980     12.583595   0.000000   0.000000
  243       12.594216     12.593946   0.000000   0.000000
  244       12.747402     12.762376   0.000000   0.000000
  245       12.788859     12.788203   0.000000   0.000000
  246       12.814501     12.817661   0.000000   0.000000
  247       12.838680     12.842211   0.000000   0.000000
  248       12.974249     12.986067   0.000000   0.000000
  249       12.994161     12.990522   0.000000   0.000000
  250       13.029370     13.055559   0.000000   0.000000
  251       13.079312     13.059539   0.000000   0.000000
  252       13.119367     13.115372   0.000000   0.000000
  253       13.172734     13.148176   0.000000   0.000000
  254       13.174828     13.188659   0.000000   0.000000
  255       13.204857     13.223309   0.000000   0.000000
  256       13.236277     13.258546   0.000000   0.000000
  257       13.291296     13.277051   0.000000   0.000000
  258       13.364409     13.379620   0.000000   0.000000
  259       13.425720     13.410757   0.000000   0.000000
  260       13.494566     13.506801   0.000000   0.000000
  261       13.615847     13.570049   0.000000   0.000000
  262       13.764124     13.709693   0.000000   0.000000
  263       13.842181     13.858623   0.000000   0.000000
  264       14.082770     13.956301   0.000000   0.000000
 
  0.3333333E+00  0.3447815E-18  0.0000000E+00  0.1481481E+00
    1      -40.859569    -40.859566   1.000000   1.000000
    2      -40.858859    -40.858856   1.000000   1.000000
    3      -40.854741    -40.854738   1.000000   1.000000
    4      -40.854175    -40.854172   1.000000   1.000000
    5      -40.812930    -40.812922   1.000000   1.000000
    6      -40.812688    -40.812681   1.000000   1.000000
    7      -40.807160    -40.807153   1.000000   1.000000
    8      -40.806813    -40.806805   1.000000   1.000000
    9      -40.732647    -40.732633   1.000000   1.000000
   10      -40.731305    -40.731291   1.000000   1.000000
   11      -40.726672    -40.726657   1.000000   1.000000
   12      -40.724504    -40.724489   1.000000   1.000000
   13      -40.652496    -40.652486   1.000000   1.000000
   14      -40.652255    -40.652246   1.000000   1.000000
   15      -40.550168    -40.550158   1.000000   1.000000
   16      -40.548688    -40.548678   1.000000   1.000000
   17      -40.541577    -40.541567   1.000000   1.000000
   18      -40.539965    -40.539955   1.000000   1.000000
   19      -40.530795    -40.530785   1.000000   1.000000
   20      -40.526441    -40.526432   1.000000   1.000000
   21      -40.520248    -40.520239   1.000000   1.000000
   22      -40.517841    -40.517831   1.000000   1.000000
   23      -40.505313    -40.505303   1.000000   1.000000
   24      -40.503035    -40.503026   1.000000   1.000000
   25      -40.494264    -40.494254   1.000000   1.000000
   26      -40.489951    -40.489942   1.000000   1.000000
   27      -40.471773    -40.471764   1.000000   1.000000
   28      -40.470969    -40.470961   1.000000   1.000000
   29      -40.466476    -40.466467   1.000000   1.000000
   30      -40.465883    -40.465875   1.000000   1.000000
   31      -40.450571    -40.450564   1.000000   1.000000
   32      -40.447944    -40.447937   1.000000   1.000000
   33      -40.441801    -40.441794   1.000000   1.000000
   34      -40.438637    -40.438631   1.000000   1.000000
   35      -40.420714    -40.420706   1.000000   1.000000
   36      -40.417169    -40.417161   1.000000   1.000000
   37      -40.416033    -40.416025   1.000000   1.000000
   38      -40.413449    -40.413441   1.000000   1.000000
   39      -40.333193    -40.333187   1.000000   1.000000
   40      -40.328268    -40.328261   1.000000   1.000000
   41      -40.313552    -40.313547   1.000000   1.000000
   42      -40.298217    -40.298211   1.000000   1.000000
   43      -40.289010    -40.289005   1.000000   1.000000
   44      -40.273770    -40.273764   1.000000   1.000000
   45      -40.272304    -40.272299   1.000000   1.000000
   46      -40.271050    -40.271046   1.000000   1.000000
   47      -40.268435    -40.268432   1.000000   1.000000
   48      -40.267277    -40.267273   1.000000   1.000000
   49      -40.257824    -40.257819   1.000000   1.000000
   50      -40.252462    -40.252457   1.000000   1.000000
   51      -39.907609    -39.907583   1.000000   1.000000
   52      -39.907402    -39.907376   1.000000   1.000000
   53      -39.873584    -39.873560   1.000000   1.000000
   54      -39.868354    -39.868330   1.000000   1.000000
   55      -39.855604    -39.855577   1.000000   1.000000
   56      -39.855506    -39.855479   1.000000   1.000000
   57      -12.875117    -12.875119   1.000000   1.000000
   58      -12.872752    -12.872754   1.000000   1.000000
   59      -12.747852    -12.747855   1.000000   1.000000
   60      -12.745698    -12.745703   1.000000   1.000000
   61      -12.739607    -12.739611   1.000000   1.000000
   62      -12.737743    -12.737748   1.000000   1.000000
   63      -12.727574    -12.727580   1.000000   1.000000
   64      -12.727040    -12.727044   1.000000   1.000000
   65       -9.702692     -9.702699   1.000000   1.000000
   66       -9.674427     -9.674432   1.000000   1.000000
   67       -9.670021     -9.670026   1.000000   1.000000
   68       -9.665875     -9.665881   1.000000   1.000000
   69       -9.584828     -9.584834   1.000000   1.000000
   70       -9.577434     -9.577440   1.000000   1.000000
   71       -9.562366     -9.562372   1.000000   1.000000
   72       -9.560036     -9.560042   1.000000   1.000000
   73       -9.503836     -9.503842   1.000000   1.000000
   74       -9.472079     -9.472085   1.000000   1.000000
   75       -9.434639     -9.434646   1.000000   1.000000
   76       -9.409089     -9.409097   1.000000   1.000000
   77       -9.403643     -9.403651   1.000000   1.000000
   78       -9.393801     -9.393809   1.000000   1.000000
   79       -9.331513     -9.331520   1.000000   1.000000
   80       -9.322862     -9.322869   1.000000   1.000000
   81       -9.298578     -9.298586   1.000000   1.000000
   82       -9.273496     -9.273505   1.000000   1.000000
   83       -9.261366     -9.261375   1.000000   1.000000
   84       -9.230277     -9.230287   1.000000   1.000000
   85       -9.229489     -9.229498   1.000000   1.000000
   86       -9.214804     -9.214812   1.000000   1.000000
   87       -9.200045     -9.200053   1.000000   1.000000
   88       -9.185980     -9.185989   1.000000   1.000000
   89       -2.937259     -2.937263   1.000000   1.000000
   90       -2.811981     -2.811986   1.000000   1.000000
   91       -2.703732     -2.703737   1.000000   1.000000
   92       -2.694883     -2.694889   1.000000   1.000000
   93       -2.638956     -2.638961   1.000000   1.000000
   94       -2.603312     -2.603318   1.000000   1.000000
   95       -2.586767     -2.586773   1.000000   1.000000
   96       -2.577350     -2.577355   1.000000   1.000000
   97       -1.163597     -1.163599   1.000000   1.000000
   98       -1.146338     -1.146341   1.000000   1.000000
   99       -1.116086     -1.116087   1.000000   1.000000
  100       -1.072565     -1.072566   1.000000   1.000000
  101       -1.041458     -1.041459   1.000000   1.000000
  102       -1.022668     -1.022668   1.000000   1.000000
  103       -0.965944     -0.965945   1.000000   1.000000
  104       -0.909642     -0.909645   1.000000   1.000000
  105       -0.856642     -0.856645   1.000000   1.000000
  106       -0.837769     -0.837772   1.000000   1.000000
  107       -0.797473     -0.797476   1.000000   1.000000
  108       -0.735275     -0.735278   1.000000   1.000000
  109       -0.711022     -0.711025   1.000000   1.000000
  110       -0.684195     -0.684198   1.000000   1.000000
  111       -0.634229     -0.634231   1.000000   1.000000
  112       -0.576004     -0.576006   1.000000   1.000000
  113       -0.528187     -0.528190   1.000000   1.000000
  114       -0.490135     -0.490138   1.000000   1.000000
  115       -0.477581     -0.477584   1.000000   1.000000
  116       -0.418653     -0.418655   1.000000   1.000000
  117       -0.387572     -0.387576   1.000000   1.000000
  118       -0.357265     -0.357268   1.000000   1.000000
  119       -0.273777     -0.273780   1.000000   1.000000
  120       -0.244789     -0.244793   1.000000   1.000000
  121        1.133336      1.133333   1.000000   1.000000
  122        1.163684      1.163682   1.000000   1.000000
  123        1.248361      1.248359   1.000000   1.000000
  124        1.272423      1.272422   1.000000   1.000000
  125        1.323825      1.323823   1.000000   1.000000
  126        1.335215      1.335213   1.000000   1.000000
  127        1.364131      1.364129   1.000000   1.000000
  128        1.378292      1.378290   1.000000   1.000000
  129        1.398241      1.398239   1.000000   1.000000
  130        1.412087      1.412085   1.000000   1.000000
  131        1.428001      1.428000   1.000000   1.000000
  132        1.468547      1.468545   1.000000   1.000000
  133        1.547914      1.547912   1.000000   1.000000
  134        1.558309      1.558308   1.000000   1.000000
  135        1.589362      1.589360   1.000000   1.000000
  136        1.688777      1.688775   1.000000   1.000000
  137        1.741561      1.741557   1.000000   1.000000
  138        1.773145      1.773142   1.000000   1.000000
  139        1.803464      1.803461   1.000000   1.000000
  140        1.870637      1.870633   1.000000   1.000000
  141        1.886408      1.886405   1.000000   1.000000
  142        1.927587      1.927584   1.000000   1.000000
  143        1.940703      1.940699   1.000000   1.000000
  144        1.955836      1.955833   1.000000   1.000000
  145        1.973069      1.973065   1.000000   1.000000
  146        2.009693      2.009688   1.000000   1.000000
  147        2.059521      2.059518   1.000000   1.000000
  148        2.068448      2.068444   1.000000   1.000000
  149        2.108468      2.108464   1.000000   1.000000
  150        2.212393      2.212389   1.000000   1.000000
  151        2.234917      2.234913   1.000000   1.000000
  152        2.257842      2.257838   1.000000   1.000000
  153        2.336982      2.336977   1.000000   1.000000
  154        2.348707      2.348704   1.000000   1.000000
  155        2.390386      2.390382   1.000000   1.000000
  156        2.488939      2.488935   1.000000   1.000000
  157        2.549702      2.549697   1.000000   1.000000
  158        2.590631      2.590626   1.000000   1.000000
  159        2.611159      2.611154   1.000000   1.000000
  160        2.637577      2.637571   1.000000   1.000000
  161        2.672557      2.672551   1.000000   1.000000
  162        2.712612      2.712606   1.000000   1.000000
  163        2.796533      2.796528   1.000000   1.000000
  164        2.820317      2.820313   1.000000   1.000000
  165        2.898204      2.898200   1.000000   1.000000
  166        2.920727      2.920723   1.000000   1.000000
  167        2.961451      2.961446   1.000000   1.000000
  168        2.992950      2.992946   1.000000   1.000000
  169        3.020830      3.020825   1.000000   1.000000
  170        3.138638      3.138633   1.000000   1.000000
  171        3.161381      3.161376   1.000000   1.000000
  172        3.207575      3.207570   1.000000   1.000000
  173        3.225875      3.225870   1.000000   1.000000
  174        3.246016      3.246010   1.000000   1.000000
  175        3.315042      3.315037   1.000000   1.000000
  176        3.359366      3.359361   1.000000   1.000000
  177        3.382339      3.382334   1.000000   1.000000
  178        3.419063      3.419059   1.000000   1.000000
  179        3.438111      3.438107   1.000000   1.000000
  180        3.471085      3.471079   1.000000   1.000000
  181        3.554854      3.554848   1.000000   1.000000
  182        3.575785      3.575779   1.000000   1.000000
  183        3.602275      3.602269   1.000000   1.000000
  184        3.633022      3.633017   1.000000   1.000000
  185        7.226320      7.226356   0.000000   0.000000
  186        7.403935      7.403964   0.000000   0.000000
  187        7.483911      7.483931   0.000000   0.000000
  188        7.642105      7.642118   0.000000   0.000000
  189        7.839608      7.839615   0.000000   0.000000
  190        8.200007      8.200015   0.000000   0.000000
  191        8.345401      8.345409   0.000000   0.000000
  192        8.356685      8.356692   0.000000   0.000000
  193        8.394881      8.394890   0.000000   0.000000
  194        8.417396      8.417406   0.000000   0.000000
  195        8.621978      8.621986   0.000000   0.000000
  196        8.663803      8.663811   0.000000   0.000000
  197        8.837476      8.837490   0.000000   0.000000
  198        8.914233      8.914240   0.000000   0.000000
  199        8.976366      8.976373   0.000000   0.000000
  200        9.036794      9.036800   0.000000   0.000000
  201        9.131723      9.131734   0.000000   0.000000
  202        9.231642      9.231650   0.000000   0.000000
  203        9.260309      9.260323   0.000000   0.000000
  204        9.330294      9.330301   0.000000   0.000000
  205        9.450308      9.450317   0.000000   0.000000
  206        9.496165      9.496203   0.000000   0.000000
  207        9.575302      9.575312   0.000000   0.000000
  208        9.668754      9.668762   0.000000   0.000000
  209        9.733830      9.733845   0.000000   0.000000
  210        9.772287      9.772298   0.000000   0.000000
  211        9.872518      9.872532   0.000000   0.000000
  212        9.911107      9.911109   0.000000   0.000000
  213       10.019103     10.019121   0.000000   0.000000
  214       10.157257     10.157281   0.000000   0.000000
  215       10.328339     10.328348   0.000000   0.000000
  216       10.415823     10.415837   0.000000   0.000000
  217       10.676227     10.676231   0.000000   0.000000
  218       10.820982     10.820977   0.000000   0.000000
  219       10.854290     10.854313   0.000000   0.000000
  220       11.016332     11.016334   0.000000   0.000000
  221       11.067464     11.067563   0.000000   0.000000
  222       11.085777     11.085623   0.000000   0.000000
  223       11.175530     11.175563   0.000000   0.000000
  224       11.332256     11.332287   0.000000   0.000000
  225       11.431438     11.431348   0.000000   0.000000
  226       11.478104     11.478220   0.000000   0.000000
  227       11.550224     11.550213   0.000000   0.000000
  228       11.634439     11.634297   0.000000   0.000000
  229       11.693791     11.693754   0.000000   0.000000
  230       11.739900     11.739813   0.000000   0.000000
  231       11.792324     11.792191   0.000000   0.000000
  232       11.845711     11.845688   0.000000   0.000000
  233       11.912596     11.913681   0.000000   0.000000
  234       11.950584     11.950586   0.000000   0.000000
  235       12.030550     12.030871   0.000000   0.000000
  236       12.070167     12.070444   0.000000   0.000000
  237       12.167751     12.168767   0.000000   0.000000
  238       12.199604     12.199145   0.000000   0.000000
  239       12.297391     12.298288   0.000000   0.000000
  240       12.343180     12.344293   0.000000   0.000000
  241       12.430163     12.430449   0.000000   0.000000
  242       12.492626     12.489068   0.000000   0.000000
  243       12.550241     12.549458   0.000000   0.000000
  244       12.638249     12.646228   0.000000   0.000000
  245       12.706987     12.701101   0.000000   0.000000
  246       12.817218     12.823025   0.000000   0.000000
  247       12.867196     12.873577   0.000000   0.000000