Automatically generated mesh
       8
Reciprocal lattice
    0.00000000000000    0.00000000000000    0.00000000000000             1
    0.33333333333334    0.00000000000000    0.00000000000000             4
    0.33333333333334    0.33333333333334    0.00000000000000             2
   -0.33333333333334    0.33333333333334    0.00000000000000             2
    0.00000000000000    0.00000000000000    0.33333333333334             2
    0.33333333333334    0.00000000000000    0.33333333333334             8
    0.33333333333334    0.33333333333334    0.33333333333334             4
   -0.33333333333334    0.33333333333334    0.33333333333334             4
Tetrahedra
        37    0.00617283950617
         8         2         2         3         6
         4         1         2         2         6
         4         1         2         5         6
         4         2         3         6         7
         8         2         6         6         7
         4         2         5         6         6
         4         2         3         4         7
         4         2         2         3         7
         4         2         2         6         7
         4         2         4         7         8
         4         2         6         7         8
         4         1         2         4         8
         4         1         2         6         8
         4         1         5         6         8
         4         2         3         4         6
         4         2         3         6         6
         4         3         4         6         8
         4         3         6         7         8
         4         3         6         6         7
         4         3         4         4         8
         4         3         4         7         8
         4         4         7         8         8
         4         1         2         4         5
         4         2         4         5         6
         4         4         5         6         8
        12         6         6         6         7
         4         5         6         6         6
         2         5         5         6         6
         6         6         6         7         7
         4         6         7         7         8
         4         6         7         8         8
         4         6         6         7         8
         4         5         6         8         8
         4         5         6         6         8
         4         5         5         6         8
         4         7         8         8         8
         2         7         7         8         8
