       N       E                     dE             d eps       ncg     rms          rms(c)
DAV:   1     0.348671497722E+04    0.34867E+04   -0.15367E+05  8448   0.156E+03
DAV:   2     0.373680948781E+02   -0.34493E+04   -0.31057E+04  9016   0.436E+02
DAV:   3    -0.446838473921E+03   -0.48421E+03   -0.47755E+03 11432   0.146E+02
DAV:   4    -0.517527497128E+03   -0.70689E+02   -0.69936E+02 15112   0.476E+01
DAV:   5    -0.524537173849E+03   -0.70097E+01   -0.70045E+01 13592   0.125E+01    0.744E+01
RMM:   6    -0.466894961523E+03    0.57642E+02   -0.20999E+02 10094   0.209E+01    0.325E+01
RMM:   7    -0.480169159221E+03   -0.13274E+02   -0.47063E+01 13503   0.121E+01    0.175E+01
RMM:   8    -0.482754936682E+03   -0.25858E+01   -0.11747E+01 15136   0.569E+00    0.914E+00
RMM:   9    -0.483520796881E+03   -0.76586E+00   -0.51914E+00 13774   0.432E+00    0.294E+00
RMM:  10    -0.483621168521E+03   -0.10037E+00   -0.22655E+00 15147   0.283E+00    0.159E+00
RMM:  11    -0.483720311851E+03   -0.99143E-01   -0.13600E+00 15680   0.163E+00    0.128E+00
RMM:  12    -0.483793430485E+03   -0.73119E-01   -0.64424E-01 15994   0.107E+00    0.104E+00
RMM:  13    -0.483825192077E+03   -0.31762E-01   -0.27175E-01 15550   0.733E-01    0.463E-01
RMM:  14    -0.483838738505E+03   -0.13546E-01   -0.12170E-01 15959   0.525E-01    0.106E-01
RMM:  15    -0.483846111946E+03   -0.73734E-02   -0.68913E-02 16000   0.362E-01    0.893E-02
RMM:  16    -0.483849731529E+03   -0.36196E-02   -0.33213E-02 16000   0.256E-01    0.778E-02
RMM:  17    -0.483851530284E+03   -0.17988E-02   -0.18202E-02 15008   0.186E-01    0.321E-02
RMM:  18    -0.483852601145E+03   -0.10709E-02   -0.10748E-02 14251   0.140E-01    0.161E-02
RMM:  19    -0.483853252157E+03   -0.65101E-03   -0.59324E-03 14208   0.106E-01    0.256E-02
RMM:  20    -0.483853614188E+03   -0.36203E-03   -0.35577E-03 14205   0.798E-02    0.220E-02
RMM:  21    -0.483853841626E+03   -0.22744E-03   -0.22616E-03 14057   0.617E-02    0.205E-02
RMM:  22    -0.483853977441E+03   -0.13582E-03   -0.14067E-03 13401   0.480E-02    0.144E-02
RMM:  23    -0.483854062504E+03   -0.85063E-04   -0.92995E-04 12834   0.387E-02    0.657E-03
RMM:  24    -0.483854112466E+03   -0.49962E-04   -0.61647E-04 12867   0.317E-02    0.579E-03
RMM:  25    -0.483854159420E+03   -0.46954E-04   -0.40857E-04 11247   0.257E-02    0.214E-03
RMM:  26    -0.483854187332E+03   -0.27913E-04   -0.28530E-04 11003   0.222E-02    0.170E-03
RMM:  27    -0.483854206315E+03   -0.18983E-04   -0.20234E-04 10903   0.196E-02    0.132E-03
RMM:  28    -0.483854219543E+03   -0.13228E-04   -0.13572E-04 10075   0.173E-02    0.169E-03
RMM:  29    -0.483854228699E+03   -0.91554E-05   -0.10267E-04 10110   0.160E-02    0.182E-03
RMM:  30    -0.483854234637E+03   -0.59388E-05   -0.77877E-05  9848   0.150E-02
   1 F= -.48385423E+03 E0= -.48385423E+03  d E =0.000000E+00  mag=    -0.0000
