    9    9    1    2
  0.1099891E+02  0.4993312E-09  0.5073772E-09  0.5073772E-09  0.5000000E-15
  1.000000000000000E-004
  CAR 
 unknown system                          
     51    116     40
 
  0.0000000E+00  0.0000000E+00  0.0000000E+00  0.2551020E-02
    1      -43.996386    -43.996122   1.000000   1.000000
    2      -26.147250    -26.146544   1.000000   1.000000
    3      -25.053751    -25.050948   1.000000   1.000000
    4      -25.042308    -25.046164   1.000000   1.000000
    5      -24.432105    -24.427306   1.000000   1.000000
    6      -14.261051    -14.260795   1.000000   1.000000
    7      -13.541475    -13.546958   1.000000   1.000000
    8      -13.493524    -13.483026   1.000000   1.000000
    9      -12.562573    -12.561699   1.000000   1.000000
   10       -8.222758     -8.222632   1.000000   1.000000
   11       -7.809468     -7.808112   1.000000   1.000000
   12       -7.670183     -7.669989   1.000000   1.000000
   13       -7.205593     -7.205732   1.000000   1.000000
   14       -6.573236     -6.569933   1.000000   1.000000
   15       -6.116231     -6.112407   1.000000   1.000000
   16       -5.980637     -5.978801   1.000000   1.000000
   17       -5.970942     -5.972722   1.000000   1.000000
   18       -4.107427     -4.100798   1.000000   1.000000
   19       -4.089407     -4.090483   1.000000   1.000000
   20       -3.944982     -3.942789   1.000000   1.000000
   21       -3.796026     -3.795923   1.000000   1.000000
   22       -1.342280     -1.342205   1.000000   1.000000
   23       -1.222548     -1.219759   1.000000   1.000000
   24       -0.597732     -0.598222   1.000000   1.000000
   25        0.189490      0.194224   1.000000   1.000000
   26        1.861991      1.870007   0.000000   0.000000
   27        1.942262      1.944904   0.000000   0.000000
   28        1.987834      1.986894   0.000000   0.000000
   29        2.261276      2.260634   0.000000   0.000000
   30        8.134063      8.131380   0.000000   0.000000
   31        8.313036      8.318237   0.000000   0.000000
   32        9.270975      9.272169   0.000000   0.000000
   33       10.032758     10.030206   0.000000   0.000000
   34       10.326952     10.329982   0.000000   0.000000
   35       12.205517     12.205824   0.000000   0.000000
   36       12.781476     12.781473   0.000000   0.000000
   37       13.162066     13.163943   0.000000   0.000000
   38       13.414790     13.415359   0.000000   0.000000
   39       13.787992     13.790283   0.000000   0.000000
   40       14.349509     14.355043   0.000000   0.000000
 
  0.1250000E+00  0.2942998E-18 -0.1007880E-14  0.5102041E-02
    1      -43.996350    -43.996085   1.000000   1.000000
    2      -26.144494    -26.143786   1.000000   1.000000
    3      -25.054549    -25.051732   1.000000   1.000000
    4      -25.044863    -25.048719   1.000000   1.000000
    5      -24.432122    -24.427339   1.000000   1.000000
    6      -14.328653    -14.328296   1.000000   1.000000
    7      -13.502546    -13.508050   1.000000   1.000000
    8      -13.462640    -13.452271   1.000000   1.000000
    9      -12.562999    -12.562069   1.000000   1.000000
   10       -8.197971     -8.197881   1.000000   1.000000
   11       -7.830146     -7.828785   1.000000   1.000000
   12       -7.558968     -7.558804   1.000000   1.000000
   13       -7.206323     -7.206381   1.000000   1.000000
   14       -6.598646     -6.595812   1.000000   1.000000
   15       -6.244080     -6.240394   1.000000   1.000000
   16       -6.009752     -6.011017   1.000000   1.000000
   17       -5.906163     -5.904256   1.000000   1.000000
   18       -4.107507     -4.100934   1.000000   1.000000
   19       -4.087134     -4.088210   1.000000   1.000000
   20       -3.940975     -3.938757   1.000000   1.000000
   21       -3.793041     -3.792925   1.000000   1.000000
   22       -1.337377     -1.337292   1.000000   1.000000
   23       -1.190281     -1.187565   1.000000   1.000000
   24       -0.602943     -0.603370   1.000000   1.000000
   25        0.145879      0.150541   1.000000   1.000000
   26        1.858768      1.866939   0.000000   0.000000
   27        1.928557      1.930602   0.000000   0.000000
   28        1.994831      1.994387   0.000000   0.000000
   29        2.256957      2.256356   0.000000   0.000000
   30        8.391903      8.389210   0.000000   0.000000
   31        8.410457      8.415440   0.000000   0.000000
   32        8.696517      8.697262   0.000000   0.000000
   33       10.114252     10.112790   0.000000   0.000000
   34       10.402194     10.404812   0.000000   0.000000
   35       12.116218     12.116162   0.000000   0.000000
   36       12.692037     12.692702   0.000000   0.000000
   37       12.751206     12.753073   0.000000   0.000000
   38       13.537790     13.538432   0.000000   0.000000
   39       13.969850     13.970416   0.000000   0.000000
   40       14.486784     14.556430   0.000000   0.000000
 
  0.2500000E+00  0.5885997E-18 -0.2015760E-14  0.5102041E-02
    1      -43.996278    -43.996013   1.000000   1.000000
    2      -26.137839    -26.137125   1.000000   1.000000
    3      -25.056533    -25.055018   1.000000   1.000000
    4      -25.051161    -25.053687   1.000000   1.000000
    5      -24.432526    -24.427779   1.000000   1.000000
    6      -14.483617    -14.483107   1.000000   1.000000
    7      -13.406093    -13.411653   1.000000   1.000000
    8      -13.381144    -13.370917   1.000000   1.000000
    9      -12.571758    -12.570768   1.000000   1.000000
   10       -8.171429     -8.171385   1.000000   1.000000
   11       -7.873200     -7.871836   1.000000   1.000000
   12       -7.324065     -7.324336   1.000000   1.000000
   13       -7.124517     -7.124080   1.000000   1.000000
   14       -6.691126     -6.689572   1.000000   1.000000
   15       -6.430954     -6.427023   1.000000   1.000000
   16       -6.085745     -6.085598   1.000000   1.000000
   17       -5.870233     -5.868718   1.000000   1.000000
   18       -4.107216     -4.100768   1.000000   1.000000
   19       -4.080095     -4.081183   1.000000   1.000000
   20       -3.931798     -3.929505   1.000000   1.000000
   21       -3.786169     -3.786023   1.000000   1.000000
   22       -1.316060     -1.315938   1.000000   1.000000
   23       -1.095501     -1.093012   1.000000   1.000000
   24       -0.612014     -0.612284   1.000000   1.000000
   25        0.042364      0.046920   1.000000   1.000000
   26        1.852692      1.861261   0.000000   0.000000
   27        1.909454      1.911216   0.000000   0.000000
   28        1.997839      1.997411   0.000000   0.000000
   29        2.245061      2.244511   0.000000   0.000000
   30        7.509206      7.510315   0.000000   0.000000
   31        8.904352      8.908200   0.000000   0.000000
   32        9.023748      9.021049   0.000000   0.000000
   33       10.089288     10.089733   0.000000   0.000000
   34       10.501396     10.502787   0.000000   0.000000
   35       12.151781     12.153259   0.000000   0.000000
   36       12.153726     12.153643   0.000000   0.000000
   37       12.637463     12.638117   0.000000   0.000000
   38       13.239357     13.240836   0.000000   0.000000
   39       14.295809     14.299695   0.000000   0.000000
   40       14.313281     14.336892   0.000000   0.000000
 
  0.3750000E+00 -0.6365682E-17 -0.2989622E-14  0.5102041E-02
    1      -43.996209    -43.995945   1.000000   1.000000
    2      -26.131181    -26.130460   1.000000   1.000000
    3      -25.058279    -25.061268   1.000000   1.000000
    4      -25.057411    -25.055402   1.000000   1.000000
    5      -24.432860    -24.428150   1.000000   1.000000
    6      -14.628624    -14.628029   1.000000   1.000000
    7      -13.305701    -13.311321   1.000000   1.000000
    8      -13.286083    -13.275732   1.000000   1.000000
    9      -12.595073    -12.594217   1.000000   1.000000
   10       -8.159489     -8.159472   1.000000   1.000000
   11       -7.903958     -7.902606   1.000000   1.000000
   12       -7.262782     -7.263077   1.000000   1.000000
   13       -6.834700     -6.834270   1.000000   1.000000
   14       -6.825368     -6.825059   1.000000   1.000000
   15       -6.586818     -6.582506   1.000000   1.000000
   16       -6.130541     -6.129117   1.000000   1.000000
   17       -5.897047     -5.895875   1.000000   1.000000
   18       -4.106288     -4.099952   1.000000   1.000000
   19       -4.071175     -4.072295   1.000000   1.000000
   20       -3.923160     -3.920773   1.000000   1.000000
   21       -3.779743     -3.779571   1.000000   1.000000
   22       -1.282998     -1.282829   1.000000   1.000000
   23       -0.980355     -0.978193   1.000000   1.000000
   24       -0.616718     -0.616823   1.000000   1.000000
   25       -0.058203     -0.053643   1.000000   1.000000
   26        1.849372      1.858408   0.000000   0.000000
   27        1.899627      1.901486   0.000000   0.000000
   28        1.991657      1.990838   0.000000   0.000000
   29        2.230925      2.230352   0.000000   0.000000
   30        6.637077      6.637945   0.000000   0.000000
   31        9.354107      9.357123   0.000000   0.000000
   32        9.605511      9.603049   0.000000   0.000000
   33        9.980552      9.981903   0.000000   0.000000
   34       10.557202     10.558795   0.000000   0.000000
   35       11.993478     11.994360   0.000000   0.000000
   36       12.062180     12.062822   0.000000   0.000000
   37       12.801315     12.802713   0.000000   0.000000
   38       13.033046     13.034116   0.000000   0.000000
   39       13.709636     13.709646   0.000000   0.000000
   40       14.280225     14.257247   0.000000   0.000000
 
  0.5000000E+00  0.1177199E-17 -0.4031519E-14  0.2551020E-02
    1      -43.996216    -43.995951   1.000000   1.000000
    2      -26.128548    -26.127824   1.000000   1.000000
    3      -25.059970    -25.063827   1.000000   1.000000
    4      -25.058913    -25.056024   1.000000   1.000000
    5      -24.432973    -24.428278   1.000000   1.000000
    6      -14.686245    -14.685626   1.000000   1.000000
    7      -13.262819    -13.268467   1.000000   1.000000
    8      -13.240829    -13.230299   1.000000   1.000000
    9      -12.611010    -12.610325   1.000000   1.000000
   10       -8.154285     -8.154281   1.000000   1.000000
   11       -7.911801     -7.910458   1.000000   1.000000
   12       -7.249490     -7.249750   1.000000   1.000000
   13       -6.909412     -6.909322   1.000000   1.000000
   14       -6.692457     -6.692453   1.000000   1.000000
   15       -6.636057     -6.631394   1.000000   1.000000
   16       -6.140651     -6.138817   1.000000   1.000000
   17       -5.919934     -5.918892   1.000000   1.000000
   18       -4.105741     -4.099448   1.000000   1.000000
   19       -4.067051     -4.068190   1.000000   1.000000
   20       -3.919710     -3.917278   1.000000   1.000000
   21       -3.777213     -3.777032   1.000000   1.000000
   22       -1.266131     -1.265941   1.000000   1.000000
   23       -0.927729     -0.925743   1.000000   1.000000
   24       -0.617919     -0.617951   1.000000   1.000000
   25       -0.098712     -0.094110   1.000000   1.000000
   26        1.848870      1.858132   0.000000   0.000000
   27        1.897560      1.899550   0.000000   0.000000
   28        1.987136      1.986055   0.000000   0.000000
   29        2.224304      2.223694   0.000000   0.000000
   30        6.307490      6.308304   0.000000   0.000000
   31        9.566880      9.569141   0.000000   0.000000
   32        9.774338      9.772209   0.000000   0.000000
   33        9.982613      9.984014   0.000000   0.000000
   34       10.471369     10.473867   0.000000   0.000000
   35       12.049600     12.050232   0.000000   0.000000
   36       12.277676     12.277811   0.000000   0.000000
   37       12.687696     12.688558   0.000000   0.000000
   38       13.179304     13.179620   0.000000   0.000000
   39       13.250042     13.251076   0.000000   0.000000
   40       14.088146     14.072102   0.000000   0.000000
 
  0.1496912E-17  0.1428571E+00 -0.3722487E-15  0.1020408E-01
    1      -43.996354    -43.996090   1.000000   1.000000
    2      -26.133668    -26.132939   1.000000   1.000000
    3      -25.092813    -25.093837   1.000000   1.000000
    4      -25.011346    -25.011381   1.000000   1.000000
    5      -24.442606    -24.437825   1.000000   1.000000
    6      -14.253561    -14.253377   1.000000   1.000000
    7      -13.562493    -13.564469   1.000000   1.000000
    8      -13.478197    -13.471082   1.000000   1.000000
    9      -12.575161    -12.574345   1.000000   1.000000
   10       -8.180300     -8.180146   1.000000   1.000000
   11       -7.781347     -7.780155   1.000000   1.000000
   12       -7.595657     -7.595451   1.000000   1.000000
   13       -7.143065     -7.143139   1.000000   1.000000
   14       -6.603837     -6.600576   1.000000   1.000000
   15       -6.154311     -6.151287   1.000000   1.000000
   16       -5.991394     -5.992281   1.000000   1.000000
   17       -5.956818     -5.955133   1.000000   1.000000
   18       -4.236373     -4.231172   1.000000   1.000000
   19       -4.128874     -4.128160   1.000000   1.000000
   20       -3.969840     -3.968285   1.000000   1.000000
   21       -3.820265     -3.819751   1.000000   1.000000
   22       -1.302011     -1.301553   1.000000   1.000000
   23       -1.131670     -1.129474   1.000000   1.000000
   24       -0.530820     -0.531231   1.000000   1.000000
   25        0.140342      0.144818   1.000000   1.000000
   26        1.741721      1.748915   0.000000   0.000000
   27        1.900892      1.903684   0.000000   0.000000
   28        1.991665      1.991640   0.000000   0.000000
   29        2.225358      2.224912   0.000000   0.000000
   30        8.186986      8.184423   0.000000   0.000000
   31        8.295999      8.301176   0.000000   0.000000
   32        9.271238      9.272106   0.000000   0.000000
   33        9.978388      9.976626   0.000000   0.000000
   34       10.414619     10.417058   0.000000   0.000000
   35       12.259121     12.259246   0.000000   0.000000
   36       12.849275     12.849898   0.000000   0.000000
   37       12.941474     12.943168   0.000000   0.000000
   38       13.479628     13.479759   0.000000   0.000000
   39       13.864728     13.865185   0.000000   0.000000
   40       14.447358     14.454423   0.000000   0.000000
 
  0.1250000E+00  0.1428571E+00 -0.1379288E-14  0.1020408E-01
    1      -43.996348    -43.996083   1.000000   1.000000
    2      -26.133151    -26.132422   1.000000   1.000000
    3      -25.092594    -25.093568   1.000000   1.000000
    4      -25.011942    -25.012020   1.000000   1.000000
    5      -24.443108    -24.438333   1.000000   1.000000
    6      -14.265802    -14.265524   1.000000   1.000000
    7      -13.577874    -13.579965   1.000000   1.000000
    8      -13.455848    -13.448680   1.000000   1.000000
    9      -12.568642    -12.567845   1.000000   1.000000
   10       -8.172533     -8.172403   1.000000   1.000000
   11       -7.775642     -7.774465   1.000000   1.000000
   12       -7.580887     -7.580632   1.000000   1.000000
   13       -7.166215     -7.166286   1.000000   1.000000
   14       -6.601006     -6.597661   1.000000   1.000000
   15       -6.173536     -6.170513   1.000000   1.000000
   16       -5.992322     -5.993581   1.000000   1.000000
   17       -5.942308     -5.940382   1.000000   1.000000
   18       -4.245538     -4.240432   1.000000   1.000000
   19       -4.118356     -4.117672   1.000000   1.000000
   20       -3.969644     -3.967885   1.000000   1.000000
   21       -3.822686     -3.822219   1.000000   1.000000
   22       -1.286860     -1.286388   1.000000   1.000000
   23       -1.123424     -1.121222   1.000000   1.000000
   24       -0.541179     -0.541526   1.000000   1.000000
   25        0.130942      0.135549   1.000000   1.000000
   26        1.753316      1.760348   0.000000   0.000000
   27        1.875607      1.878041   0.000000   0.000000
   28        1.999396      1.999485   0.000000   0.000000
   29        2.226293      2.225940   0.000000   0.000000
   30        8.072619      8.071627   0.000000   0.000000
   31        8.426374      8.430069   0.000000   0.000000
   32        9.079495      9.080167   0.000000   0.000000
   33       10.144512     10.142941   0.000000   0.000000
   34       10.423061     10.425594   0.000000   0.000000
   35       12.255101     12.255094   0.000000   0.000000
   36       12.765489     12.766126   0.000000   0.000000
   37       13.049148     13.051056   0.000000   0.000000
   38       13.549517     13.551729   0.000000   0.000000
   39       13.751669     13.756494   0.000000   0.000000
   40       14.368282     14.366139   0.000000   0.000000
 
  0.2500000E+00  0.1428571E+00 -0.2368818E-14  0.1020408E-01
    1      -43.996287    -43.996022   1.000000   1.000000
    2      -26.128063    -26.127330   1.000000   1.000000
    3      -25.094703    -25.095774   1.000000   1.000000
    4      -25.015815    -25.015770   1.000000   1.000000
    5      -24.443630    -24.438886   1.000000   1.000000
    6      -14.387757    -14.387284   1.000000   1.000000
    7      -13.529333    -13.530914   1.000000   1.000000
    8      -13.374151    -13.367683   1.000000   1.000000
    9      -12.571207    -12.570392   1.000000   1.000000
   10       -8.133966     -8.133884   1.000000   1.000000
   11       -7.798854     -7.797672   1.000000   1.000000
   12       -7.381121     -7.381029   1.000000   1.000000
   13       -7.166294     -7.166079   1.000000   1.000000
   14       -6.648349     -6.645792   1.000000   1.000000
   15       -6.331297     -6.327889   1.000000   1.000000
   16       -6.062268     -6.063066   1.000000   1.000000
   17       -5.891222     -5.889463   1.000000   1.000000
   18       -4.251660     -4.246637   1.000000   1.000000
   19       -4.105393     -4.104757   1.000000   1.000000
   20       -3.963323     -3.961422   1.000000   1.000000
   21       -3.819199     -3.818748   1.000000   1.000000
   22       -1.252735     -1.252418   1.000000   1.000000
   23       -1.065725     -1.063519   1.000000   1.000000
   24       -0.555903     -0.556071   1.000000   1.000000
   25        0.050150      0.054771   1.000000   1.000000
   26        1.753930      1.760832   0.000000   0.000000
   27        1.848864      1.851215   0.000000   0.000000
   28        2.002179      2.002297   0.000000   0.000000
   29        2.219514      2.219275   0.000000   0.000000
   30        8.012986      8.014226   0.000000   0.000000
   31        8.380373      8.380424   0.000000   0.000000
   32        8.935804      8.937439   0.000000   0.000000
   33       10.294240     10.293382   0.000000   0.000000
   34       10.493685     10.496034   0.000000   0.000000
   35       12.162195     12.162075   0.000000   0.000000
   36       12.472739     12.474149   0.000000   0.000000
   37       12.700371     12.701230   0.000000   0.000000
   38       13.448503     13.448768   0.000000   0.000000
   39       14.151213     14.151768   0.000000   0.000000
   40       14.372885     14.384817   0.000000   0.000000
 
  0.3750000E+00  0.1428571E+00 -0.3366181E-14  0.1020408E-01
    1      -43.996233    -43.995968   1.000000   1.000000
    2      -26.121488    -26.120748   1.000000   1.000000
    3      -25.098035    -25.099299   1.000000   1.000000
    4      -25.020766    -25.020496   1.000000   1.000000
    5      -24.443991    -24.439286   1.000000   1.000000
    6      -14.541760    -14.541182   1.000000   1.000000
    7      -13.432464    -13.433763   1.000000   1.000000
    8      -13.275867    -13.269645   1.000000   1.000000
    9      -12.592718    -12.592030   1.000000   1.000000
   10       -8.116336     -8.116271   1.000000   1.000000
   11       -7.834886     -7.833715   1.000000   1.000000
   12       -7.261382     -7.261549   1.000000   1.000000
   13       -6.929689     -6.929150   1.000000   1.000000
   14       -6.763531     -6.762309   1.000000   1.000000
   15       -6.497707     -6.494056   1.000000   1.000000
   16       -6.139801     -6.139022   1.000000   1.000000
   17       -5.896899     -5.895663   1.000000   1.000000
   18       -4.250408     -4.245411   1.000000   1.000000
   19       -4.096842     -4.096234   1.000000   1.000000
   20       -3.954490     -3.952595   1.000000   1.000000
   21       -3.812288     -3.811805   1.000000   1.000000
   22       -1.212632     -1.212388   1.000000   1.000000
   23       -0.967899     -0.965942   1.000000   1.000000
   24       -0.560601     -0.560578   1.000000   1.000000
   25       -0.052838     -0.048203   1.000000   1.000000
   26        1.745228      1.752125   0.000000   0.000000
   27        1.836533      1.839070   0.000000   0.000000
   28        1.997202      1.997285   0.000000   0.000000
   29        2.206581      2.206353   0.000000   0.000000
   30        7.023626      7.024533   0.000000   0.000000
   31        8.913296      8.913998   0.000000   0.000000
   32        9.513899      9.514596   0.000000   0.000000
   33       10.197893     10.198953   0.000000   0.000000
   34       10.545525     10.546623   0.000000   0.000000
   35       11.969969     11.970740   0.000000   0.000000
   36       12.183150     12.184157   0.000000   0.000000
   37       12.879397     12.880209   0.000000   0.000000
   38       13.249484     13.249139   0.000000   0.000000
   39       13.884462     13.882469   0.000000   0.000000
   40       14.324739     14.306716   0.000000   0.000000
 
  0.5000000E+00  0.1428571E+00 -0.4390839E-14  0.1020408E-01
    1      -43.996208    -43.995943   1.000000   1.000000
    2      -26.117157    -26.116410   1.000000   1.000000
    3      -25.100598    -25.102043   1.000000   1.000000
    4      -25.023691    -25.023223   1.000000   1.000000
    5      -24.443807    -24.439126   1.000000   1.000000
    6      -14.639398    -14.638795   1.000000   1.000000
    7      -13.341334    -13.342716   1.000000   1.000000
    8      -13.222768    -13.216289   1.000000   1.000000
    9      -12.616928    -12.616440   1.000000   1.000000
   10       -8.110002     -8.109956   1.000000   1.000000
   11       -7.866177     -7.864995   1.000000   1.000000
   12       -7.219218     -7.219355   1.000000   1.000000
   13       -6.883243     -6.882855   1.000000   1.000000
   14       -6.687876     -6.687881   1.000000   1.000000
   15       -6.612491     -6.608169   1.000000   1.000000
   16       -6.172573     -6.170829   1.000000   1.000000
   17       -5.912025     -5.911042   1.000000   1.000000
   18       -4.242767     -4.237733   1.000000   1.000000
   19       -4.097591     -4.096984   1.000000   1.000000
   20       -3.949052     -3.947283   1.000000   1.000000
   21       -3.806057     -3.805516   1.000000   1.000000
   22       -1.191687     -1.191447   1.000000   1.000000
   23       -0.894216     -0.892580   1.000000   1.000000
   24       -0.552857     -0.552703   1.000000   1.000000
   25       -0.116835     -0.112192   1.000000   1.000000
   26        1.733455      1.740606   0.000000   0.000000
   27        1.844507      1.847197   0.000000   0.000000
   28        1.988751      1.988799   0.000000   0.000000
   29        2.194710      2.194374   0.000000   0.000000
   30        6.450396      6.451230   0.000000   0.000000
   31        9.443070      9.443807   0.000000   0.000000
   32        9.735734      9.736329   0.000000   0.000000
   33       10.089573     10.090106   0.000000   0.000000
   34       10.491074     10.493251   0.000000   0.000000
   35       12.051877     12.052631   0.000000   0.000000
   36       12.224998     12.225391   0.000000   0.000000
   37       12.842809     12.843397   0.000000   0.000000
   38       13.109073     13.109536   0.000000   0.000000
   39       13.541145     13.540877   0.000000   0.000000
   40       14.234595     14.202048   0.000000   0.000000
 
 -0.3750000E+00  0.1428571E+00 -0.1626215E-14  0.1020408E-01
    1      -43.996209    -43.995944   1.000000   1.000000
    2      -26.117675    -26.116928   1.000000   1.000000
    3      -25.101007    -25.102491   1.000000   1.000000
    4      -25.023046    -25.022544   1.000000   1.000000
    5      -24.443186    -24.438501   1.000000   1.000000
    6      -14.630462    -14.629889   1.000000   1.000000
    7      -13.327613    -13.327978   1.000000   1.000000
    8      -13.248222    -13.242918   1.000000   1.000000
    9      -12.614015    -12.613352   1.000000   1.000000
   10       -8.115606     -8.115558   1.000000   1.000000
   11       -7.884248     -7.883043   1.000000   1.000000
   12       -7.193207     -7.193428   1.000000   1.000000
   13       -6.882310     -6.881988   1.000000   1.000000
   14       -6.710902     -6.710800   1.000000   1.000000
   15       -6.614414     -6.610125   1.000000   1.000000
   16       -6.170397     -6.168626   1.000000   1.000000
   17       -5.893823     -5.892784   1.000000   1.000000
   18       -4.233900     -4.228779   1.000000   1.000000
   19       -4.107754     -4.107139   1.000000   1.000000
   20       -3.950341     -3.948740   1.000000   1.000000
   21       -3.803723     -3.803139   1.000000   1.000000
   22       -1.209937     -1.209713   1.000000   1.000000
   23       -0.905365     -0.903706   1.000000   1.000000
   24       -0.542370     -0.542242   1.000000   1.000000
   25       -0.107580     -0.103089   1.000000   1.000000
   26        1.723626      1.731020   0.000000   0.000000
   27        1.867495      1.870334   0.000000   0.000000
   28        1.983080      1.983085   0.000000   0.000000
   29        2.193460      2.193028   0.000000   0.000000
   30        6.497595      6.498450   0.000000   0.000000
   31        9.376448      9.378844   0.000000   0.000000
   32        9.812103      9.810830   0.000000   0.000000
   33       10.063492     10.063764   0.000000   0.000000
   34       10.612868     10.615268   0.000000   0.000000
   35       11.770421     11.770953   0.000000   0.000000
   36       12.212728     12.213369   0.000000   0.000000
   37       12.812398     12.813292   0.000000   0.000000
   38       13.119732     13.121014   0.000000   0.000000
   39       13.650162     13.652703   0.000000   0.000000
   40       14.347034     14.344092   0.000000   0.000000
 
 -0.2500000E+00  0.1428571E+00 -0.2633200E-14  0.1020408E-01
    1      -43.996245    -43.995980   1.000000   1.000000
    2      -26.122654    -26.121912   1.000000   1.000000
    3      -25.098773    -25.100148   1.000000   1.000000
    4      -25.019372    -25.019004   1.000000   1.000000
    5      -24.442567    -24.437851   1.000000   1.000000
    6      -14.518492    -14.518007   1.000000   1.000000
    7      -13.403941    -13.402612   1.000000   1.000000
    8      -13.326516    -13.323095   1.000000   1.000000
    9      -12.594811    -12.593892   1.000000   1.000000
   10       -8.128073     -8.127991   1.000000   1.000000
   11       -7.869154     -7.867932   1.000000   1.000000
   12       -7.210614     -7.210988   1.000000   1.000000
   13       -6.966603     -6.966061   1.000000   1.000000
   14       -6.769049     -6.768017   1.000000   1.000000
   15       -6.503063     -6.499190   1.000000   1.000000
   16       -6.135985     -6.135115   1.000000   1.000000
   17       -5.860046     -5.858712   1.000000   1.000000
   18       -4.228949     -4.223736   1.000000   1.000000
   19       -4.121813     -4.121168   1.000000   1.000000
   20       -3.956645     -3.955180   1.000000   1.000000
   21       -3.806636     -3.806046   1.000000   1.000000
   22       -1.254305     -1.254085   1.000000   1.000000
   23       -0.993354     -0.991385   1.000000   1.000000
   24       -0.535895     -0.535967   1.000000   1.000000
   25       -0.030189     -0.025889   1.000000   1.000000
   26        1.720265      1.727692   0.000000   0.000000
   27        1.893128      1.896191   0.000000   0.000000
   28        1.982042      1.981943   0.000000   0.000000
   29        2.204034      2.203578   0.000000   0.000000
   30        7.155607      7.156639   0.000000   0.000000
   31        8.903528      8.906048   0.000000   0.000000
   32        9.565298      9.563189   0.000000   0.000000
   33       10.200671     10.201335   0.000000   0.000000
   34       10.503448     10.505166   0.000000   0.000000
   35       11.648963     11.650337   0.000000   0.000000
   36       12.315538     12.315780   0.000000   0.000000
   37       12.730963     12.731894   0.000000   0.000000
   38       13.174152     13.175468   0.000000   0.000000
   39       14.215168     14.225349   0.000000   0.000000
   40       14.548448     14.551987   0.000000   0.000000
 
 -0.1250000E+00  0.1428571E+00  0.3825498E-14  0.1020408E-01
    1      -43.996306    -43.996041   1.000000   1.000000
    2      -26.129285    -26.128550   1.000000   1.000000
    3      -25.095374    -25.096561   1.000000   1.000000
    4      -25.014474    -25.014326   1.000000   1.000000
    5      -24.442330    -24.437574   1.000000   1.000000
    6      -14.361461    -14.361138   1.000000   1.000000
    7      -13.497001    -13.496931   1.000000   1.000000
    8      -13.424299    -13.419466   1.000000   1.000000
    9      -12.582260    -12.581347   1.000000   1.000000
   10       -8.146795     -8.146676   1.000000   1.000000
   11       -7.821933     -7.820710   1.000000   1.000000
   12       -7.405929     -7.405882   1.000000   1.000000
   13       -7.124240     -7.124124   1.000000   1.000000
   14       -6.656326     -6.654003   1.000000   1.000000
   15       -6.324799     -6.321212   1.000000   1.000000
   16       -6.062314     -6.062908   1.000000   1.000000
   17       -5.874333     -5.872571   1.000000   1.000000
   18       -4.229894     -4.224649   1.000000   1.000000
   19       -4.130706     -4.130010   1.000000   1.000000