Automatically generated mesh
     116
Reciprocal lattice
    0.00000000000000    0.00000000000000    0.00000000000000             1
    0.12500000000000    0.00000000000000   -0.00000000000000             2
    0.25000000000000    0.00000000000000   -0.00000000000000             2
    0.37500000000000   -0.00000000000000   -0.00000000000000             2
    0.50000000000000    0.00000000000000   -0.00000000000000             1
    0.00000000000000    0.14285714285715   -0.00000000000000             4
    0.12500000000000    0.14285714285715   -0.00000000000000             4
    0.25000000000000    0.14285714285715   -0.00000000000000             4
    0.37500000000000    0.14285714285715   -0.00000000000000             4
    0.50000000000000    0.14285714285715   -0.00000000000000             4
   -0.37500000000000    0.14285714285715   -0.00000000000000             4
   -0.25000000000000    0.14285714285715   -0.00000000000000             4
   -0.12500000000000    0.14285714285715    0.00000000000000             4
   -0.00000000000000    0.28571428571428   -0.00000000000000             4
    0.12500000000000    0.28571428571428   -0.00000000000000             4
    0.25000000000000    0.28571428571428   -0.00000000000000             4
    0.37500000000000    0.28571428571428   -0.00000000000000             4
    0.50000000000000    0.28571428571428   -0.00000000000000             4
   -0.37500000000000    0.28571428571428   -0.00000000000000             4
   -0.25000000000000    0.28571428571428   -0.00000000000000             4
   -0.12500000000000    0.28571428571428    0.00000000000000             4
   -0.00000000000000    0.42857142857143   -0.00000000000000             4
    0.12500000000000    0.42857142857143   -0.00000000000000             4
    0.25000000000000    0.42857142857143   -0.00000000000000             4
    0.37500000000000    0.42857142857143   -0.00000000000000             4
    0.50000000000000    0.42857142857143   -0.00000000000001             4
   -0.37500000000000    0.42857142857143   -0.00000000000000             4
   -0.25000000000000    0.42857142857143    0.00000000000000             4
   -0.12500000000000    0.42857142857143    0.00000000000000             4
   -0.00000000000000    0.14285714285715    0.14285714285715             2
    0.12500000000000    0.14285714285715    0.14285714285715             2
    0.25000000000000    0.14285714285715    0.14285714285715             2
    0.37500000000000    0.14285714285715    0.14285714285715             2
    0.50000000000000    0.14285714285715    0.14285714285715             2
   -0.37500000000000    0.14285714285715    0.14285714285714             2
   -0.25000000000000    0.14285714285715    0.14285714285714             2
   -0.12500000000000    0.14285714285715    0.14285714285714             2
   -0.00000000000000    0.28571428571428    0.14285714285715             4
    0.12500000000000    0.28571428571428    0.14285714285715             4
    0.25000000000000    0.28571428571428    0.14285714285715             4
    0.37500000000000    0.28571428571428    0.14285714285715             4
    0.50000000000000    0.28571428571428    0.14285714285715             4
   -0.37500000000000    0.28571428571428    0.14285714285714             4
   -0.25000000000000    0.28571428571428    0.14285714285714             4
   -0.12500000000000    0.28571428571428    0.14285714285714             4
   -0.00000000000000    0.42857142857143    0.14285714285715             4
    0.12500000000000    0.42857142857143    0.14285714285715             4
    0.25000000000000    0.42857142857143    0.14285714285715             4
    0.37500000000000    0.42857142857143    0.14285714285715             4
    0.50000000000000    0.42857142857143    0.14285714285714             4
   -0.37500000000000    0.42857142857143    0.14285714285714             4
   -0.25000000000000    0.42857142857143    0.14285714285714             4
   -0.12500000000000    0.42857142857143    0.14285714285715             4
   -0.00000000000000   -0.42857142857143    0.14285714285714             4
    0.12500000000000   -0.42857142857143    0.14285714285714             4
    0.25000000000000   -0.42857142857143    0.14285714285715             4
    0.37500000000000   -0.42857142857143    0.14285714285715             4
    0.50000000000000   -0.42857142857143    0.14285714285715             4
   -0.37500000000000   -0.42857142857143    0.14285714285714             4
   -0.25000000000000   -0.42857142857143    0.14285714285714             4
   -0.12500000000000   -0.42857142857143    0.14285714285714             4
   -0.00000000000000   -0.28571428571428    0.14285714285714             4
    0.12500000000000   -0.28571428571428    0.14285714285715             4
    0.25000000000000   -0.28571428571428    0.14285714285715             4
    0.37500000000000   -0.28571428571428    0.14285714285715             4
    0.50000000000000   -0.28571428571428    0.14285714285715             4
   -0.37500000000000   -0.28571428571428    0.14285714285714             4
   -0.25000000000000   -0.28571428571428    0.14285714285714             4
   -0.12500000000000   -0.28571428571428    0.14285714285714             4
    0.00000000000000   -0.14285714285715    0.14285714285714             2
    0.12500000000000   -0.14285714285715    0.14285714285715             4
    0.25000000000000   -0.14285714285715    0.14285714285715             4
    0.37500000000000   -0.14285714285715    0.14285714285715             4
    0.50000000000000   -0.14285714285715    0.14285714285714             2
    0.00000000000000    0.28571428571428    0.28571428571428             2
    0.12500000000000    0.28571428571428    0.28571428571428             2
    0.25000000000000    0.28571428571428    0.28571428571428             2
    0.37500000000000    0.28571428571428    0.28571428571428             2
    0.50000000000000    0.28571428571428    0.28571428571428             2
   -0.37500000000000    0.28571428571428    0.28571428571428             2
   -0.25000000000000    0.28571428571428    0.28571428571428             2
   -0.12500000000000    0.28571428571428    0.28571428571429             2
   -0.00000000000000    0.42857142857143    0.28571428571428             4
    0.12500000000000    0.42857142857143    0.28571428571428             4
    0.25000000000000    0.42857142857143    0.28571428571428             4
    0.37500000000000    0.42857142857143    0.28571428571428             4
    0.50000000000000    0.42857142857143    0.28571428571428             4
   -0.37500000000000    0.42857142857143    0.28571428571428             4
   -0.25000000000000    0.42857142857143    0.28571428571429             4
   -0.12500000000000    0.42857142857143    0.28571428571429             4
    0.00000000000000   -0.42857142857143    0.28571428571428             4
    0.12500000000000   -0.42857142857143    0.28571428571428             4
    0.25000000000000   -0.42857142857143    0.28571428571428             4
    0.37500000000000   -0.42857142857143    0.28571428571428             4
    0.50000000000000   -0.42857142857143    0.28571428571428             4
   -0.37500000000000   -0.42857142857143    0.28571428571428             4
   -0.25000000000000   -0.42857142857143    0.28571428571429             4
   -0.12500000000000   -0.42857142857143    0.28571428571429             4
    0.00000000000000   -0.28571428571428    0.28571428571428             2
    0.12500000000000   -0.28571428571428    0.28571428571428             4
    0.25000000000000   -0.28571428571428    0.28571428571428             4
    0.37500000000000   -0.28571428571428    0.28571428571428             4
    0.50000000000000   -0.28571428571428    0.28571428571428             2
    0.00000000000000    0.42857142857143    0.42857142857143             2
    0.12500000000000    0.42857142857143    0.42857142857143             2
    0.25000000000000    0.42857142857143    0.42857142857143             2
    0.37500000000000    0.42857142857143    0.42857142857143             2
    0.50000000000000    0.42857142857143    0.42857142857143             2
   -0.37500000000000    0.42857142857143    0.42857142857143             2
   -0.25000000000000    0.42857142857143    0.42857142857142             2
   -0.12500000000000    0.42857142857143    0.42857142857143             2
    0.00000000000000   -0.42857142857143    0.42857142857143             2
    0.12500000000000   -0.42857142857143    0.42857142857143             4
    0.25000000000000   -0.42857142857143    0.42857142857143             4
    0.37500000000000   -0.42857142857143    0.42857142857143             4
    0.50000000000000   -0.42857142857143    0.42857142857143             2
Tetrahedra
       588    0.00042517006803
         4         1         6         7        31
         4         1         2         7        31
         4         1         6        30        31
         4         2         7         8        32
         4         2         3         8        32
         4         2         7        31        32
         4         3         8         9        33
         4         3         4         9        33
         4         3         8        32        33
         4         4         9        10        34
         4         4         5        10        34
         4         4         9        33        34
         4         5        10        11        35
         4         4         5        11        35
         4         5        10        34        35
         4         4        11        12        36
         4         3         4        12        36
         4         4        11        35        36
         4         3        12        13        37
         4         2         3        13        37
         4         3        12        36        37
         4         2         6        13        30
         4         1         2         6        30
         4         2        13        30        37
         4         6        14        15        39
         4         6         7        15        39
         4         6         7        31        39
         4         6        14        38        39
         4         6        30        38        39
         4         6        30        31        39
         4         7        15        16        40
         4         7         8        16        40
         4         7         8        32        40
         4         7        15        39        40
         4         7        31        39        40
         4         7        31        32        40
         4         8        16        17        41
         4         8         9        17        41
         4         8         9        33        41
         4         8        16        40        41
         4         8        32        40        41
         4         8        32        33        41
         4         9        17        18        42
         4         9        10        18        42
         4         9        10        34        42
         4         9        17        41        42
         4         9        33        41        42
         4         9        33        34        42
         4        10        18        19        43
         4        10        11        19        43
         4        10        11        35        43
         4        10        18        42        43
         4        10        34        42        43
         4        10        34        35        43
         4        11        19        20        44
         4        11        12        20        44
         4        11        12        36        44
         4        11        19        43        44
         4        11        35        43        44
         4        11        35        36        44
         4        12        20        21        45
         4        12        13        21        45
         4        12        13        37        45
         4        12        20        44        45
         4        12        36        44        45
         4        12        36        37        45
         4        13        14        21        38
         4         6        13        14        38
         4         6        13        30        38
         4        13        21        38        45
         4        13        37        38        45
         4        13        30        37        38
         4        14        22        23        47
         4        14        15        23        47
         4        14        15        39        47
         4        14        22        46        47
         4        14        38        46        47
         4        14        38        39        47
         4        15        23        24        48
         4        15        16        24        48
         4        15        16        40        48
         4        15        23        47        48
         4        15        39        47        48
         4        15        39        40        48
         4        16        24        25        49
         4        16        17        25        49
         4        16        17        41        49
         4        16        24        48        49
         4        16        40        48        49
         4        16        40        41        49
         4        17        25        26        50
         4        17        18        26        50
         4        17        18        42        50
         4        17        25        49        50
         4        17        41        49        50
         4        17        41        42        50
         4        18        26        27        51
         4        18        19        27        51
         4        18        19        43        51
         4        18        26        50        51
         4        18        42        50        51
         4        18        42        43        51
         4        19        27        28        52
         4        19        20        28        52
         4        19        20        44        52
         4        19        27        51        52
         4        19        43        51        52
         4        19        43        44        52
         4        20        28        29        53
         4        20        21        29        53
         4        20        21        45        53
         4        20        28        52        53
         4        20        44        52        53
         4        20        44        45        53
         4        21        22        29        46
         4        14        21        22        46
         4        14        21        38        46
         4        21        29        46        53
         4        21        45        46        53
         4        21        38        45        46
         4        22        22        29        55
         4        22        23        29        55
         4        22        23        47        55
         4        22        22        54        55
         4        22        46        54        55
         4        22        46        47        55
         4        23        28        29        56
         4        23        24        28        56
         4        23        24        48        56
         4        23        29        55        56
         4        23        47        55        56
         4        23        47        48        56
         4        24        27        28        57
         4        24        25        27        57
         4        24        25        49        57
         4        24        28        56        57
         4        24        48        56        57
         4        24        48        49        57
         4        25        26        27        58
         4        25        26        26        58
         4        25        26        50        58
         4        25        27        57        58
         4        25        49        57        58
         4        25        49        50        58
         4        25        26        26        59
         4        25        26        27        59
         4        26        27        51        59
         4        26        26        58        59
         4        26        50        58        59
         4        26        50        51        59
         4        24        25        27        60
         4        24        27        28        60
         4        27        28        52        60
         4        25        27        59        60
         4        27        51        59        60
         4        27        51        52        60
         4        23        24        28        61
         4        23        28        29        61
         4        28        29        53        61
         4        24        28        60        61
         4        28        52        60        61
         4        28        52        53        61
         4        22        23        29        54
         4        22        22        29        54
         4        22        29        46        54
         4        23        29        54        61
         4        29        53        54        61
         4        29        46        53        54
         4        14        21        22        63
         4        21        22        29        63
         4        22        29        55        63
         4        14        22        62        63
         4        22        54        62        63
         4        22        54        55        63
         4        20        21        29        64
         4        20        28        29        64
         4        28        29        56        64
         4        21        29        63        64
         4        29        55        63        64
         4        29        55        56        64
         4        19        20        28        65
         4        19        27        28        65
         4        27        28        57        65
         4        20        28        64        65
         4        28        56        64        65
         4        28        56        57        65
         4        18        19        27        66
         4        18        26        27        66
         4        26        27        58        66
         4        19        27        65        66
         4        27        57        65        66
         4        27        57        58        66
         4        17        18        26        67
         4        17        25        26        67
         4        25        26        59        67
         4        18        26        66        67
         4        26        58        66        67
         4        26        58        59        67
         4        16        17        25        68
         4        16        24        25        68
         4        24        25        60        68
         4        17        25        67        68
         4        25        59        67        68
         4        25        59        60        68
         4        15        16        24        69
         4        15        23        24        69
         4        23        24        61        69
         4        16        24        68        69
         4        24        60        68        69
         4        24        60        61        69
         4        14        15        23        62
         4        14        22        23        62
         4        22        23        54        62
         4        15        23        62        69
         4        23        61        62        69
         4        23        54        61        62
         4         6        13        14        71
         4        13        14        21        71
         4        14        21        63        71
         4         6        14        70        71
         4        14        62        70        71
         4        14        62        63        71
         4        12        13        21        72
         4        12        20        21        72
         4        20        21        64        72
         4        13        21        71        72
         4        21        63        71        72
         4        21        63        64        72
         4        11        12        20        73
         4        11        19        20        73
         4        19        20        65        73
         4        12        20        72        73
         4        20        64        72        73
         4        20        64        65        73
         4        10        11        19        74
         4        10        18        19        74
         4        18        19        66        74
         4        11        19        73        74
         4        19        65        73        74
         4        19        65        66        74
         4         9        10        18        73
         4         9        17        18        73
         4        17        18        67        73
         4        10        18        73        74
         4        18        66        73        74
         4        18        66        67        73
         4         8         9        17        72
         4         8        16        17        72
         4        16        17        68        72
         4         9        17        72        73
         4        17        67        72        73
         4        17        67        68        72
         4         7         8        16        71
         4         7        15        16        71
         4        15        16        69        71
         4         8        16        71        72
         4        16        68        71        72
         4        16        68        69        71
         4         6         7        15        70
         4         6        14        15        70
         4        14        15        62        70
         4         7        15        70        71
         4        15        69        70        71
         4        15        62        69        70
         4         1         2         6         7
         4         2         6         7        13
         4         6         7        13        71
         4         1         6         6         7
         4         6         6         7        70
         4         6         7        70        71
         4         2         3         8        13
         4         3         8        12        13
         4         8        12        13        72
         4         2         7         8        13
         4         7         8        13        71
         4         8        13        71        72
         4         3         4         9        12
         4         4         9        11        12
         4         9        11        12        73
         4         3         8         9        12
         4         8         9        12        72
         4         9        12        72        73
         4         4         5        10        11
         4         5        10        10        11
         4        10        10        11        74
         4         4         9        10        11
         4         9        10        11        73
         4        10        11        73        74
         4        30        38        39        76
         4        30        31        39        76
         4        30        38        75        76
         4        31        39        40        77
         4        31        32        40        77
         4        31        39        76        77
         4        32        40        41        78
         4        32        33        41        78
         4        32        40        77        78
         4        33        41        42        79
         4        33        34        42        79
         4        33        41        78        79
         4        34        42        43        80
         4        34        35        43        80
         4        34        42        79        80
         4        35        43        44        81
         4        35        36        44        81
         4        35        43        80        81
         4        36        44        45        82
         4        36        37        45        82
         4        36        44        81        82
         4        37        38        45        75
         4        30        37        38        75
         4        37        45        75        82
         4        38        46        47        84
         4        38        39        47        84
         4        38        39        76        84
         4        38        46        83        84
         4        38        75        83        84
         4        38        75        76        84
         4        39        47        48        85
         4        39        40        48        85
         4        39        40        77        85
         4        39        47        84        85
         4        39        76        84        85
         4        39        76        77        85
         4        40        48        49        86
         4        40        41        49        86
         4        40        41        78        86
         4        40        48        85        86
         4        40        77        85        86
         4        40        77        78        86
         4        41        49        50        87
         4        41        42        50        87
         4        41        42        79        87
         4        41        49        86        87
         4        41        78        86        87
         4        41        78        79        87
         4        42        50        51        88
         4        42        43        51        88
         4        42        43        80        88
         4        42        50        87        88
         4        42        79        87        88
         4        42        79        80        88
         4        43        51        52        89
         4        43        44        52        89
         4        43        44        81        89
         4        43        51        88        89
         4        43        80        88        89
         4        43        80        81        89
         4        44        52        53        90
         4        44        45        53        90
         4        44        45        82        90
         4        44        52        89        90
         4        44        81        89        90
         4        44        81        82        90
         4        45        46        53        83
         4        38        45        46        83
         4        38        45        75        83
         4        45        53        83        90
         4        45        82        83        90
         4        45        75        82        83
         4        46        54        55        92
         4        46        47        55        92
         4        46        47        84        92
         4        46        54        91        92
         4        46        83        91        92
         4        46        83        84        92
         4        47        55        56        93
         4        47        48        56        93
         4        47        48        85        93
         4        47        55        92        93
         4        47        84        92        93
         4        47        84        85        93
         4        48        56        57        94
         4        48        49        57        94
         4        48        49        86        94
         4        48        56        93        94
         4        48        85        93        94
         4        48        85        86        94
         4        49        57        58        95
         4        49        50        58        95
         4        49        50        87        95
         4        49        57        94        95
         4        49        86        94        95
         4        49        86        87        95
         4        50        58        59        96
         4        50        51        59        96
         4        50        51        88        96
         4        50        58        95        96
         4        50        87        95        96
         4        50        87        88        96
         4        51        59        60        97
         4        51        52        60        97
         4        51        52        89        97
         4        51        59        96        97
         4        51        88        96        97
         4        51        88        89        97
         4        52        60        61        98
         4        52        53        61        98
         4        52        53        90        98
         4        52        60        97        98
         4        52        89        97        98
         4        52        89        90        98
         4        53        54        61        91
         4        46        53        54        91
         4        46        53        83        91
         4        53        61        91        98
         4        53        90        91        98
         4        53        83        90        91
         4        54        62        63       100
         4        54        55        63       100
         4        54        55        92       100
         4        54        62        99       100
         4        54        91        99       100
         4        54        91        92       100
         4        55        63        64       101