 running on   12 total cores
 distrk:  each k-point on   12 cores,    1 groups
 distr:  one band on    6 cores,    2 groups
 using from now: INCAR     
 vasp.6.1.2 22Jul20 (build Mar 20 2021 11:25:07) complex                        
  
 POSCAR found type information on POSCAR LiP 
 POSCAR found :  2 types and      40 ions
 scaLAPACK will be used
 LDA part: xc-table for Pade appr. of Perdew
 generate k-points for:    4    3    3
 POSCAR, INCAR and KPOINTS ok, starting setup
 FFT: planning ...
 WAVECAR not read
 entering main loop
       N       E                     dE             d eps       ncg     rms          rms(c)
DAV:   1     0.105110458276E+04    0.10511E+04   -0.68534E+04  5856   0.132E+03
DAV:   2    -0.300296607728E+02   -0.10811E+04   -0.99886E+03  6864   0.286E+02
DAV:   3    -0.166250316969E+03   -0.13622E+03   -0.13442E+03  7906   0.960E+01
DAV:   4    -0.182063997060E+03   -0.15814E+02   -0.15713E+02 10496   0.290E+01
DAV:   5    -0.185268382705E+03   -0.32044E+01   -0.32027E+01  9688   0.853E+00    0.333E+01
DAV:   6    -0.185712034170E+03   -0.44365E+00   -0.93095E+00  7648   0.709E+00    0.182E+01
DAV:   7    -0.187882385286E+03   -0.21704E+01   -0.31444E+00  7640   0.426E+00    0.109E+01
DAV:   8    -0.188756449256E+03   -0.87406E+00   -0.13885E+00  7024   0.306E+00    0.248E+00
DAV:   9    -0.188836967984E+03   -0.80519E-01   -0.20311E-01  8184   0.133E+00    0.110E+00
DAV:  10    -0.188851254249E+03   -0.14286E-01   -0.38039E-02  7720   0.506E-01    0.395E-01
DAV:  11    -0.188855545970E+03   -0.42917E-02   -0.57737E-03  7072   0.242E-01    0.201E-01
DAV:  12    -0.188857725985E+03   -0.21800E-02   -0.22798E-03  7912   0.133E-01    0.105E-01
DAV:  13    -0.188858768971E+03   -0.10430E-02   -0.78999E-04  7160   0.719E-02    0.419E-02
DAV:  14    -0.188859095930E+03   -0.32696E-03   -0.30251E-04  6976   0.428E-02    0.230E-02
DAV:  15    -0.188859183963E+03   -0.88033E-04   -0.96999E-05  6160   0.250E-02    0.116E-02
DAV:  16    -0.188859204068E+03   -0.20106E-04   -0.21238E-05  5664   0.131E-02    0.528E-03
DAV:  17    -0.188859208792E+03   -0.47238E-05   -0.53605E-06  4432   0.738E-03
   1 F= -.18885921E+03 E0= -.18885921E+03  d E =0.000000E+00  mag=    -0.0003
