   12   12    1    2
  0.1009201E+02  0.5358675E-09  0.5358675E-09  0.4790163E-09  0.5000000E-15
  1.000000000000000E-004
  CAR 
 unknown system                          
     56     64     40
 
  0.0000000E+00  0.0000000E+00  0.0000000E+00  0.2915452E-02
    1      -40.494093    -40.493891   1.000000   1.000000
    2      -40.475236    -40.475033   1.000000   1.000000
    3      -40.474117    -40.473913   1.000000   1.000000
    4      -40.473429    -40.473225   1.000000   1.000000
    5      -17.116010    -17.116060   1.000000   1.000000
    6      -16.480687    -16.480750   1.000000   1.000000
    7      -15.122344    -15.122420   1.000000   1.000000
    8      -15.099530    -15.099607   1.000000   1.000000
    9      -12.944506    -12.944561   1.000000   1.000000
   10      -11.369007    -11.369061   1.000000   1.000000
   11       -7.127613     -7.127642   1.000000   1.000000
   12       -3.930956     -3.930986   1.000000   1.000000
   13       -3.693849     -3.693876   1.000000   1.000000
   14       -3.080486     -3.080518   1.000000   1.000000
   15       -3.060730     -3.060760   1.000000   1.000000
   16       -1.928614     -1.928666   1.000000   1.000000
   17       -1.004817     -1.004851   1.000000   1.000000
   18       -0.971698     -0.971720   1.000000   1.000000
   19       -0.090587     -0.090628   1.000000   1.000000
   20        0.073363      0.073330   1.000000   1.000000
   21        0.262597      0.262561   1.000000   1.000000
   22        0.973441      0.973379   1.000000   1.000000
   23        0.986496      0.986435   1.000000   1.000000
   24        1.059457      1.059399   1.000000   1.000000
   25        1.219975      1.219926   1.000000   1.000000
   26        1.837453      1.837399   1.000000   1.000000
   27        1.869590      1.869544   1.000000   1.000000
   28        2.528336      2.528296   1.000000   1.000000
   29        8.000215      8.000245   0.000003   0.000002
   30        9.359151      9.359187   0.000000   0.000000
   31        9.656251      9.656266   0.000000   0.000000
   32       11.029771     11.030390   0.000000   0.000000
   33       11.139619     11.139603   0.000000   0.000000
   34       12.005242     12.004657   0.000000   0.000000
   35       12.009481     12.009458   0.000000   0.000000
   36       12.966900     12.962887   0.000000   0.000000
   37       13.087580     13.088087   0.000000   0.000000
   38       13.259556     13.258302   0.000000   0.000000
   39       13.332487     13.333046   0.000000   0.000000
   40       14.185999     13.759086   0.000000   0.000000
 
  0.1428571E+00  0.2238601E-16  0.0000000E+00  0.1166181E-01
    1      -40.493402    -40.493199   1.000000   1.000000
    2      -40.477176    -40.476972   1.000000   1.000000
    3      -40.474110    -40.473907   1.000000   1.000000
    4      -40.472213    -40.472010   1.000000   1.000000
    5      -17.096644    -17.096694   1.000000   1.000000
    6      -16.498928    -16.498990   1.000000   1.000000
    7      -15.127511    -15.127587   1.000000   1.000000
    8      -15.102765    -15.102842   1.000000   1.000000
    9      -12.947702    -12.947757   1.000000   1.000000
   10      -11.367459    -11.367513   1.000000   1.000000
   11       -7.130828     -7.130857   1.000000   1.000000
   12       -3.923338     -3.923365   1.000000   1.000000
   13       -3.666543     -3.666572   1.000000   1.000000
   14       -3.094036     -3.094067   1.000000   1.000000
   15       -2.999015     -2.999048   1.000000   1.000000
   16       -1.948301     -1.948352   1.000000   1.000000
   17       -1.093696     -1.093723   1.000000   1.000000
   18       -0.755832     -0.755864   1.000000   1.000000
   19       -0.061958     -0.061998   1.000000   1.000000
   20        0.106075      0.106040   1.000000   1.000000
   21        0.255661      0.255626   1.000000   1.000000
   22        0.791552      0.791495   1.000000   1.000000
   23        0.915865      0.915812   1.000000   1.000000
   24        1.048579      1.048518   1.000000   1.000000
   25        1.182579      1.182529   1.000000   1.000000
   26        1.787628      1.787575   1.000000   1.000000
   27        1.921519      1.921470   1.000000   1.000000
   28        2.524270      2.524230   1.000000   1.000000
   29        8.230480      8.230505  -0.000000  -0.000000
   30        9.363826      9.363849   0.000000   0.000000
   31        9.748221      9.748208   0.000000   0.000000
   32       10.887739     10.887621   0.000000   0.000000
   33       11.170731     11.170593   0.000000   0.000000
   34       11.659893     11.659788   0.000000   0.000000
   35       12.087110     12.086507   0.000000   0.000000
   36       12.496980     12.497073   0.000000   0.000000
   37       12.927771     12.927448   0.000000   0.000000
   38       13.095523     13.093254   0.000000   0.000000
   39       13.238330     13.240212   0.000000   0.000000
   40       14.070134     14.401068   0.000000   0.000000
 
  0.2857143E+00  0.3221139E-16  0.0000000E+00  0.1166181E-01
    1      -40.491404    -40.491201   1.000000   1.000000
    2      -40.480474    -40.480271   1.000000   1.000000
    3      -40.473757    -40.473554   1.000000   1.000000
    4      -40.471160    -40.470957   1.000000   1.000000
    5      -17.047294    -17.047345   1.000000   1.000000
    6      -16.545694    -16.545755   1.000000   1.000000
    7      -15.138853    -15.138929   1.000000   1.000000
    8      -15.110133    -15.110209   1.000000   1.000000
    9      -12.954152    -12.954207   1.000000   1.000000
   10      -11.364386    -11.364441   1.000000   1.000000
   11       -7.137239     -7.137267   1.000000   1.000000
   12       -3.923790     -3.923813   1.000000   1.000000
   13       -3.571681     -3.571716   1.000000   1.000000
   14       -3.178912     -3.178944   1.000000   1.000000
   15       -2.795683     -2.795720   1.000000   1.000000
   16       -2.008847     -2.008895   1.000000   1.000000
   17       -1.003826     -1.003856   1.000000   1.000000
   18       -0.513532     -0.513570   1.000000   1.000000
   19       -0.076743     -0.076782   1.000000   1.000000
   20        0.155542      0.155504   1.000000   1.000000
   21        0.269765      0.269731   1.000000   1.000000
   22        0.467873      0.467829   1.000000   1.000000
   23        0.759957      0.759909   1.000000   1.000000
   24        0.977156      0.977107   1.000000   1.000000
   25        1.109162      1.109104   1.000000   1.000000
   26        1.666291      1.666243   1.000000   1.000000
   27        2.043635      2.043578   1.000000   1.000000
   28        2.512223      2.512183   1.000000   1.000000
   29        8.782561      8.782575   0.000000   0.000000
   30        9.352382      9.352392   0.000000   0.000000
   31        9.970409      9.970408   0.000000   0.000000
   32       10.666087     10.666095   0.000000   0.000000
   33       11.034261     11.034526   0.000000   0.000000
   34       11.210502     11.210245   0.000000   0.000000
   35       11.724041     11.723975   0.000000   0.000000
   36       12.183039     12.182023   0.000000   0.000000
   37       12.479117     12.479284   0.000000   0.000000
   38       13.149588     13.149935   0.000000   0.000000
   39       13.291454     13.293686   0.000000   0.000000
   40       14.132495     14.051659   0.000000   0.000000
 
  0.4285714E+00  0.7450592E-16  0.0000000E+00  0.1166181E-01
    1      -40.488632    -40.488429   1.000000   1.000000
    2      -40.483930    -40.483727   1.000000   1.000000
    3      -40.473466    -40.473262   1.000000   1.000000
    4      -40.470735    -40.470532   1.000000   1.000000
    5      -16.999071    -16.999124   1.000000   1.000000
    6      -16.592004    -16.592065   1.000000   1.000000
    7      -15.147983    -15.148059   1.000000   1.000000
    8      -15.116068    -15.116145   1.000000   1.000000
    9      -12.958852    -12.958907   1.000000   1.000000
   10      -11.362401    -11.362456   1.000000   1.000000
   11       -7.141516     -7.141543   1.000000   1.000000
   12       -3.937573     -3.937593   1.000000   1.000000
   13       -3.435161     -3.435202   1.000000   1.000000
   14       -3.290867     -3.290900   1.000000   1.000000
   15       -2.581011     -2.581053   1.000000   1.000000
   16       -2.089966     -2.090012   1.000000   1.000000
   17       -0.809795     -0.809831   1.000000   1.000000
   18       -0.401682     -0.401729   1.000000   1.000000
   19       -0.136047     -0.136075   1.000000   1.000000
   20        0.061195      0.061161   1.000000   1.000000
   21        0.132855      0.132822   1.000000   1.000000
   22        0.450998      0.450953   1.000000   1.000000
   23        0.734066      0.734024   1.000000   1.000000
   24        0.895356      0.895312   1.000000   1.000000
   25        1.045484      1.045422   1.000000   1.000000
   26        1.548398      1.548355   1.000000   1.000000
   27        2.146602      2.146538   1.000000   1.000000
   28        2.498194      2.498154   1.000000   1.000000
   29        9.070477      9.070485   0.000000   0.000000
   30        9.667153      9.667159   0.000000   0.000000
   31       10.117957     10.117983   0.000000   0.000000
   32       10.437000     10.436998   0.000000   0.000000
   33       10.806737     10.806577   0.000000   0.000000
   34       11.028964     11.029034   0.000000   0.000000
   35       11.251739     11.251753   0.000000   0.000000
   36       12.003101     12.003458   0.000000   0.000000
   37       12.153553     12.153746   0.000000   0.000000
   38       13.393820     13.395940   0.000000   0.000000
   39       13.592657     13.597487   0.000000   0.000000
   40       14.161377     14.127744   0.000000   0.000000
 
  0.1428571E+00  0.1428571E+00  0.0000000E+00  0.5830904E-02
    1      -40.491967    -40.491764   1.000000   1.000000
    2      -40.479785    -40.479582   1.000000   1.000000
    3      -40.474019    -40.473816   1.000000   1.000000
    4      -40.471144    -40.470940   1.000000   1.000000
    5      -17.059226    -17.059277   1.000000   1.000000
    6      -16.538472    -16.538533   1.000000   1.000000
    7      -15.138013    -15.138088   1.000000   1.000000
    8      -15.102190    -15.102267   1.000000   1.000000
    9      -12.949186    -12.949241   1.000000   1.000000
   10      -11.365636    -11.365691   1.000000   1.000000
   11       -7.131159     -7.131187   1.000000   1.000000
   12       -3.940978     -3.941002   1.000000   1.000000
   13       -3.592191     -3.592224   1.000000   1.000000
   14       -3.140199     -3.140233   1.000000   1.000000
   15       -2.913324     -2.913358   1.000000   1.000000
   16       -1.998410     -1.998459   1.000000   1.000000
   17       -1.048286     -1.048316   1.000000   1.000000
   18       -0.469581     -0.469621   1.000000   1.000000
   19        0.032255      0.032210   1.000000   1.000000
   20        0.035517      0.035483   1.000000   1.000000
   21        0.278438      0.278405   1.000000   1.000000
   22        0.607181      0.607129   1.000000   1.000000
   23        0.663110      0.663069   1.000000   1.000000
   24        1.067839      1.067794   1.000000   1.000000
   25        1.095306      1.095241   1.000000   1.000000
   26        1.686103      1.686055   1.000000   1.000000
   27        2.033118      2.033062   1.000000   1.000000
   28        2.531585      2.531544   1.000000   1.000000
   29        8.603226      8.603241   0.000000   0.000000
   30        9.328773      9.328785   0.000000   0.000000
   31        9.874689      9.874689   0.000000   0.000000
   32       10.732214     10.732228   0.000000   0.000000
   33       11.051586     11.051667   0.000000   0.000000
   34       11.630824     11.630903   0.000000   0.000000
   35       11.710407     11.710473   0.000000   0.000000
   36       12.226177     12.226461   0.000000   0.000000
   37       12.531567     12.531038   0.000000   0.000000
   38       12.784049     12.783920   0.000000   0.000000
   39       13.168975     13.167459   0.000000   0.000000
   40       14.425689     14.501561   0.000000   0.000000
 
  0.2857143E+00  0.1428571E+00  0.0000000E+00  0.1166181E-01
    1      -40.489463    -40.489260   1.000000   1.000000
    2      -40.482970    -40.482767   1.000000   1.000000
    3      -40.473847    -40.473644   1.000000   1.000000
    4      -40.470535    -40.470332   1.000000   1.000000
    5      -17.009093    -17.009145   1.000000   1.000000
    6      -16.584244    -16.584305   1.000000   1.000000
    7      -15.165535    -15.165610   1.000000   1.000000
    8      -15.093470    -15.093547   1.000000   1.000000
    9      -12.955819    -12.955874   1.000000   1.000000
   10      -11.363093    -11.363148   1.000000   1.000000
   11       -7.137692     -7.137719   1.000000   1.000000
   12       -3.944492     -3.944513   1.000000   1.000000
   13       -3.483986     -3.484022   1.000000   1.000000
   14       -3.213173     -3.213210   1.000000   1.000000
   15       -2.715780     -2.715818   1.000000   1.000000
   16       -2.055975     -2.056022   1.000000   1.000000
   17       -0.865665     -0.865700   1.000000   1.000000
   18       -0.308330     -0.308381   1.000000   1.000000
   19       -0.117857     -0.117886   1.000000   1.000000
   20       -0.042865     -0.042895   1.000000   1.000000
   21        0.345722      0.345677   1.000000   1.000000
   22        0.391461      0.391425   1.000000   1.000000
   23        0.614310      0.614270   1.000000   1.000000
   24        0.950436      0.950392   1.000000   1.000000
   25        1.090863      1.090800   1.000000   1.000000
   26        1.558574      1.558532   1.000000   1.000000
   27        2.137747      2.137684   1.000000   1.000000
   28        2.522047      2.522006   1.000000   1.000000
   29        9.076449      9.076453   0.000000   0.000000
   30        9.343307      9.343313   0.000000   0.000000
   31       10.021701     10.021689   0.000000   0.000000
   32       10.543739     10.543756   0.000000   0.000000
   33       10.889832     10.889885   0.000000   0.000000
   34       11.162477     11.162497   0.000000   0.000000
   35       11.463494     11.463622   0.000000   0.000000
   36       12.017859     12.017821   0.000000   0.000000
   37       12.336995     12.336691   0.000000   0.000000
   38       12.835170     12.835284   0.000000   0.000000
   39       13.305340     13.305679   0.000000   0.000000
   40       14.440065     14.407237   0.000000   0.000000
 
  0.4285714E+00  0.1428571E+00  0.0000000E+00  0.1166181E-01
    1      -40.487428    -40.487226   1.000000   1.000000
    2      -40.485065    -40.484862   1.000000   1.000000
    3      -40.473812    -40.473608   1.000000   1.000000
    4      -40.470480    -40.470277   1.000000   1.000000
    5      -16.988598    -16.988651   1.000000   1.000000
    6      -16.597245    -16.597305   1.000000   1.000000
    7      -15.184524    -15.184599   1.000000   1.000000
    8      -15.088211    -15.088288   1.000000   1.000000
    9      -12.962861    -12.962916   1.000000   1.000000
   10      -11.361517    -11.361572   1.000000   1.000000
   11       -7.146238     -7.146265   1.000000   1.000000
   12       -3.933552     -3.933572   1.000000   1.000000
   13       -3.370699     -3.370745   1.000000   1.000000
   14       -3.304903     -3.304933   1.000000   1.000000
   15       -2.537104     -2.537146   1.000000   1.000000
   16       -2.096812     -2.096858   1.000000   1.000000
   17       -0.745454     -0.745492   1.000000   1.000000
   18       -0.486504     -0.486544   1.000000   1.000000
   19       -0.185780     -0.185808   1.000000   1.000000
   20       -0.058455     -0.058486   1.000000   1.000000
   21        0.247761      0.247715   1.000000   1.000000
   22        0.438117      0.438079   1.000000   1.000000
   23        0.728390      0.728350   1.000000   1.000000
   24        0.866780      0.866734   1.000000   1.000000
   25        1.084740      1.084678   1.000000   1.000000
   26        1.526420      1.526378   1.000000   1.000000
   27        2.151855      2.151791   1.000000   1.000000
   28        2.507159      2.507117   1.000000   1.000000
   29        9.133262      9.133271   0.000000   0.000000
   30        9.627219      9.627242   0.000000   0.000000
   31       10.144624     10.144651   0.000000   0.000000
   32       10.312407     10.312403   0.000000   0.000000
   33       10.598550     10.598386   0.000000   0.000000
   34       11.155533     11.155524   0.000000   0.000000
   35       11.489884     11.489925   0.000000   0.000000
   36       11.876805     11.876903   0.000000   0.000000
   37       12.185688     12.185937   0.000000   0.000000
   38       13.174949     13.176952   0.000000   0.000000
   39       13.566009     13.567139   0.000000   0.000000
   40       14.304301     14.333361   0.000000   0.000000
 
 -0.4285714E+00  0.1428571E+00  0.0000000E+00  0.1166181E-01
    1      -40.489974    -40.489771   1.000000   1.000000
    2      -40.481977    -40.481774   1.000000   1.000000
    3      -40.474054    -40.473850   1.000000   1.000000
    4      -40.470791    -40.470588   1.000000   1.000000
    5      -17.020221    -17.020273   1.000000   1.000000
    6      -16.560412    -16.560473   1.000000   1.000000
    7      -15.186524    -15.186598   1.000000   1.000000
    8      -15.084435    -15.084512   1.000000   1.000000
    9      -12.965534    -12.965589   1.000000   1.000000
   10      -11.361717    -11.361771   1.000000   1.000000
   11       -7.150524     -7.150552   1.000000   1.000000
   12       -3.903982     -3.904003   1.000000   1.000000
   13       -3.479541     -3.479584   1.000000   1.000000
   14       -3.218238     -3.218270   1.000000   1.000000
   15       -2.582559     -2.582600   1.000000   1.000000
   16       -2.049320     -2.049367   1.000000   1.000000
   17       -0.886379     -0.886412   1.000000   1.000000
   18       -0.596578     -0.596612   1.000000   1.000000
   19       -0.190940     -0.190974   1.000000   1.000000
   20        0.040723      0.040687   1.000000   1.000000
   21        0.263430      0.263386   1.000000   1.000000
   22        0.447950      0.447912   1.000000   1.000000
   23        0.800937      0.800890   1.000000   1.000000
   24        0.894933      0.894888   1.000000   1.000000
   25        1.120168      1.120108   1.000000   1.000000
   26        1.615241      1.615194   1.000000   1.000000
   27        2.062547      2.062487   1.000000   1.000000
   28        2.497048      2.497008   1.000000   1.000000
   29        9.103273      9.103278   0.000000   0.000000
   30        9.494807      9.494820   0.000000   0.000000
   31       10.066033     10.065986   0.000000   0.000000
   32       10.287978     10.287994   0.000000   0.000000
   33       10.810598     10.810469   0.000000   0.000000
   34       11.071304     11.071288   0.000000   0.000000
   35       11.871312     11.871282   0.000000   0.000000
   36       11.977194     11.977283   0.000000   0.000000
   37       12.371634     12.371505   0.000000   0.000000
   38       13.330906     13.331541   0.000000   0.000000
   39       13.607624     13.609229   0.000000   0.000000
   40       14.023363     14.027550   0.000000   0.000000
 
 -0.2857143E+00  0.1428571E+00  0.0000000E+00  0.1166181E-01
    1      -40.492290    -40.492087   1.000000   1.000000
    2      -40.478473    -40.478270   1.000000   1.000000
    3      -40.474617    -40.474414   1.000000   1.000000
    4      -40.471459    -40.471255   1.000000   1.000000
    5      -17.069627    -17.069678   1.000000   1.000000
    6      -16.512159    -16.512221   1.000000   1.000000
    7      -15.172011    -15.172085   1.000000   1.000000
    8      -15.082946    -15.083023   1.000000   1.000000
    9      -12.961358    -12.961412   1.000000   1.000000
   10      -11.363988    -11.364043   1.000000   1.000000
   11       -7.146526     -7.146554   1.000000   1.000000
   12       -3.877327     -3.877350   1.000000   1.000000
   13       -3.625983     -3.626021   1.000000   1.000000
   14       -3.117474     -3.117505   1.000000   1.000000
   15       -2.783714     -2.783751   1.000000   1.000000
   16       -1.962572     -1.962621   1.000000   1.000000
   17       -1.020996     -1.021025   1.000000   1.000000
   18       -0.777652     -0.777681   1.000000   1.000000
   19       -0.173198     -0.173235   1.000000   1.000000
   20        0.167213      0.167175   1.000000   1.000000
   21        0.287077      0.287035   1.000000   1.000000
   22        0.521781      0.521739   1.000000   1.000000
   23        0.898512      0.898460   1.000000   1.000000
   24        1.024930      1.024873   1.000000   1.000000
   25        1.168678      1.168623   1.000000   1.000000
   26        1.727088      1.727037   1.000000   1.000000
   27        1.941328      1.941275   1.000000   1.000000
   28        2.495234      2.495195   1.000000   1.000000
   29        8.642867      8.642885   0.000000   0.000000
   30        9.449717      9.449740   0.000000   0.000000
   31        9.907557      9.907581   0.000000   0.000000
   32       10.597568     10.597588   0.000000   0.000000
   33       11.124140     11.124123   0.000000   0.000000
   34       11.177735     11.177672   0.000000   0.000000
   35       11.892106     11.892032   0.000000   0.000000
   36       12.482667     12.483081   0.000000   0.000000
   37       12.696091     12.694797   0.000000   0.000000
   38       13.271673     13.269158   0.000000   0.000000
   39       13.602642     13.608712   0.000000   0.000000
   40       13.988845     14.077307   0.000000   0.000000
 
 -0.1428571E+00  0.1428571E+00  0.0000000E+00  0.5830904E-02
    1      -40.493503    -40.493300   1.000000   1.000000
    2      -40.475848    -40.475645   1.000000   1.000000
    3      -40.475253    -40.475050   1.000000   1.000000
    4      -40.472297    -40.472094   1.000000   1.000000
    5      -17.100484    -17.100534   1.000000   1.000000
    6      -16.487939    -16.488002   1.000000   1.000000
    7      -15.148572    -15.148647   1.000000   1.000000
    8      -15.088439    -15.088517   1.000000   1.000000
    9      -12.953124    -12.953179   1.000000   1.000000
   10      -11.366777    -11.366832   1.000000   1.000000
   11       -7.137469     -7.137498   1.000000   1.000000
   12       -3.888100     -3.888128   1.000000   1.000000
   13       -3.693579     -3.693610   1.000000   1.000000
   14       -3.070653     -3.070684   1.000000   1.000000
   15       -2.956108     -2.956142   1.000000   1.000000
   16       -1.926467     -1.926519   1.000000   1.000000
   17       -0.997769     -0.997802   1.000000   1.000000
   18       -0.953830     -0.953852   1.000000   1.000000
   19       -0.151827     -0.151865   1.000000   1.000000
   20        0.103462      0.103428   1.000000   1.000000
   21        0.317282      0.317243   1.000000   1.000000
   22        0.758397      0.758344   1.000000   1.000000
   23        0.987645      0.987587   1.000000   1.000000
   24        1.061360      1.061297   1.000000   1.000000
   25        1.198796      1.198748   1.000000   1.000000
   26        1.799677      1.799623   1.000000   1.000000
   27        1.880171      1.880124   1.000000   1.000000
   28        2.506798      2.506760   1.000000   1.000000
   29        8.246251      8.246276  -0.000000  -0.000000
   30        9.411840      9.411855   0.000000   0.000000
   31        9.753391      9.753342   0.000000   0.000000
   32       10.977447     10.977464   0.000000   0.000000
   33       11.128359     11.127593   0.000000   0.000000
   34       11.430752     11.430738   0.000000   0.000000
   35       11.993190     11.993385   0.000000   0.000000
   36       12.671098     12.670829   0.000000   0.000000
   37       13.060014     13.064542   0.000000   0.000000
   38       13.429235     13.496346   0.000000   0.000000
   39       13.536072     13.556067   0.000000   0.000000
   40       14.153485     14.188636   0.000000   0.000000
 
  0.2857143E+00  0.2857143E+00  0.0000000E+00  0.5830904E-02
    1      -40.486648    -40.486445   1.000000   1.000000
    2      -40.485722    -40.485519   1.000000   1.000000
    3      -40.474168    -40.473965   1.000000   1.000000
    4      -40.470266    -40.470062   1.000000   1.000000
    5      -16.984831    -16.984884   1.000000   1.000000
    6      -16.597801    -16.597862   1.000000   1.000000
    7      -15.205409    -15.205482   1.000000   1.000000
    8      -15.071994    -15.072071   1.000000   1.000000
    9      -12.964747    -12.964802   1.000000   1.000000
   10      -11.361101    -11.361155   1.000000   1.000000
   11       -7.148282     -7.148310   1.000000   1.000000
   12       -3.933258     -3.933277   1.000000   1.000000
   13       -3.375808     -3.375849   1.000000   1.000000
   14       -3.244801     -3.244840   1.000000   1.000000
   15       -2.574936     -2.574976   1.000000   1.000000
   16       -2.075082     -2.075127   1.000000   1.000000
   17       -0.725236     -0.725275   1.000000   1.000000
   18       -0.513791     -0.513828   1.000000   1.000000
   19       -0.288375     -0.288400   1.000000   1.000000
   20        0.068648      0.068612   1.000000   1.000000
   21        0.136954      0.136908   1.000000   1.000000
   22        0.583752      0.583714   1.000000   1.000000
   23        0.594616      0.594578   1.000000   1.000000
   24        0.875071      0.875025   1.000000   1.000000
   25        1.129111      1.129049   1.000000   1.000000
   26        1.512576      1.512535   1.000000   1.000000
   27        2.152310      2.152246   1.000000   1.000000
   28        2.525014      2.524970   1.000000   1.000000
   29        9.275766      9.275818   0.000000   0.000000
   30        9.335704      9.335697   0.000000   0.000000
   31       10.072567     10.072560   0.000000   0.000000
   32       10.374957     10.374989   0.000000   0.000000
   33       10.520135     10.520064   0.000000   0.000000
   34       11.414607     11.414672   0.000000   0.000000
   35       11.566370     11.566379   0.000000   0.000000
   36       11.774747     11.774784   0.000000   0.000000
   37       12.487791     12.488859   0.000000   0.000000
   38       12.653620     12.653502   0.000000   0.000000
   39       13.412251     13.412414   0.000000   0.000000
   40       14.528152     14.513275   0.000000   0.000000
 
  0.4285714E+00  0.2857143E+00  0.0000000E+00  0.1166181E-01
    1      -40.488397    -40.488195   1.000000   1.000000
    2      -40.483341    -40.483138   1.000000   1.000000
    3      -40.474699    -40.474495   1.000000   1.000000
    4      -40.470338    -40.470135   1.000000   1.000000
    5      -16.998414    -16.998467   1.000000   1.000000
    6      -16.570336    -16.570396   1.000000   1.000000
    7      -15.230344    -15.230417   1.000000   1.000000
    8      -15.059944    -15.060021   1.000000   1.000000
    9      -12.974679    -12.974734   1.000000   1.000000
   10      -11.359649    -11.359704   1.000000   1.000000
   11       -7.160676     -7.160704   1.000000   1.000000
   12       -3.903950     -3.903969   1.000000   1.000000
   13       -3.358821     -3.358874   1.000000   1.000000
   14       -3.224761     -3.224792   1.000000   1.000000
   15       -2.470157     -2.470199   1.000000   1.000000
   16       -2.058260     -2.058306   1.000000   1.000000
   17       -0.785990     -0.786024   1.000000   1.000000
   18       -0.649465     -0.649495   1.000000   1.000000
   19       -0.380523     -0.380546   1.000000   1.000000
   20       -0.060762     -0.060804   1.000000   1.000000
   21        0.201391      0.201348   1.000000   1.000000
   22        0.601848      0.601811   1.000000   1.000000
   23        0.773832      0.773790   1.000000   1.000000
   24        0.821204      0.821157   1.000000   1.000000
   25        1.165621      1.165559   1.000000   1.000000
   26        1.566195      1.566150   1.000000   1.000000
   27        2.072328      2.072268   1.000000   1.000000
   28        2.515477      2.515433   1.000000   1.000000
   29        9.299248      9.299281   0.000000   0.000000
   30        9.526300      9.526306   0.000000   0.000000
   31        9.868198      9.868208   0.000000   0.000000
   32       10.292239     10.292252   0.000000   0.000000
   33       10.633484     10.633332   0.000000   0.000000
   34       11.167147     11.167149   0.000000   0.000000
   35       11.698349     11.698425   0.000000   0.000000
   36       12.008519     12.008589   0.000000   0.000000
   37       12.522057     12.524994   0.000000   0.000000
   38       13.057514     13.054032   0.000000   0.000000
   39       13.499604     13.503684   0.000000   0.000000
   40       14.381475     14.500340   0.000000   0.000000
 
 -0.4285714E+00  0.2857143E+00  0.0000000E+00  0.1166181E-01
    1      -40.490601    -40.490399   1.000000   1.000000
    2      -40.479997    -40.479794   1.000000   1.000000
    3      -40.475538    -40.475335   1.000000   1.000000
    4      -40.470664    -40.470461   1.000000   1.000000
    5      -17.034438    -17.034489   1.000000   1.000000
    6      -16.527716    -16.527778   1.000000   1.000000
    7      -15.231163    -15.231236   1.000000   1.000000
    8      -15.056883    -15.056961   1.000000   1.000000
    9      -12.978174    -12.978229   1.000000   1.000000
   10      -11.359987    -11.360042   1.000000   1.000000
   11       -7.164930     -7.164957   1.000000   1.000000
   12       -3.875992     -3.876010   1.000000   1.000000
   13       -3.477764     -3.477813   1.000000   1.000000
   14       -3.128919     -3.128952   1.000000   1.000000
   15       -2.520762     -2.520804   1.000000   1.000000
   16       -2.005168     -2.005214   1.000000   1.000000
   17       -0.908896     -0.908927   1.000000   1.000000
   18       -0.767385     -0.767411   1.000000   1.000000
   19       -0.286513     -0.286544   1.000000   1.000000