 running on   12 total cores
 distrk:  each k-point on   12 cores,    1 groups
 distr:  one band on    6 cores,    2 groups
 using from now: INCAR     
 vasp.6.1.2 22Jul20 (build Mar 20 2021 11:25:07) complex                        
  
 POSCAR found type information on POSCAR LiP N O 
 POSCAR found :  4 types and      12 ions
 scaLAPACK will be used
 LDA part: xc-table for Pade appr. of Perdew
 generate k-points for:    7    7    7
 POSCAR, INCAR and KPOINTS ok, starting setup
 FFT: planning ...
 WAVECAR not read
 entering main loop
       N       E                     dE             d eps       ncg     rms          rms(c)
DAV:   1     0.415826345571E+03    0.41583E+03   -0.27150E+04 10240   0.145E+03
DAV:   2    -0.424801890448E+02   -0.45831E+03   -0.43806E+03 11800   0.367E+02
DAV:   3    -0.810524642724E+02   -0.38572E+02   -0.38373E+02 15016   0.100E+02
DAV:   4    -0.845212114509E+02   -0.34687E+01   -0.34551E+01 17024   0.234E+01
DAV:   5    -0.847638507632E+02   -0.24264E+00   -0.24262E+00 14272   0.471E+00    0.316E+01
RMM:   6    -0.768883543025E+02    0.78755E+01   -0.30307E+01 10919   0.226E+01    0.129E+01
RMM:   7    -0.774106419703E+02   -0.52229E+00   -0.43534E+00 15181   0.964E+00    0.672E+00
RMM:   8    -0.775761499483E+02   -0.16551E+00   -0.85418E-01 16747   0.464E+00    0.355E+00
RMM:   9    -0.776104407553E+02   -0.34291E-01   -0.25965E-01 16456   0.302E+00    0.989E-01
RMM:  10    -0.776363584439E+02   -0.25918E-01   -0.18733E-01 18909   0.183E+00    0.356E-01
RMM:  11    -0.776461500579E+02   -0.97916E-02   -0.83140E-02 19495   0.108E+00    0.256E-01
RMM:  12    -0.776506650301E+02   -0.45150E-02   -0.33536E-02 19890   0.688E-01    0.165E-01
RMM:  13    -0.776525217280E+02   -0.18567E-02   -0.13901E-02 19608   0.443E-01    0.664E-02
RMM:  14    -0.776532453865E+02   -0.72366E-03   -0.57374E-03 19617   0.309E-01    0.356E-02
RMM:  15    -0.776535387668E+02   -0.29338E-03   -0.27221E-03 19245   0.192E-01    0.262E-02
RMM:  16    -0.776536512588E+02   -0.11249E-03   -0.10711E-03 19006   0.127E-01    0.158E-02
RMM:  17    -0.776536953450E+02   -0.44086E-04   -0.49076E-04 18612   0.863E-02    0.801E-03
RMM:  18    -0.776537246747E+02   -0.29330E-04   -0.23155E-04 18046   0.611E-02    0.692E-03
RMM:  19    -0.776537310942E+02   -0.64194E-05   -0.70096E-05 14635   0.416E-02
   1 F= -.77653731E+02 E0= -.77653731E+02  d E =0.000000E+00  mag=    -0.0000
