 running on   12 total cores
 distrk:  each k-point on   12 cores,    1 groups
 distr:  one band on    6 cores,    2 groups
 using from now: INCAR     
 vasp.6.1.2 22Jul20 (build Mar 20 2021 11:25:07) complex                        
  
 POSCAR found type information on POSCAR LiP 
 POSCAR found :  2 types and      16 ions
 scaLAPACK will be used
 LDA part: xc-table for Pade appr. of Perdew
 generate k-points for:    6    6    4
 POSCAR, INCAR and KPOINTS ok, starting setup
 FFT: planning ...
 WAVECAR not read
 entering main loop
       N       E                     dE             d eps       ncg     rms          rms(c)
DAV:   1     0.399383397522E+03    0.39938E+03   -0.25869E+04 10304   0.136E+03
DAV:   2    -0.396475911856E+01   -0.40335E+03   -0.37107E+03 11740   0.325E+02
DAV:   3    -0.558502342122E+02   -0.51885E+02   -0.51234E+02 14754   0.904E+01
DAV:   4    -0.633164381570E+02   -0.74662E+01   -0.73994E+01 18576   0.338E+01
DAV:   5    -0.641231963804E+02   -0.80676E+00   -0.80645E+00 15040   0.779E+00    0.208E+01
DAV:   6    -0.654629866639E+02   -0.13398E+01   -0.28026E+00 13784   0.640E+00    0.110E+01
DAV:   7    -0.667327200094E+02   -0.12697E+01   -0.72066E-01 12754   0.408E+00    0.573E+00
DAV:   8    -0.669682946743E+02   -0.23557E+00   -0.63423E-01 13322   0.300E+00    0.123E+00
DAV:   9    -0.669974705881E+02   -0.29176E-01   -0.81193E-02 15496   0.112E+00    0.481E-01
DAV:  10    -0.670012447856E+02   -0.37742E-02   -0.66488E-03 13218   0.387E-01    0.200E-01
DAV:  11    -0.670026679093E+02   -0.14231E-02   -0.19095E-03 12770   0.210E-01    0.937E-02
DAV:  12    -0.670029476527E+02   -0.27974E-03   -0.63234E-04 13000   0.105E-01    0.401E-02
DAV:  13    -0.670029936168E+02   -0.45964E-04   -0.93598E-05 11938   0.524E-02    0.205E-02
DAV:  14    -0.670030069083E+02   -0.13291E-04   -0.29799E-05 10274   0.286E-02    0.576E-03
DAV:  15    -0.670030084857E+02   -0.15774E-05   -0.43371E-06  7126   0.133E-02
   1 F= -.67003008E+02 E0= -.67003008E+02  d E =0.000000E+00  mag=    -0.0003
