 running on    8 total cores
 distrk:  each k-point on    8 cores,    1 groups
 distr:  one band on    1 cores,    8 groups
 using from now: INCAR     
 vasp.6.1.2 22Jul20 (build Mar 20 2021 11:25:07) complex                        
  
 POSCAR found type information on POSCAR LiP O 
 POSCAR found :  3 types and      16 ions
 scaLAPACK will be used
 -----------------------------------------------------------------------------
|                                                                             |
|           W    W    AA    RRRRR   N    N  II  N    N   GGGG   !!!           |
|           W    W   A  A   R    R  NN   N  II  NN   N  G    G  !!!           |
|           W    W  A    A  R    R  N N  N  II  N N  N  G       !!!           |
|           W WW W  AAAAAA  RRRRR   N  N N  II  N  N N  G  GGG   !            |
|           WW  WW  A    A  R   R   N   NN  II  N   NN  G    G                |
|           W    W  A    A  R    R  N    N  II  N    N   GGGG   !!!           |
|                                                                             |
|     The value NCORE = 6 specified in the INCAR file was overwritten,        |
|     because it was not compatible with the 8 processes available:           |
|     NCORE = 1                                                               |
|     was used instead, please check that this makes sense for your           |
|     machine.                                                                |
|                                                                             |
 -----------------------------------------------------------------------------

 -----------------------------------------------------------------------------
|                                                                             |
|           W    W    AA    RRRRR   N    N  II  N    N   GGGG   !!!           |
|           W    W   A  A   R    R  NN   N  II  NN   N  G    G  !!!           |
|           W    W  A    A  R    R  N N  N  II  N N  N  G       !!!           |
|           W WW W  AAAAAA  RRRRR   N  N N  II  N  N N  G  GGG   !            |
|           WW  WW  A    A  R   R   N   NN  II  N   NN  G    G                |
|           W    W  A    A  R    R  N    N  II  N    N   GGGG   !!!           |
|                                                                             |
|     For optimal performance we recommend to set                             |
|       NCORE = 4 - approx SQRT(number of cores).                             |
|     NCORE specifies how many cores store one orbital (NPAR=cpu/NCORE).      |
|     This setting can greatly improve the performance of VASP for DFT.       |
|     The default, NCORE=1 might be grossly inefficient on modern             |
|     multi-core architectures or massively parallel machines. Do your        |
|     own testing!!!!                                                         |
|     Unfortunately you need to use the default for GW and RPA                |
|     calculations (for HF NCORE is supported but not extensively tested      |
|     yet).                                                                   |
|                                                                             |
 -----------------------------------------------------------------------------

 LDA part: xc-table for Pade appr. of Perdew
 generate k-points for:    7    6    5
 POSCAR, INCAR and KPOINTS ok, starting setup
 FFT: planning ...
 WAVECAR not read
 entering main loop
       N       E                     dE             d eps       ncg     rms          rms(c)
DAV:   1     0.601794016840E+03    0.60179E+03   -0.36396E+04 14784   0.142E+03
DAV:   2    -0.446750104307E+02   -0.64647E+03   -0.60998E+03 16976   0.373E+02
DAV:   3    -0.102676132683E+03   -0.58001E+02   -0.57660E+02 20384   0.105E+02
DAV:   4    -0.108000749713E+03   -0.53246E+01   -0.52905E+01 25072   0.263E+01
DAV:   5    -0.108480983452E+03   -0.48023E+00   -0.48009E+00 20872   0.548E+00    0.372E+01
RMM:   6    -0.985606771150E+02    0.99203E+01   -0.38304E+01 16149   0.219E+01    0.149E+01
RMM:   7    -0.996049999380E+02   -0.10443E+01   -0.38260E+00 21297   0.754E+00    0.793E+00
RMM:   8    -0.998009922028E+02   -0.19599E+00   -0.86730E-01 23931   0.393E+00    0.394E+00
RMM:   9    -0.998729642722E+02   -0.71972E-01   -0.31460E-01 24193   0.279E+00    0.830E-01
RMM:  10    -0.999015293141E+02   -0.28565E-01   -0.21859E-01 27648   0.162E+00    0.361E-01
RMM:  11    -0.999155415559E+02   -0.14012E-01   -0.96573E-02 28380   0.100E+00    0.283E-01
RMM:  12    -0.999216218510E+02   -0.60803E-02   -0.39489E-02 28656   0.620E-01    0.160E-01
RMM:  13    -0.999238256894E+02   -0.22038E-02   -0.15514E-02 28090   0.417E-01    0.706E-02
RMM:  14    -0.999247610850E+02   -0.93540E-03   -0.76793E-03 28472   0.288E-01    0.329E-02
RMM:  15    -0.999251298438E+02   -0.36876E-03   -0.33513E-03 27918   0.182E-01    0.245E-02
RMM:  16    -0.999252933286E+02   -0.16348E-03   -0.15292E-03 27587   0.122E-01    0.141E-02
RMM:  17    -0.999253684165E+02   -0.75088E-04   -0.64595E-04 26900   0.842E-02    0.953E-03
RMM:  18    -0.999253998696E+02   -0.31453E-04   -0.31153E-04 26336   0.562E-02    0.654E-03
RMM:  19    -0.999254099927E+02   -0.10123E-04   -0.12512E-04 25324   0.403E-02    0.754E-03
RMM:  20    -0.999254164361E+02   -0.64433E-05   -0.42909E-05 20575   0.297E-02
   1 F= -.99925416E+02 E0= -.99925416E+02  d E =0.000000E+00  mag=    -0.0000
