 running on   48 total cores
 distrk:  each k-point on   48 cores,    1 groups
 distr:  one band on    6 cores,    8 groups
 using from now: INCAR     
 vasp.6.1.2 22Jul20 (build Mar 31 2021 18:09:49) complex                        
  
 POSCAR found type information on POSCAR LiP N 
 POSCAR found :  3 types and      96 ions
 scaLAPACK will be used
 LDA part: xc-table for Pade appr. of Perdew
 generate k-points for:    3    3    3
 POSCAR, INCAR and KPOINTS ok, starting setup
 FFT: planning ...
 WAVECAR not read
 entering main loop
       N       E                     dE             d eps       ncg     rms          rms(c)
DAV:   1     0.348499141876E+04    0.34850E+04   -0.15350E+05  8448   0.156E+03
DAV:   2     0.321877541375E+02   -0.34528E+04   -0.31095E+04  8992   0.436E+02
DAV:   3    -0.449621117320E+03   -0.48181E+03   -0.47541E+03 11368   0.145E+02
DAV:   4    -0.518945147407E+03   -0.69324E+02   -0.68598E+02 15080   0.474E+01
DAV:   5    -0.525842885223E+03   -0.68977E+01   -0.68924E+01 13360   0.125E+01    0.736E+01
RMM:   6    -0.470331976342E+03    0.55511E+02   -0.20737E+02 10169   0.208E+01    0.320E+01
RMM:   7    -0.483692787008E+03   -0.13361E+02   -0.46546E+01 13491   0.121E+01    0.172E+01
RMM:   8    -0.486274076057E+03   -0.25813E+01   -0.11577E+01 15167   0.562E+00    0.910E+00
RMM:   9    -0.487085847481E+03   -0.81177E+00   -0.54294E+00 13775   0.434E+00    0.308E+00
RMM:  10    -0.487162097044E+03   -0.76250E-01   -0.22097E+00 15080   0.281E+00    0.164E+00
RMM:  11    -0.487257446031E+03   -0.95349E-01   -0.13826E+00 15684   0.163E+00    0.128E+00
RMM:  12    -0.487331175132E+03   -0.73729E-01   -0.65469E-01 15981   0.107E+00    0.106E+00
RMM:  13    -0.487363791808E+03   -0.32617E-01   -0.27282E-01 15547   0.725E-01    0.501E-01
RMM:  14    -0.487377480268E+03   -0.13688E-01   -0.12081E-01 15964   0.521E-01    0.914E-02
RMM:  15    -0.487384891050E+03   -0.74108E-02   -0.68667E-02 16000   0.358E-01    0.766E-02
RMM:  16    -0.487388404456E+03   -0.35134E-02   -0.31980E-02 16000   0.250E-01    0.757E-02
RMM:  17    -0.487390198441E+03   -0.17940E-02   -0.17664E-02 14755   0.180E-01    0.452E-02
RMM:  18    -0.487391113317E+03   -0.91488E-03   -0.95500E-03 14490   0.134E-01    0.265E-02
RMM:  19    -0.487391721922E+03   -0.60860E-03   -0.57039E-03 14206   0.103E-01    0.200E-02
RMM:  20    -0.487392085071E+03   -0.36315E-03   -0.34380E-03 14208   0.780E-02    0.223E-02
RMM:  21    -0.487392304455E+03   -0.21938E-03   -0.21231E-03 14148   0.593E-02    0.264E-02
RMM:  22    -0.487392450946E+03   -0.14649E-03   -0.13302E-03 13423   0.457E-02    0.347E-02
RMM:  23    -0.487392506382E+03   -0.55436E-04   -0.83447E-04 13528   0.372E-02    0.158E-02
RMM:  24    -0.487392555516E+03   -0.49135E-04   -0.52798E-04 11128   0.288E-02    0.121E-02
RMM:  25    -0.487392587546E+03   -0.32029E-04   -0.37402E-04 11840   0.251E-02    0.965E-03
RMM:  26    -0.487392606459E+03   -0.18913E-04   -0.26036E-04 11550   0.215E-02    0.103E-02
RMM:  27    -0.487392616732E+03   -0.10272E-04   -0.18834E-04 11392   0.190E-02    0.157E-02
RMM:  28    -0.487392628266E+03   -0.11534E-04   -0.12443E-04 10446   0.162E-02    0.149E-02
RMM:  29    -0.487392636107E+03   -0.78414E-05   -0.90370E-05 10246   0.146E-02
   1 F= -.48739264E+03 E0= -.48739264E+03  d E =0.000000E+00  mag=     0.0000
