Automatically generated mesh
     511
Reciprocal lattice
    0.00000000000000    0.00000000000000    0.00000000000000             1
    0.07692307692308   -0.00000000000000    0.00000000000001             2
    0.15384615384615   -0.00000000000000   -0.00000000000000             2
    0.23076923076923   -0.00000000000000    0.00000000000001             2
    0.30769230769231   -0.00000000000000   -0.00000000000000             2
    0.38461538461539   -0.00000000000000    0.00000000000000             2
    0.46153846153846    0.00000000000000   -0.00000000000000             2
   -0.00000000000000    0.08333333333334   -0.00000000000000             4
    0.07692307692308    0.08333333333334    0.00000000000000             4
    0.15384615384615    0.08333333333334   -0.00000000000001             4
    0.23076923076923    0.08333333333334    0.00000000000000             4
    0.30769230769231    0.08333333333334    0.00000000000000             4
    0.38461538461539    0.08333333333334   -0.00000000000000             4
    0.46153846153846    0.08333333333334    0.00000000000000             4
   -0.46153846153846    0.08333333333334   -0.00000000000000             4
   -0.38461538461539    0.08333333333334    0.00000000000000             4
   -0.30769230769231    0.08333333333334   -0.00000000000000             4
   -0.23076923076923    0.08333333333334    0.00000000000000             4
   -0.15384615384615    0.08333333333334   -0.00000000000000             4
   -0.07692307692308    0.08333333333334   -0.00000000000000             4
    0.00000000000000    0.16666666666666    0.00000000000000             4
    0.07692307692308    0.16666666666666    0.00000000000000             4
    0.15384615384615    0.16666666666666    0.00000000000000             4
    0.23076923076923    0.16666666666666   -0.00000000000000             4
    0.30769230769231    0.16666666666666    0.00000000000000             4
    0.38461538461539    0.16666666666666   -0.00000000000000             4
    0.46153846153846    0.16666666666666    0.00000000000000             4
   -0.46153846153846    0.16666666666666    0.00000000000000             4
   -0.38461538461539    0.16666666666666    0.00000000000000             4
   -0.30769230769231    0.16666666666666   -0.00000000000000             4
   -0.23076923076923    0.16666666666666   -0.00000000000000             4
   -0.15384615384615    0.16666666666666   -0.00000000000000             4
   -0.07692307692308    0.16666666666666   -0.00000000000000             4
    0.00000000000000    0.25000000000000    0.00000000000000             4
    0.07692307692308    0.25000000000000    0.00000000000001             4
    0.15384615384615    0.25000000000000   -0.00000000000000             4
    0.23076923076923    0.25000000000000    0.00000000000001             4
    0.30769230769231    0.25000000000000   -0.00000000000000             4
    0.38461538461539    0.25000000000000    0.00000000000000             4
    0.46153846153846    0.25000000000000   -0.00000000000000             4
   -0.46153846153846    0.25000000000000    0.00000000000000             4
   -0.38461538461539    0.25000000000000   -0.00000000000000             4
   -0.30769230769231    0.25000000000000    0.00000000000000             4
   -0.23076923076923    0.25000000000000    0.00000000000000             4
   -0.15384615384615    0.25000000000000    0.00000000000000             4
   -0.07692307692308    0.25000000000000    0.00000000000000             4
    0.00000000000000    0.33333333333334   -0.00000000000000             4
    0.07692307692308    0.33333333333334    0.00000000000000             4
    0.15384615384615    0.33333333333334   -0.00000000000001             4
    0.23076923076923    0.33333333333334    0.00000000000000             4
    0.30769230769231    0.33333333333334    0.00000000000000             4
    0.38461538461539    0.33333333333334   -0.00000000000000             4
    0.46153846153846    0.33333333333334    0.00000000000000             4
   -0.46153846153846    0.33333333333334   -0.00000000000000             4
   -0.38461538461539    0.33333333333334    0.00000000000000             4
   -0.30769230769231    0.33333333333334   -0.00000000000000             4
   -0.23076923076923    0.33333333333334    0.00000000000000             4
   -0.15384615384615    0.33333333333334   -0.00000000000000             4
   -0.07692307692308    0.33333333333334   -0.00000000000000             4
    0.00000000000000    0.41666666666666    0.00000000000000             4
    0.07692307692308    0.41666666666666    0.00000000000000             4
    0.15384615384615    0.41666666666666    0.00000000000000             4
    0.23076923076923    0.41666666666666   -0.00000000000000             4
    0.30769230769231    0.41666666666666    0.00000000000000             4
    0.38461538461539    0.41666666666666   -0.00000000000000             4
    0.46153846153846    0.41666666666666    0.00000000000000             4
   -0.46153846153846    0.41666666666666    0.00000000000000             4
   -0.38461538461539    0.41666666666666    0.00000000000000             4
   -0.30769230769231    0.41666666666666   -0.00000000000000             4
   -0.23076923076923    0.41666666666666   -0.00000000000000             4
   -0.15384615384615    0.41666666666666   -0.00000000000000             4
   -0.07692307692308    0.41666666666666   -0.00000000000000             4
    0.00000000000000    0.50000000000000    0.00000000000000             2
    0.07692307692308    0.50000000000000    0.00000000000001             4
    0.15384615384615    0.50000000000000   -0.00000000000000             4
    0.23076923076923    0.50000000000000    0.00000000000001             4
    0.30769230769231    0.50000000000000   -0.00000000000000             4
    0.38461538461539    0.50000000000000    0.00000000000000             4
    0.46153846153846    0.50000000000000   -0.00000000000000             4
    0.00000000000000    0.08333333333334    0.08333333333334             2
    0.07692307692308    0.08333333333334    0.08333333333333             2
    0.15384615384615    0.08333333333334    0.08333333333333             2
    0.23076923076923    0.08333333333334    0.08333333333333             2
    0.30769230769231    0.08333333333334    0.08333333333333             2
    0.38461538461539    0.08333333333334    0.08333333333333             2
    0.46153846153846    0.08333333333334    0.08333333333333             2
   -0.46153846153846    0.08333333333334    0.08333333333334             2
   -0.38461538461539    0.08333333333334    0.08333333333333             2
   -0.30769230769231    0.08333333333334    0.08333333333334             2
   -0.23076923076923    0.08333333333334    0.08333333333333             2
   -0.15384615384615    0.08333333333334    0.08333333333334             2
   -0.07692307692308    0.08333333333334    0.08333333333333             2
    0.00000000000000    0.16666666666666    0.08333333333333             4
    0.07692307692308    0.16666666666666    0.08333333333333             4
    0.15384615384615    0.16666666666666    0.08333333333333             4
    0.23076923076923    0.16666666666666    0.08333333333333             4
    0.30769230769231    0.16666666666666    0.08333333333333             4
    0.38461538461539    0.16666666666666    0.08333333333334             4
    0.46153846153846    0.16666666666666    0.08333333333333             4
   -0.46153846153846    0.16666666666666    0.08333333333333             4
   -0.38461538461539    0.16666666666666    0.08333333333333             4
   -0.30769230769231    0.16666666666666    0.08333333333334             4
   -0.23076923076923    0.16666666666666    0.08333333333334             4
   -0.15384615384615    0.16666666666666    0.08333333333334             4
   -0.07692307692308    0.16666666666666    0.08333333333334             4
    0.00000000000000    0.25000000000000    0.08333333333333             4
    0.07692307692308    0.25000000000000    0.08333333333334             4
    0.15384615384615    0.25000000000000    0.08333333333333             4
    0.23076923076923    0.25000000000000    0.08333333333333             4
    0.30769230769231    0.25000000000000    0.08333333333334             4
    0.38461538461539    0.25000000000000    0.08333333333333             4
    0.46153846153846    0.25000000000000    0.08333333333334             4
   -0.46153846153846    0.25000000000000    0.08333333333333             4
   -0.38461538461539    0.25000000000000    0.08333333333334             4
   -0.30769230769231    0.25000000000000    0.08333333333333             4
   -0.23076923076923    0.25000000000000    0.08333333333333             4
   -0.15384615384615    0.25000000000000    0.08333333333333             4
   -0.07692307692308    0.25000000000000    0.08333333333333             4
    0.00000000000000    0.33333333333334    0.08333333333334             4
    0.07692307692308    0.33333333333334    0.08333333333333             4
    0.15384615384615    0.33333333333334    0.08333333333333             4
    0.23076923076923    0.33333333333334    0.08333333333333             4
    0.30769230769231    0.33333333333334    0.08333333333333             4
    0.38461538461539    0.33333333333334    0.08333333333333             4
    0.46153846153846    0.33333333333334    0.08333333333333             4
   -0.46153846153846    0.33333333333334    0.08333333333334             4
   -0.38461538461539    0.33333333333334    0.08333333333333             4
   -0.30769230769231    0.33333333333334    0.08333333333334             4
   -0.23076923076923    0.33333333333334    0.08333333333333             4
   -0.15384615384615    0.33333333333334    0.08333333333334             4
   -0.07692307692308    0.33333333333334    0.08333333333333             4
   -0.00000000000000    0.41666666666666    0.08333333333333             4
    0.07692307692308    0.41666666666666    0.08333333333333             4
    0.15384615384615    0.41666666666666    0.08333333333333             4
    0.23076923076923    0.41666666666666    0.08333333333333             4
    0.30769230769231    0.41666666666666    0.08333333333333             4
    0.38461538461539    0.41666666666666    0.08333333333334             4
    0.46153846153846    0.41666666666666    0.08333333333333             4
   -0.46153846153846    0.41666666666666    0.08333333333333             4
   -0.38461538461539    0.41666666666666    0.08333333333333             4
   -0.30769230769231    0.41666666666666    0.08333333333334             4
   -0.23076923076923    0.41666666666666    0.08333333333334             4
   -0.15384615384615    0.41666666666666    0.08333333333334             4
   -0.07692307692308    0.41666666666666    0.08333333333334             4
   -0.00000000000000    0.50000000000000    0.08333333333333             4
    0.07692307692308    0.50000000000000    0.08333333333334             4
    0.15384615384615    0.50000000000000    0.08333333333333             4
    0.23076923076923    0.50000000000000    0.08333333333333             4
    0.30769230769231    0.50000000000000    0.08333333333334             4
    0.38461538461539    0.50000000000000    0.08333333333333             4
    0.46153846153846    0.50000000000000    0.08333333333334             4
   -0.46153846153846    0.50000000000000    0.08333333333333             4
   -0.38461538461539    0.50000000000000    0.08333333333334             4
   -0.30769230769231    0.50000000000000    0.08333333333333             4
   -0.23076923076923    0.50000000000000    0.08333333333333             4
   -0.15384615384615    0.50000000000000    0.08333333333333             4
   -0.07692307692308    0.50000000000000    0.08333333333333             4
   -0.00000000000000   -0.41666666666666    0.08333333333334             4
    0.07692307692308   -0.41666666666666    0.08333333333333             4
    0.15384615384615   -0.41666666666666    0.08333333333333             4
    0.23076923076923   -0.41666666666666    0.08333333333333             4
    0.30769230769231   -0.41666666666666    0.08333333333333             4
    0.38461538461539   -0.41666666666666    0.08333333333333             4
    0.46153846153846   -0.41666666666666    0.08333333333333             4
   -0.46153846153846   -0.41666666666666    0.08333333333334             4
   -0.38461538461539   -0.41666666666666    0.08333333333333             4
   -0.30769230769231   -0.41666666666666    0.08333333333334             4
   -0.23076923076923   -0.41666666666666    0.08333333333333             4
   -0.15384615384615   -0.41666666666666    0.08333333333334             4
   -0.07692307692308   -0.41666666666666    0.08333333333333             4
    0.00000000000000   -0.33333333333334    0.08333333333333             4
    0.07692307692308   -0.33333333333334    0.08333333333333             4
    0.15384615384615   -0.33333333333334    0.08333333333333             4
    0.23076923076923   -0.33333333333334    0.08333333333333             4
    0.30769230769231   -0.33333333333334    0.08333333333333             4
    0.38461538461539   -0.33333333333334    0.08333333333334             4
    0.46153846153846   -0.33333333333334    0.08333333333333             4
   -0.46153846153846   -0.33333333333334    0.08333333333333             4
   -0.38461538461539   -0.33333333333334    0.08333333333333             4
   -0.30769230769231   -0.33333333333334    0.08333333333334             4
   -0.23076923076923   -0.33333333333334    0.08333333333334             4
   -0.15384615384615   -0.33333333333334    0.08333333333334             4
   -0.07692307692308   -0.33333333333334    0.08333333333334             4
    0.00000000000000   -0.25000000000000    0.08333333333333             4
    0.07692307692308   -0.25000000000000    0.08333333333334             4
    0.15384615384615   -0.25000000000000    0.08333333333333             4
    0.23076923076923   -0.25000000000000    0.08333333333333             4
    0.30769230769231   -0.25000000000000    0.08333333333334             4
    0.38461538461539   -0.25000000000000    0.08333333333333             4
    0.46153846153846   -0.25000000000000    0.08333333333334             4
   -0.46153846153846   -0.25000000000000    0.08333333333333             4
   -0.38461538461539   -0.25000000000000    0.08333333333334             4
   -0.30769230769231   -0.25000000000000    0.08333333333333             4
   -0.23076923076923   -0.25000000000000    0.08333333333333             4
   -0.15384615384615   -0.25000000000000    0.08333333333333             4
   -0.07692307692308   -0.25000000000000    0.08333333333333             4
   -0.00000000000000   -0.16666666666666    0.08333333333334             4
    0.07692307692308   -0.16666666666666    0.08333333333333             4
    0.15384615384615   -0.16666666666666    0.08333333333333             4
    0.23076923076923   -0.16666666666666    0.08333333333333             4
    0.30769230769231   -0.16666666666666    0.08333333333333             4
    0.38461538461539   -0.16666666666666    0.08333333333333             4
    0.46153846153846   -0.16666666666666    0.08333333333333             4
   -0.46153846153846   -0.16666666666666    0.08333333333334             4
   -0.38461538461539   -0.16666666666666    0.08333333333333             4
   -0.30769230769231   -0.16666666666666    0.08333333333334             4
   -0.23076923076923   -0.16666666666666    0.08333333333333             4
   -0.15384615384615   -0.16666666666666    0.08333333333334             4
   -0.07692307692308   -0.16666666666666    0.08333333333333             4
   -0.00000000000000   -0.08333333333334    0.08333333333333             2
    0.07692307692308   -0.08333333333334    0.08333333333333             4
    0.15384615384615   -0.08333333333334    0.08333333333333             4
    0.23076923076923   -0.08333333333334    0.08333333333333             4
    0.30769230769231   -0.08333333333334    0.08333333333333             4
    0.38461538461539   -0.08333333333334    0.08333333333334             4
    0.46153846153846   -0.08333333333334    0.08333333333333             4
    0.00000000000000    0.16666666666666    0.16666666666666             2
    0.07692307692308    0.16666666666666    0.16666666666667             2
    0.15384615384615    0.16666666666666    0.16666666666666             2
    0.23076923076923    0.16666666666666    0.16666666666667             2
    0.30769230769231    0.16666666666666    0.16666666666667             2
    0.38461538461539    0.16666666666666    0.16666666666667             2
    0.46153846153846    0.16666666666666    0.16666666666667             2
   -0.46153846153846    0.16666666666666    0.16666666666667             2
   -0.38461538461539    0.16666666666666    0.16666666666667             2
   -0.30769230769231    0.16666666666666    0.16666666666667             2
   -0.23076923076923    0.16666666666666    0.16666666666667             2
   -0.15384615384615    0.16666666666666    0.16666666666666             2
   -0.07692307692308    0.16666666666666    0.16666666666667             2
    0.00000000000000    0.25000000000000    0.16666666666667             4
    0.07692307692308    0.25000000000000    0.16666666666667             4
    0.15384615384615    0.25000000000000    0.16666666666667             4
    0.23076923076923    0.25000000000000    0.16666666666666             4
    0.30769230769231    0.25000000000000    0.16666666666667             4
    0.38461538461539    0.25000000000000    0.16666666666666             4
    0.46153846153846    0.25000000000000    0.16666666666667             4
   -0.46153846153846    0.25000000000000    0.16666666666667             4
   -0.38461538461539    0.25000000000000    0.16666666666667             4
   -0.30769230769231    0.25000000000000    0.16666666666667             4
   -0.23076923076923    0.25000000000000    0.16666666666666             4
   -0.15384615384615    0.25000000000000    0.16666666666667             4
   -0.07692307692308    0.25000000000000    0.16666666666666             4
    0.00000000000000    0.33333333333334    0.16666666666667             4
    0.07692307692308    0.33333333333334    0.16666666666667             4
    0.15384615384615    0.33333333333334    0.16666666666666             4
    0.23076923076923    0.33333333333334    0.16666666666667             4
    0.30769230769231    0.33333333333334    0.16666666666666             4
    0.38461538461539    0.33333333333334    0.16666666666667             4
    0.46153846153846    0.33333333333334    0.16666666666666             4
   -0.46153846153846    0.33333333333334    0.16666666666667             4
   -0.38461538461539    0.33333333333334    0.16666666666666             4
   -0.30769230769231    0.33333333333334    0.16666666666667             4
   -0.23076923076923    0.33333333333334    0.16666666666667             4
   -0.15384615384615    0.33333333333334    0.16666666666667             4
   -0.07692307692308    0.33333333333334    0.16666666666667             4
    0.00000000000000    0.41666666666666    0.16666666666666             4
    0.07692307692308    0.41666666666666    0.16666666666667             4
    0.15384615384615    0.41666666666666    0.16666666666666             4
    0.23076923076923    0.41666666666666    0.16666666666667             4
    0.30769230769231    0.41666666666666    0.16666666666667             4
    0.38461538461539    0.41666666666666    0.16666666666667             4
    0.46153846153846    0.41666666666666    0.16666666666667             4
   -0.46153846153846    0.41666666666666    0.16666666666667             4
   -0.38461538461539    0.41666666666666    0.16666666666667             4
   -0.30769230769231    0.41666666666666    0.16666666666667             4
   -0.23076923076923    0.41666666666666    0.16666666666667             4
   -0.15384615384615    0.41666666666666    0.16666666666666             4
   -0.07692307692308    0.41666666666666    0.16666666666667             4
   -0.00000000000000    0.50000000000000    0.16666666666667             4
    0.07692307692308    0.50000000000000    0.16666666666667             4
    0.15384615384615    0.50000000000000    0.16666666666667             4
    0.23076923076923    0.50000000000000    0.16666666666666             4
    0.30769230769231    0.50000000000000    0.16666666666667             4
    0.38461538461539    0.50000000000000    0.16666666666666             4
    0.46153846153846    0.50000000000000    0.16666666666667             4
   -0.46153846153846    0.50000000000000    0.16666666666667             4
   -0.38461538461539    0.50000000000000    0.16666666666667             4
   -0.30769230769231    0.50000000000000    0.16666666666667             4
   -0.23076923076923    0.50000000000000    0.16666666666666             4
   -0.15384615384615    0.50000000000000    0.16666666666667             4
   -0.07692307692308    0.50000000000000    0.16666666666666             4
   -0.00000000000000   -0.41666666666666    0.16666666666667             4
    0.07692307692308   -0.41666666666666    0.16666666666667             4
    0.15384615384615   -0.41666666666666    0.16666666666666             4
    0.23076923076923   -0.41666666666666    0.16666666666667             4
    0.30769230769231   -0.41666666666666    0.16666666666666             4
    0.38461538461539   -0.41666666666666    0.16666666666667             4
    0.46153846153846   -0.41666666666666    0.16666666666666             4
   -0.46153846153846   -0.41666666666666    0.16666666666667             4
   -0.38461538461539   -0.41666666666666    0.16666666666666             4
   -0.30769230769231   -0.41666666666666    0.16666666666667             4
   -0.23076923076923   -0.41666666666666    0.16666666666667             4
   -0.15384615384615   -0.41666666666666    0.16666666666667             4
   -0.07692307692308   -0.41666666666666    0.16666666666667             4
   -0.00000000000000   -0.33333333333334    0.16666666666666             4
    0.07692307692308   -0.33333333333334    0.16666666666667             4
    0.15384615384615   -0.33333333333334    0.16666666666666             4
    0.23076923076923   -0.33333333333334    0.16666666666667             4
    0.30769230769231   -0.33333333333334    0.16666666666667             4
    0.38461538461539   -0.33333333333334    0.16666666666667             4
    0.46153846153846   -0.33333333333334    0.16666666666667             4
   -0.46153846153846   -0.33333333333334    0.16666666666667             4
   -0.38461538461539   -0.33333333333334    0.16666666666667             4
   -0.30769230769231   -0.33333333333334    0.16666666666667             4
   -0.23076923076923   -0.33333333333334    0.16666666666667             4
   -0.15384615384615   -0.33333333333334    0.16666666666666             4
   -0.07692307692308   -0.33333333333334    0.16666666666667             4
    0.00000000000000   -0.25000000000000    0.16666666666667             4
    0.07692307692308   -0.25000000000000    0.16666666666667             4
    0.15384615384615   -0.25000000000000    0.16666666666667             4
    0.23076923076923   -0.25000000000000    0.16666666666666             4
    0.30769230769231   -0.25000000000000    0.16666666666667             4
    0.38461538461539   -0.25000000000000    0.16666666666666             4
    0.46153846153846   -0.25000000000000    0.16666666666667             4
   -0.46153846153846   -0.25000000000000    0.16666666666667             4
   -0.38461538461539   -0.25000000000000    0.16666666666667             4
   -0.30769230769231   -0.25000000000000    0.16666666666667             4
   -0.23076923076923   -0.25000000000000    0.16666666666666             4
   -0.15384615384615   -0.25000000000000    0.16666666666667             4
   -0.07692307692308   -0.25000000000000    0.16666666666666             4
    0.00000000000000   -0.16666666666666    0.16666666666667             2
    0.07692307692308   -0.16666666666666    0.16666666666667             4
    0.15384615384615   -0.16666666666666    0.16666666666666             4
    0.23076923076923   -0.16666666666666    0.16666666666667             4
    0.30769230769231   -0.16666666666666    0.16666666666666             4
    0.38461538461539   -0.16666666666666    0.16666666666667             4
    0.46153846153846   -0.16666666666666    0.16666666666666             4
    0.00000000000000    0.25000000000000    0.25000000000000             2
    0.07692307692308    0.25000000000000    0.25000000000001             2
    0.15384615384615    0.25000000000000    0.25000000000000             2
    0.23076923076923    0.25000000000000    0.25000000000001             2
    0.30769230769231    0.25000000000000    0.25000000000000             2
    0.38461538461539    0.25000000000000    0.25000000000000             2
    0.46153846153846    0.25000000000000    0.25000000000000             2
   -0.46153846153846    0.25000000000000    0.25000000000000             2
   -0.38461538461539    0.25000000000000    0.25000000000000             2
   -0.30769230769231    0.25000000000000    0.25000000000000             2
   -0.23076923076923    0.25000000000000    0.25000000000000             2
   -0.15384615384615    0.25000000000000    0.25000000000000             2
   -0.07692307692308    0.25000000000000    0.25000000000000             2
    0.00000000000000    0.33333333333334    0.25000000000000             4
    0.07692307692308    0.33333333333334    0.25000000000000             4
    0.15384615384615    0.33333333333334    0.24999999999999             4
    0.23076923076923    0.33333333333334    0.25000000000000             4
    0.30769230769231    0.33333333333334    0.25000000000000             4
    0.38461538461539    0.33333333333334    0.25000000000000             4
    0.46153846153846    0.33333333333334    0.25000000000000             4
   -0.46153846153846    0.33333333333334    0.25000000000000             4
   -0.38461538461539    0.33333333333334    0.25000000000000             4
   -0.30769230769231    0.33333333333334    0.25000000000000             4
   -0.23076923076923    0.33333333333334    0.25000000000000             4
   -0.15384615384615    0.33333333333334    0.25000000000000             4
   -0.07692307692308    0.33333333333334    0.25000000000000             4
    0.00000000000000    0.41666666666666    0.25000000000000             4
    0.07692307692308    0.41666666666666    0.25000000000000             4
    0.15384615384615    0.41666666666666    0.25000000000000             4
    0.23076923076923    0.41666666666666    0.25000000000000             4
    0.30769230769231    0.41666666666666    0.25000000000000             4
    0.38461538461539    0.41666666666666    0.25000000000000             4
    0.46153846153846    0.41666666666666    0.25000000000000             4
   -0.46153846153846    0.41666666666666    0.25000000000000             4
   -0.38461538461539    0.41666666666666    0.25000000000000             4
   -0.30769230769231    0.41666666666666    0.25000000000000             4
   -0.23076923076923    0.41666666666666    0.25000000000000             4
   -0.15384615384615    0.41666666666666    0.25000000000000             4
   -0.07692307692308    0.41666666666666    0.25000000000000             4
    0.00000000000000    0.50000000000000    0.25000000000000             4
    0.07692307692308    0.50000000000000    0.25000000000001             4
    0.15384615384615    0.50000000000000    0.25000000000000             4
    0.23076923076923    0.50000000000000    0.25000000000001             4
    0.30769230769231    0.50000000000000    0.25000000000000             4
    0.38461538461539    0.50000000000000    0.25000000000000             4
    0.46153846153846    0.50000000000000    0.25000000000000             4
   -0.46153846153846    0.50000000000000    0.25000000000000             4
   -0.38461538461539    0.50000000000000    0.25000000000000             4
   -0.30769230769231    0.50000000000000    0.25000000000000             4
   -0.23076923076923    0.50000000000000    0.25000000000000             4
   -0.15384615384615    0.50000000000000    0.25000000000000             4
   -0.07692307692308    0.50000000000000    0.25000000000000             4
    0.00000000000000   -0.41666666666666    0.25000000000000             4
    0.07692307692308   -0.41666666666666    0.25000000000000             4
    0.15384615384615   -0.41666666666666    0.24999999999999             4
    0.23076923076923   -0.41666666666666    0.25000000000000             4
    0.30769230769231   -0.41666666666666    0.25000000000000             4
    0.38461538461539   -0.41666666666666    0.25000000000000             4
    0.46153846153846   -0.41666666666666    0.25000000000000             4
   -0.46153846153846   -0.41666666666666    0.25000000000000             4
   -0.38461538461539   -0.41666666666666    0.25000000000000             4
   -0.30769230769231   -0.41666666666666    0.25000000000000             4
   -0.23076923076923   -0.41666666666666    0.25000000000000             4
   -0.15384615384615   -0.41666666666666    0.25000000000000             4
   -0.07692307692308   -0.41666666666666    0.25000000000000             4
   -0.00000000000000   -0.33333333333334    0.25000000000000             4
    0.07692307692308   -0.33333333333334    0.25000000000000             4
    0.15384615384615   -0.33333333333334    0.25000000000000             4
    0.23076923076923   -0.33333333333334    0.25000000000000             4
    0.30769230769231   -0.33333333333334    0.25000000000000             4
    0.38461538461539   -0.33333333333334    0.25000000000000             4
    0.46153846153846   -0.33333333333334    0.25000000000000             4