       N       E                     dE             d eps       ncg     rms          rms(c)
DAV:   1     0.445781131609E+02    0.44578E+02   -0.56766E+03 24628   0.103E+03
DAV:   2    -0.974225049692E+01   -0.54320E+02   -0.52322E+02 29608   0.228E+02
DAV:   3    -0.152526129269E+02   -0.55104E+01   -0.54664E+01 45900   0.540E+01
DAV:   4    -0.153051311589E+02   -0.52518E-01   -0.52508E-01 28204   0.659E+00
DAV:   5    -0.153055126908E+02   -0.38153E-03   -0.38153E-03 34272   0.441E-01    0.117E+01
RMM:   6    -0.141566172106E+02    0.11489E+01   -0.34496E+00 26768   0.125E+01    0.495E+00
RMM:   7    -0.142734530906E+02   -0.11684E+00   -0.11264E-01 30913   0.280E+00    0.214E+00
RMM:   8    -0.142815241916E+02   -0.80711E-02   -0.46586E-02 35287   0.210E+00    0.116E+00
RMM:   9    -0.142936072797E+02   -0.12083E-01   -0.31057E-02 35125   0.197E+00    0.243E-01
RMM:  10    -0.142948402113E+02   -0.12329E-02   -0.90223E-03 40324   0.736E-01    0.137E-01
RMM:  11    -0.142957163701E+02   -0.87616E-03   -0.51563E-03 38667   0.572E-01    0.160E-01
RMM:  12    -0.142956082153E+02    0.10815E-03   -0.15815E-03 39493   0.331E-01    0.739E-02
RMM:  13    -0.142956156863E+02   -0.74710E-05   -0.75256E-04 39710   0.226E-01    0.202E-02
RMM:  14    -0.142956555830E+02   -0.39897E-04   -0.31289E-04 38543   0.127E-01    0.324E-02
RMM:  15    -0.142956713349E+02   -0.15752E-04   -0.11962E-04 35922   0.823E-02    0.270E-02
RMM:  16    -0.142956751804E+02   -0.38455E-05   -0.55834E-05 32970   0.580E-02
   1 F= -.14295675E+02 E0= -.14295675E+02  d E =0.000000E+00  mag=    -0.0000
