       N       E                     dE             d eps       ncg     rms          rms(c)
DAV:   1     0.132614545145E+00    0.13261E+00   -0.72170E+02  2760   0.261E+02
DAV:   2    -0.157940660105E+01   -0.17120E+01   -0.16820E+01  3904   0.344E+01
DAV:   3    -0.160034161028E+01   -0.20935E-01   -0.20864E-01  3064   0.305E+00
DAV:   4    -0.160062812402E+01   -0.28651E-03   -0.28628E-03  3936   0.290E-01
DAV:   5    -0.160062877289E+01   -0.64887E-06   -0.64893E-06  3176   0.125E-02    0.545E+00
RMM:   6    -0.183017861680E+01   -0.22955E+00   -0.54245E-02  3217   0.172E+00    0.258E+00
RMM:   7    -0.190144526542E+01   -0.71267E-01   -0.17115E-02  2844   0.101E+00    0.160E-01
RMM:   8    -0.190247925296E+01   -0.10340E-02   -0.44752E-03  3185   0.565E-01    0.910E-02
RMM:   9    -0.190276214413E+01   -0.28289E-03   -0.17694E-03  3747   0.329E-01    0.331E-02
RMM:  10    -0.190307462088E+01   -0.31248E-03   -0.14317E-03  3492   0.285E-01    0.285E-02
RMM:  11    -0.190312250402E+01   -0.47883E-04   -0.20312E-04  3808   0.115E-01    0.223E-02
RMM:  12    -0.190314612766E+01   -0.23624E-04   -0.14319E-04  3593   0.891E-02    0.911E-03
RMM:  13    -0.190315440796E+01   -0.82803E-05   -0.29695E-05  3439   0.439E-02
   1 F= -.19031544E+01 E0= -.19031544E+01  d E =0.000000E+00  mag=    -0.0001
