   26   26    1    2
  0.1098773E+02  0.5180450E-09  0.7120042E-09  0.8536170E-09  0.5000000E-15
  1.000000000000000E-004
  CAR 
 unknown system                          
    128     71     88
 
  0.0000000E+00  0.0000000E+00  0.0000000E+00  0.7142857E-02
    1      -41.594397    -41.594462   1.000000   1.000000
    2      -41.593641    -41.593706   1.000000   1.000000
    3      -41.437077    -41.437161   1.000000   1.000000
    4      -41.435844    -41.435927   1.000000   1.000000
    5      -41.392917    -41.392996   1.000000   1.000000
    6      -41.378035    -41.378114   1.000000   1.000000
    7      -41.342577    -41.342642   1.000000   1.000000
    8      -41.342504    -41.342568   1.000000   1.000000
    9      -20.050166    -20.050163   1.000000   1.000000
   10      -19.986469    -19.986467   1.000000   1.000000
   11      -18.761489    -18.761488   1.000000   1.000000
   12      -18.727594    -18.727592   1.000000   1.000000
   13      -17.443962    -17.443967   1.000000   1.000000
   14      -17.369820    -17.369826   1.000000   1.000000
   15      -16.824283    -16.824294   1.000000   1.000000
   16      -16.790816    -16.790828   1.000000   1.000000
   17      -16.619349    -16.619362   1.000000   1.000000
   18      -16.608388    -16.608400   1.000000   1.000000
   19      -16.550717    -16.550731   1.000000   1.000000
   20      -16.533753    -16.533768   1.000000   1.000000
   21      -16.481345    -16.481358   1.000000   1.000000
   22      -16.477641    -16.477654   1.000000   1.000000
   23       -8.435433     -8.435423   1.000000   1.000000
   24       -8.410321     -8.410311   1.000000   1.000000
   25       -5.844901     -5.844853   1.000000   1.000000
   26       -5.409355     -5.409325   1.000000   1.000000
   27       -4.890476     -4.890443   1.000000   1.000000
   28       -4.755727     -4.755704   1.000000   1.000000
   29       -4.462947     -4.462925   1.000000   1.000000
   30       -4.263222     -4.263201   1.000000   1.000000
   31       -4.131858     -4.131844   1.000000   1.000000
   32       -4.119946     -4.119934   1.000000   1.000000
   33       -3.691574     -3.691553   1.000000   1.000000
   34       -3.617807     -3.617781   1.000000   1.000000
   35       -3.556817     -3.556797   1.000000   1.000000
   36       -3.387807     -3.387790   1.000000   1.000000
   37       -3.016801     -3.016779   1.000000   1.000000
   38       -2.713953     -2.713937   1.000000   1.000000
   39       -2.316107     -2.316104   1.000000   1.000000
   40       -2.037292     -2.037295   1.000000   1.000000
   41       -2.036079     -2.036083   1.000000   1.000000
   42       -1.737642     -1.737636   1.000000   1.000000
   43       -1.697535     -1.697520   1.000000   1.000000
   44       -1.510687     -1.510684   1.000000   1.000000
   45       -1.387342     -1.387346   1.000000   1.000000
   46       -1.321532     -1.321537   1.000000   1.000000
   47       -1.265214     -1.265216   1.000000   1.000000
   48       -1.050865     -1.050867   1.000000   1.000000
   49       -0.917448     -0.917450   1.000000   1.000000
   50       -0.885827     -0.885827   1.000000   1.000000
   51       -0.847768     -0.847773   1.000000   1.000000
   52       -0.568137     -0.568143   1.000000   1.000000
   53       -0.450187     -0.450193   1.000000   1.000000
   54       -0.214415     -0.214416   1.000000   1.000000
   55       -0.091948     -0.091962   1.000000   1.000000
   56       -0.089543     -0.089557   1.000000   1.000000
   57        0.065192      0.065181   1.000000   1.000000
   58        0.119474      0.119494   1.000000   1.000000
   59        0.136978      0.136983   1.000000   1.000000
   60        0.266393      0.266395   1.000000   1.000000
   61        0.338439      0.338437   1.000000   1.000000
   62        0.407134      0.407120   1.000000   1.000000
   63        0.630394      0.630381   1.000000   1.000000
   64        0.645924      0.645917   1.000000   1.000000
   65        6.547597      6.547625   0.000002   0.000002
   66        8.879356      8.879359   0.000000   0.000000
   67        8.898535      8.898525   0.000000   0.000000
   68        9.168329      9.168356   0.000000   0.000000
   69        9.303772      9.303775   0.000000   0.000000
   70        9.435568      9.435596   0.000000   0.000000
   71        9.676569      9.676601   0.000000   0.000000
   72        9.821289      9.821295   0.000000   0.000000
   73       10.123819     10.123832   0.000000   0.000000
   74       10.210141     10.210157   0.000000   0.000000
   75       10.405519     10.405545   0.000000   0.000000
   76       10.702666     10.702709   0.000000   0.000000
   77       10.886425     10.886429   0.000000   0.000000
   78       10.895657     10.895678   0.000000   0.000000
   79       11.273966     11.274005   0.000000   0.000000
   80       11.329970     11.329991   0.000000   0.000000
   81       11.463382     11.463395   0.000000   0.000000
   82       11.549591     11.549603   0.000000   0.000000
   83       11.803078     11.803084   0.000000   0.000000
   84       11.926429     11.926447   0.000000   0.000000
   85       11.946542     11.946558   0.000000   0.000000
   86       12.231807     12.231826   0.000000   0.000000
   87       12.517595     12.517558   0.000000   0.000000
   88       12.519565     12.521286   0.000000   0.000000
 
  0.1428571E+00  0.2292183E-16 -0.5231372E-17  0.1428571E-01
    1      -41.594394    -41.594459   1.000000   1.000000
    2      -41.593635    -41.593700   1.000000   1.000000
    3      -41.437012    -41.437095   1.000000   1.000000
    4      -41.435811    -41.435894   1.000000   1.000000
    5      -41.392887    -41.392967   1.000000   1.000000
    6      -41.378133    -41.378213   1.000000   1.000000
    7      -41.342612    -41.342677   1.000000   1.000000
    8      -41.342515    -41.342580   1.000000   1.000000
    9      -20.044706    -20.044703   1.000000   1.000000
   10      -19.987057    -19.987055   1.000000   1.000000
   11      -18.759948    -18.759947   1.000000   1.000000
   12      -18.729194    -18.729192   1.000000   1.000000
   13      -17.437367    -17.437372   1.000000   1.000000
   14      -17.370886    -17.370892   1.000000   1.000000
   15      -16.821608    -16.821619   1.000000   1.000000
   16      -16.790444    -16.790456   1.000000   1.000000
   17      -16.627467    -16.627479   1.000000   1.000000
   18      -16.614692    -16.614705   1.000000   1.000000
   19      -16.553049    -16.553063   1.000000   1.000000
   20      -16.536701    -16.536715   1.000000   1.000000
   21      -16.485686    -16.485699   1.000000   1.000000
   22      -16.481125    -16.481137   1.000000   1.000000
   23       -8.442937     -8.442928   1.000000   1.000000
   24       -8.415133     -8.415123   1.000000   1.000000
   25       -5.825751     -5.825705   1.000000   1.000000
   26       -5.408980     -5.408951   1.000000   1.000000
   27       -4.880664     -4.880634   1.000000   1.000000
   28       -4.743039     -4.743016   1.000000   1.000000
   29       -4.443390     -4.443367   1.000000   1.000000
   30       -4.256207     -4.256187   1.000000   1.000000
   31       -4.119140     -4.119127   1.000000   1.000000
   32       -4.076582     -4.076568   1.000000   1.000000
   33       -3.642977     -3.642952   1.000000   1.000000
   34       -3.614531     -3.614504   1.000000   1.000000
   35       -3.502779     -3.502760   1.000000   1.000000
   36       -3.363337     -3.363318   1.000000   1.000000
   37       -3.009805     -3.009783   1.000000   1.000000
   38       -2.673374     -2.673359   1.000000   1.000000
   39       -2.283689     -2.283686   1.000000   1.000000
   40       -2.083359     -2.083361   1.000000   1.000000
   41       -2.013892     -2.013895   1.000000   1.000000
   42       -1.800915     -1.800907   1.000000   1.000000
   43       -1.712670     -1.712658   1.000000   1.000000
   44       -1.489253     -1.489251   1.000000   1.000000
   45       -1.425292     -1.425292   1.000000   1.000000
   46       -1.295086     -1.295091   1.000000   1.000000
   47       -1.255751     -1.255752   1.000000   1.000000
   48       -1.074048     -1.074050   1.000000   1.000000
   49       -0.995852     -0.995854   1.000000   1.000000
   50       -0.956372     -0.956374   1.000000   1.000000
   51       -0.905737     -0.905736   1.000000   1.000000
   52       -0.608960     -0.608966   1.000000   1.000000
   53       -0.423352     -0.423358   1.000000   1.000000
   54       -0.234063     -0.234064   1.000000   1.000000
   55       -0.120044     -0.120059   1.000000   1.000000
   56       -0.093889     -0.093901   1.000000   1.000000
   57        0.029690      0.029679   1.000000   1.000000
   58        0.078240      0.078251   1.000000   1.000000
   59        0.174651      0.174655   1.000000   1.000000
   60        0.261573      0.261573   1.000000   1.000000
   61        0.355066      0.355065   1.000000   1.000000
   62        0.412623      0.412609   1.000000   1.000000
   63        0.622844      0.622831   1.000000   1.000000
   64        0.657756      0.657748   1.000000   1.000000
   65        6.747933      6.747958  -0.000000  -0.000000
   66        8.751143      8.751142   0.000000   0.000000
   67        8.914548      8.914542   0.000000   0.000000
   68        9.156589      9.156611   0.000000   0.000000
   69        9.237519      9.237528   0.000000   0.000000
   70        9.480321      9.480343   0.000000   0.000000
   71        9.648340      9.648356   0.000000   0.000000
   72       10.009331     10.009349   0.000000   0.000000
   73       10.078955     10.078970   0.000000   0.000000
   74       10.313322     10.313337   0.000000   0.000000
   75       10.440776     10.440802   0.000000   0.000000
   76       10.613408     10.613438   0.000000   0.000000
   77       10.751941     10.751963   0.000000   0.000000
   78       10.929287     10.929297   0.000000   0.000000
   79       10.993682     10.993691   0.000000   0.000000
   80       11.214866     11.214890   0.000000   0.000000
   81       11.367494     11.367506   0.000000   0.000000
   82       11.393651     11.393675   0.000000   0.000000
   83       11.558291     11.558315   0.000000   0.000000
   84       11.907214     11.907236   0.000000   0.000000
   85       12.072138     12.072168   0.000000   0.000000
   86       12.228676     12.228696   0.000000   0.000000
   87       12.378595     12.378632   0.000000   0.000000
   88       12.716806     12.721414   0.000000   0.000000
 
  0.2857143E+00 -0.7766006E-17 -0.7145763E-17  0.1428571E-01
    1      -41.594351    -41.594416   1.000000   1.000000
    2      -41.593617    -41.593682   1.000000   1.000000
    3      -41.436857    -41.436941   1.000000   1.000000
    4      -41.435704    -41.435788   1.000000   1.000000
    5      -41.392789    -41.392869   1.000000   1.000000
    6      -41.378346    -41.378426   1.000000   1.000000
    7      -41.342672    -41.342736   1.000000   1.000000
    8      -41.342518    -41.342583   1.000000   1.000000
    9      -20.030846    -20.030844   1.000000   1.000000
   10      -19.989819    -19.989817   1.000000   1.000000
   11      -18.756161    -18.756160   1.000000   1.000000
   12      -18.733112    -18.733111   1.000000   1.000000
   13      -17.420612    -17.420618   1.000000   1.000000
   14      -17.374939    -17.374946   1.000000   1.000000
   15      -16.814769    -16.814781   1.000000   1.000000
   16      -16.789579    -16.789591   1.000000   1.000000
   17      -16.645260    -16.645271   1.000000   1.000000
   18      -16.630298    -16.630310   1.000000   1.000000
   19      -16.557533    -16.557547   1.000000   1.000000
   20      -16.544078    -16.544092   1.000000   1.000000
   21      -16.495068    -16.495081   1.000000   1.000000
   22      -16.488849    -16.488861   1.000000   1.000000
   23       -8.458455     -8.458445   1.000000   1.000000
   24       -8.427405     -8.427396   1.000000   1.000000
   25       -5.781741     -5.781702   1.000000   1.000000
   26       -5.409954     -5.409925   1.000000   1.000000
   27       -4.850104     -4.850078   1.000000   1.000000
   28       -4.725889     -4.725868   1.000000   1.000000
   29       -4.402463     -4.402439   1.000000   1.000000
   30       -4.244841     -4.244820   1.000000   1.000000
   31       -4.050229     -4.050216   1.000000   1.000000
   32       -3.996453     -3.996438   1.000000   1.000000
   33       -3.663337     -3.663304   1.000000   1.000000
   34       -3.467377     -3.467353   1.000000   1.000000
   35       -3.378384     -3.378360   1.000000   1.000000
   36       -3.285432     -3.285413   1.000000   1.000000
   37       -2.983028     -2.983003   1.000000   1.000000
   38       -2.594159     -2.594145   1.000000   1.000000
   39       -2.237731     -2.237729   1.000000   1.000000
   40       -2.099990     -2.099988   1.000000   1.000000
   41       -2.022298     -2.022297   1.000000   1.000000
   42       -1.878158     -1.878150   1.000000   1.000000
   43       -1.733494     -1.733487   1.000000   1.000000
   44       -1.546173     -1.546170   1.000000   1.000000
   45       -1.450005     -1.450002   1.000000   1.000000
   46       -1.337147     -1.337148   1.000000   1.000000
   47       -1.329843     -1.329845   1.000000   1.000000
   48       -1.183472     -1.183472   1.000000   1.000000
   49       -1.097383     -1.097380   1.000000   1.000000
   50       -1.052547     -1.052548   1.000000   1.000000
   51       -0.975893     -0.975892   1.000000   1.000000
   52       -0.701042     -0.701048   1.000000   1.000000
   53       -0.382196     -0.382200   1.000000   1.000000
   54       -0.278366     -0.278369   1.000000   1.000000
   55       -0.189883     -0.189899   1.000000   1.000000
   56       -0.119798     -0.119810   1.000000   1.000000
   57       -0.018770     -0.018778   1.000000   1.000000
   58        0.037578      0.037580   1.000000   1.000000
   59        0.189919      0.189917   1.000000   1.000000
   60        0.247786      0.247781   1.000000   1.000000
   61        0.400746      0.400740   1.000000   1.000000
   62        0.425875      0.425861   1.000000   1.000000
   63        0.624240      0.624228   1.000000   1.000000
   64        0.669176      0.669167   1.000000   1.000000
   65        7.260695      7.260712   0.000000   0.000000
   66        8.653439      8.653440   0.000000   0.000000
   67        8.883353      8.883349   0.000000   0.000000
   68        9.054381      9.054388   0.000000   0.000000
   69        9.284015      9.284026   0.000000   0.000000
   70        9.484870      9.484882   0.000000   0.000000
   71        9.770058      9.770062   0.000000   0.000000
   72        9.917002      9.917026   0.000000   0.000000
   73       10.040711     10.040739   0.000000   0.000000
   74       10.209383     10.209377   0.000000   0.000000
   75       10.338250     10.338273   0.000000   0.000000
   76       10.508570     10.508584   0.000000   0.000000
   77       10.564127     10.564147   0.000000   0.000000
   78       10.799111     10.799116   0.000000   0.000000
   79       10.858455     10.858486   0.000000   0.000000
   80       11.060725     11.060760   0.000000   0.000000
   81       11.157344     11.157357   0.000000   0.000000
   82       11.211217     11.211240   0.000000   0.000000
   83       11.508365     11.508403   0.000000   0.000000
   84       11.775812     11.775831   0.000000   0.000000
   85       12.047446     12.047472   0.000000   0.000000
   86       12.270315     12.270354   0.000000   0.000000
   87       12.578658     12.578667   0.000000   0.000000
   88       12.842847     12.843786   0.000000   0.000000
 
  0.4285714E+00  0.1014074E-15 -0.7137540E-14  0.1428571E-01
    1      -41.594310    -41.594375   1.000000   1.000000
    2      -41.593612    -41.593677   1.000000   1.000000
    3      -41.436732    -41.436816   1.000000   1.000000
    4      -41.435617    -41.435700   1.000000   1.000000
    5      -41.392700    -41.392780   1.000000   1.000000
    6      -41.378541    -41.378620   1.000000   1.000000
    7      -41.342718    -41.342783   1.000000   1.000000
    8      -41.342526    -41.342591   1.000000   1.000000
    9      -20.015421    -20.015418   1.000000   1.000000
   10      -19.996321    -19.996319   1.000000   1.000000
   11      -18.752487    -18.752487   1.000000   1.000000
   12      -18.736872    -18.736871   1.000000   1.000000
   13      -17.400883    -17.400890   1.000000   1.000000
   14      -17.384242    -17.384249   1.000000   1.000000
   15      -16.808207    -16.808218   1.000000   1.000000
   16      -16.789144    -16.789156   1.000000   1.000000
   17      -16.659599    -16.659609   1.000000   1.000000
   18      -16.644050    -16.644062   1.000000   1.000000
   19      -16.558827    -16.558841   1.000000   1.000000
   20      -16.552455    -16.552468   1.000000   1.000000
   21      -16.503376    -16.503389   1.000000   1.000000
   22      -16.493842    -16.493854   1.000000   1.000000
   23       -8.469997     -8.469988   1.000000   1.000000
   24       -8.438301     -8.438292   1.000000   1.000000
   25       -5.744094     -5.744061   1.000000   1.000000
   26       -5.414886     -5.414856   1.000000   1.000000
   27       -4.816159     -4.816137   1.000000   1.000000
   28       -4.723602     -4.723581   1.000000   1.000000
   29       -4.372864     -4.372839   1.000000   1.000000
   30       -4.239828     -4.239805   1.000000   1.000000
   31       -3.958800     -3.958790   1.000000   1.000000
   32       -3.930239     -3.930222   1.000000   1.000000
   33       -3.701124     -3.701088   1.000000   1.000000
   34       -3.352737     -3.352711   1.000000   1.000000
   35       -3.275959     -3.275932   1.000000   1.000000
   36       -3.167036     -3.167017   1.000000   1.000000
   37       -2.946618     -2.946591   1.000000   1.000000
   38       -2.546770     -2.546758   1.000000   1.000000
   39       -2.241451     -2.241446   1.000000   1.000000
   40       -2.048093     -2.048093   1.000000   1.000000
   41       -1.999615     -1.999606   1.000000   1.000000
   42       -1.944006     -1.943999   1.000000   1.000000
   43       -1.756241     -1.756239   1.000000   1.000000
   44       -1.638921     -1.638917   1.000000   1.000000
   45       -1.550118     -1.550113   1.000000   1.000000
   46       -1.497964     -1.497959   1.000000   1.000000
   47       -1.395828     -1.395828   1.000000   1.000000
   48       -1.241499     -1.241497   1.000000   1.000000
   49       -1.124068     -1.124060   1.000000   1.000000
   50       -1.084879     -1.084875   1.000000   1.000000
   51       -0.957712     -0.957718   1.000000   1.000000
   52       -0.809441     -0.809447   1.000000   1.000000
   53       -0.373806     -0.373807   1.000000   1.000000
   54       -0.301837     -0.301846   1.000000   1.000000
   55       -0.247854     -0.247868   1.000000   1.000000
   56       -0.149119     -0.149132   1.000000   1.000000
   57       -0.029802     -0.029809   1.000000   1.000000
   58       -0.001484     -0.001488   1.000000   1.000000
   59        0.185837      0.185834   1.000000   1.000000
   60        0.254365      0.254356   1.000000   1.000000
   61        0.424082      0.424067   1.000000   1.000000
   62        0.435527      0.435515   1.000000   1.000000
   63        0.644870      0.644858   1.000000   1.000000
   64        0.666371      0.666361   1.000000   1.000000
   65        7.832935      7.832940   0.000000   0.000000
   66        8.580943      8.580956   0.000000   0.000000
   67        8.936597      8.936590   0.000000   0.000000
   68        9.121040      9.121035   0.000000   0.000000
   69        9.259104      9.259108   0.000000   0.000000
   70        9.442401      9.442403   0.000000   0.000000
   71        9.575879      9.575878   0.000000   0.000000
   72        9.800436      9.800447   0.000000   0.000000
   73        9.839855      9.839861   0.000000   0.000000
   74        9.971581      9.971617   0.000000   0.000000
   75       10.154942     10.154968   0.000000   0.000000
   76       10.263040     10.263059   0.000000   0.000000
   77       10.634096     10.634110   0.000000   0.000000
   78       10.850382     10.850393   0.000000   0.000000
   79       10.891890     10.891919   0.000000   0.000000
   80       10.975479     10.975508   0.000000   0.000000
   81       11.095615     11.095655   0.000000   0.000000
   82       11.264045     11.264056   0.000000   0.000000
   83       11.482407     11.482450   0.000000   0.000000
   84       11.681339     11.681352   0.000000   0.000000
   85       12.023627     12.023653   0.000000   0.000000
   86       12.361605     12.361670   0.000000   0.000000
   87       12.832391     12.821588   0.000000   0.000000
   88       13.063903     13.082971   0.000000   0.000000
 
  0.2769277E-20  0.2000000E+00  0.6455744E-14  0.1428571E-01
    1      -41.594331    -41.594396   1.000000   1.000000
    2      -41.593700    -41.593765   1.000000   1.000000
    3      -41.437066    -41.437150   1.000000   1.000000
    4      -41.435837    -41.435921   1.000000   1.000000
    5      -41.392904    -41.392984   1.000000   1.000000
    6      -41.378076    -41.378156   1.000000   1.000000
    7      -41.342574    -41.342638   1.000000   1.000000
    8      -41.342476    -41.342541   1.000000   1.000000
    9      -20.040917    -20.040914   1.000000   1.000000
   10      -19.990865    -19.990863   1.000000   1.000000
   11      -18.759986    -18.759984   1.000000   1.000000
   12      -18.745840    -18.745839   1.000000   1.000000
   13      -17.425368    -17.425374   1.000000   1.000000
   14      -17.378926    -17.378933   1.000000   1.000000
   15      -16.831665    -16.831675   1.000000   1.000000
   16      -16.775925    -16.775937   1.000000   1.000000
   17      -16.620726    -16.620739   1.000000   1.000000
   18      -16.611002    -16.611014   1.000000   1.000000
   19      -16.548897    -16.548911   1.000000   1.000000
   20      -16.534475    -16.534489   1.000000   1.000000
   21      -16.481897    -16.481909   1.000000   1.000000
   22      -16.475203    -16.475216   1.000000   1.000000
   23       -8.446240     -8.446229   1.000000   1.000000
   24       -8.429918     -8.429908   1.000000   1.000000
   25       -5.832362     -5.832316   1.000000   1.000000
   26       -5.387374     -5.387345   1.000000   1.000000
   27       -4.892888     -4.892855   1.000000   1.000000
   28       -4.745406     -4.745382   1.000000   1.000000
   29       -4.448116     -4.448094   1.000000   1.000000
   30       -4.230519     -4.230499   1.000000   1.000000
   31       -4.144628     -4.144614   1.000000   1.000000
   32       -4.132421     -4.132408   1.000000   1.000000
   33       -3.701333     -3.701307   1.000000   1.000000
   34       -3.680565     -3.680544   1.000000   1.000000
   35       -3.547468     -3.547450   1.000000   1.000000
   36       -3.353622     -3.353602   1.000000   1.000000
   37       -2.974667     -2.974647   1.000000   1.000000
   38       -2.742717     -2.742701   1.000000   1.000000
   39       -2.188424     -2.188422   1.000000   1.000000
   40       -2.047971     -2.047974   1.000000   1.000000
   41       -2.035104     -2.035107   1.000000   1.000000
   42       -1.908164     -1.908162   1.000000   1.000000
   43       -1.765064     -1.765048   1.000000   1.000000
   44       -1.472892     -1.472893   1.000000   1.000000
   45       -1.390924     -1.390923   1.000000   1.000000
   46       -1.249684     -1.249688   1.000000   1.000000
   47       -1.117632     -1.117633   1.000000   1.000000
   48       -1.084831     -1.084834   1.000000   1.000000
   49       -0.922340     -0.922344   1.000000   1.000000
   50       -0.897769     -0.897770   1.000000   1.000000
   51       -0.868629     -0.868635   1.000000   1.000000
   52       -0.656613     -0.656619   1.000000   1.000000
   53       -0.463383     -0.463388   1.000000   1.000000
   54       -0.219196     -0.219200   1.000000   1.000000
   55       -0.131081     -0.131092   1.000000   1.000000
   56       -0.079239     -0.079249   1.000000   1.000000
   57        0.051485      0.051478   1.000000   1.000000
   58        0.117031      0.117040   1.000000   1.000000
   59        0.174088      0.174097   1.000000   1.000000
   60        0.242913      0.242916   1.000000   1.000000
   61        0.346586      0.346582   1.000000   1.000000
   62        0.426517      0.426505   1.000000   1.000000
   63        0.610070      0.610060   1.000000   1.000000
   64        0.645069      0.645059   1.000000   1.000000
   65        6.783984      6.784009  -0.000000  -0.000000
   66        8.540147      8.540133   0.000000   0.000000
   67        8.845270      8.845280   0.000000   0.000000
   68        9.227661      9.227677   0.000000   0.000000
   69        9.314445      9.314469   0.000000   0.000000
   70        9.523404      9.523428   0.000000   0.000000
   71        9.697096      9.697113   0.000000   0.000000
   72        9.799623      9.799640   0.000000   0.000000
   73       10.154091     10.154098   0.000000   0.000000
   74       10.183855     10.183875   0.000000   0.000000
   75       10.382336     10.382360   0.000000   0.000000
   76       10.667862     10.667897   0.000000   0.000000
   77       10.775040     10.775052   0.000000   0.000000
   78       11.046968     11.046999   0.000000   0.000000
   79       11.123926     11.123930   0.000000   0.000000
   80       11.415042     11.415057   0.000000   0.000000
   81       11.550692     11.550736   0.000000   0.000000
   82       11.671192     11.671203   0.000000   0.000000
   83       11.702770     11.702792   0.000000   0.000000
   84       11.927050     11.927069   0.000000   0.000000
   85       12.096815     12.096838   0.000000   0.000000
   86       12.320374     12.320404   0.000000   0.000000
   87       12.372521     12.372292   0.000000   0.000000
   88       12.629860     12.637978   0.000000   0.000000
 
  0.1428571E+00  0.2000000E+00 -0.6612909E-15  0.1428571E-01
    1      -41.594306    -41.594371   1.000000   1.000000
    2      -41.593706    -41.593771   1.000000   1.000000
    3      -41.436990    -41.437074   1.000000   1.000000
    4      -41.435796    -41.435880   1.000000   1.000000
    5      -41.392842    -41.392922   1.000000   1.000000
    6      -41.378224    -41.378303   1.000000   1.000000
    7      -41.342605    -41.342670   1.000000   1.000000
    8      -41.342462    -41.342527   1.000000   1.000000
    9      -20.030968    -20.030966   1.000000   1.000000
   10      -19.993559    -19.993557   1.000000   1.000000
   11      -18.774558    -18.774556   1.000000   1.000000
   12      -18.738709    -18.738708   1.000000   1.000000
   13      -17.410441    -17.410447   1.000000   1.000000
   14      -17.384994    -17.385001   1.000000   1.000000
   15      -16.828054    -16.828065   1.000000   1.000000
   16      -16.772397    -16.772409   1.000000   1.000000
   17      -16.633312    -16.633324   1.000000   1.000000
   18      -16.614129    -16.614141   1.000000   1.000000
   19      -16.548545    -16.548559   1.000000   1.000000
   20      -16.539847    -16.539862   1.000000   1.000000
   21      -16.486256    -16.486269   1.000000   1.000000
   22      -16.477921    -16.477934   1.000000   1.000000
   23       -8.472138     -8.472127   1.000000   1.000000
   24       -8.431830     -8.431821   1.000000   1.000000
   25       -5.811427     -5.811384   1.000000   1.000000
   26       -5.366403     -5.366375   1.000000   1.000000
   27       -4.880452     -4.880421   1.000000   1.000000
   28       -4.730823     -4.730799   1.000000   1.000000
   29       -4.429175     -4.429152   1.000000   1.000000
   30       -4.214825     -4.214805   1.000000   1.000000
   31       -4.131864     -4.131846   1.000000   1.000000
   32       -4.120904     -4.120893   1.000000   1.000000
   33       -3.722929     -3.722902   1.000000   1.000000
   34       -3.596250     -3.596230   1.000000   1.000000
   35       -3.472226     -3.472208   1.000000   1.000000
   36       -3.354882     -3.354861   1.000000   1.000000
   37       -2.934382     -2.934360   1.000000   1.000000
   38       -2.696936     -2.696922   1.000000   1.000000
   39       -2.149932     -2.149931   1.000000   1.000000
   40       -2.083820     -2.083820   1.000000   1.000000
   41       -1.999191     -1.999190   1.000000   1.000000
   42       -1.932536     -1.932535   1.000000   1.000000
   43       -1.816025     -1.816009   1.000000   1.000000
   44       -1.507417     -1.507417   1.000000   1.000000
   45       -1.366871     -1.366867   1.000000   1.000000
   46       -1.272728     -1.272732   1.000000   1.000000
   47       -1.113939     -1.113940   1.000000   1.000000
   48       -1.090662     -1.090664   1.000000   1.000000
   49       -1.001772     -1.001776   1.000000   1.000000
   50       -0.984291     -0.984293   1.000000   1.000000
   51       -0.909968     -0.909969   1.000000   1.000000
   52       -0.736736     -0.736743   1.000000   1.000000
   53       -0.428094     -0.428096   1.000000   1.000000
   54       -0.248909     -0.248915   1.000000   1.000000
   55       -0.178517     -0.178530   1.000000   1.000000
   56       -0.079646     -0.079653   1.000000   1.000000
   57        0.025277      0.025270   1.000000   1.000000
   58        0.072379      0.072383   1.000000   1.000000
   59        0.197342      0.197343   1.000000   1.000000
   60        0.258207      0.258213   1.000000   1.000000
   61        0.380938      0.380933   1.000000   1.000000
   62        0.408741      0.408728   1.000000   1.000000
   63        0.595521      0.595510   1.000000   1.000000
   64        0.660812      0.660803   1.000000   1.000000
   65        7.110422      7.110441   0.000000   0.000000
   66        8.423310      8.423296   0.000000   0.000000
   67        8.646317      8.646326   0.000000   0.000000