    9    9    1    2
  0.1129649E+02  0.5056463E-09  0.5058525E-09  0.5113570E-09  0.5000000E-15
  1.000000000000000E-004
  CAR 
 unknown system                          
     51    197     34
 
  0.0000000E+00  0.0000000E+00  0.0000000E+00  0.2551020E-02
    1      -44.305433    -44.305243   1.000000   1.000000
    2      -25.844828    -25.843620   1.000000   1.000000
    3      -24.768400    -24.768926   1.000000   1.000000
    4      -24.685135    -24.686370   1.000000   1.000000
    5      -24.112579    -24.106626   1.000000   1.000000
    6      -14.569884    -14.569637   1.000000   1.000000
    7      -13.815868    -13.819529   1.000000   1.000000
    8      -13.729563    -13.719839   1.000000   1.000000
    9      -12.870950    -12.869870   1.000000   1.000000
   10       -8.173712     -8.173613   1.000000   1.000000
   11       -7.750517     -7.748736   1.000000   1.000000
   12       -7.659123     -7.659070   1.000000   1.000000
   13       -7.149439     -7.149836   1.000000   1.000000
   14       -6.537937     -6.535422   1.000000   1.000000
   15       -6.226773     -6.221450   1.000000   1.000000
   16       -6.053066     -6.051155   1.000000   1.000000
   17       -6.016522     -6.017464   1.000000   1.000000
   18       -4.083718     -4.080721   1.000000   1.000000
   19       -4.013526     -4.009357   1.000000   1.000000
   20       -3.882747     -3.880407   1.000000   1.000000
   21       -3.725994     -3.726391   1.000000   1.000000
   22       -1.595251     -1.595448   1.000000   1.000000
   23       -1.460757     -1.457358   1.000000   1.000000
   24       -0.864149     -0.865012   1.000000   1.000000
   25       -0.081328     -0.075420   1.000000   1.000000
   26        1.560343      1.569695   0.000000   0.000000
   27        1.658822      1.662217   0.000000   0.000000
   28        1.700200      1.699318   0.000000   0.000000
   29        1.971107      1.970071   0.000000   0.000000
   30        7.468052      7.464196   0.000000   0.000000
   31        7.673625      7.680670   0.000000   0.000000
   32        8.893076      8.893505   0.000000   0.000000
   33        9.185362      9.181139   0.000000   0.000000
   34        9.455222      9.459943   0.000000   0.000000
 
  0.1250000E+00  0.1176919E-16 -0.5242081E-14  0.5102041E-02
    1      -44.305421    -44.305231   1.000000   1.000000
    2      -25.842337    -25.841124   1.000000   1.000000
    3      -24.769944    -24.770552   1.000000   1.000000
    4      -24.686815    -24.687957   1.000000   1.000000
    5      -24.112883    -24.106946   1.000000   1.000000
    6      -14.625272    -14.624935   1.000000   1.000000
    7      -13.784243    -13.787676   1.000000   1.000000
    8      -13.704166    -13.694808   1.000000   1.000000
    9      -12.870491    -12.869355   1.000000   1.000000
   10       -8.144701     -8.144657   1.000000   1.000000
   11       -7.768369     -7.766574   1.000000   1.000000
   12       -7.567231     -7.567215   1.000000   1.000000
   13       -7.151485     -7.151776   1.000000   1.000000
   14       -6.573893     -6.572075   1.000000   1.000000
   15       -6.328675     -6.323610   1.000000   1.000000
   16       -6.039454     -6.039689   1.000000   1.000000
   17       -5.996538     -5.994406   1.000000   1.000000
   18       -4.082883     -4.079760   1.000000   1.000000
   19       -4.011519     -4.007543   1.000000   1.000000
   20       -3.880081     -3.877714   1.000000   1.000000
   21       -3.723356     -3.723732   1.000000   1.000000
   22       -1.590157     -1.590355   1.000000   1.000000
   23       -1.432344     -1.429017   1.000000   1.000000
   24       -0.869589     -0.870370   1.000000   1.000000
   25       -0.117920     -0.112102   1.000000   1.000000
   26        1.556894      1.566267   0.000000   0.000000
   27        1.648791      1.651844   0.000000   0.000000
   28        1.704630      1.704148   0.000000   0.000000
   29        1.967197      1.966193   0.000000   0.000000
   30        7.701362      7.697701   0.000000   0.000000
   31        7.770067      7.777213   0.000000   0.000000
   32        8.048464      8.048037   0.000000   0.000000
   33        9.384095      9.383393   0.000000   0.000000
   34        9.816212      9.818998   0.000000   0.000000
 
  0.2500000E+00 -0.8163787E-17  0.4084967E-14  0.5102041E-02
    1      -44.305378    -44.305188   1.000000   1.000000
    2      -25.836335    -25.835110   1.000000   1.000000
    3      -24.773456    -24.774269   1.000000   1.000000
    4      -24.690536    -24.691445   1.000000   1.000000
    5      -24.113446    -24.107551   1.000000   1.000000
    6      -14.753848    -14.753362   1.000000   1.000000
    7      -13.705215    -13.708244   1.000000   1.000000
    8      -13.638256    -13.629485   1.000000   1.000000
    9      -12.874713    -12.873528   1.000000   1.000000
   10       -8.110442     -8.110479   1.000000   1.000000
   11       -7.806829     -7.805050   1.000000   1.000000
   12       -7.333837     -7.334244   1.000000   1.000000
   13       -7.115332     -7.115065   1.000000   1.000000
   14       -6.684791     -6.684433   1.000000   1.000000
   15       -6.491505     -6.486278   1.000000   1.000000
   16       -6.072213     -6.070903   1.000000   1.000000
   17       -5.970201     -5.968348   1.000000   1.000000
   18       -4.080253     -4.076799   1.000000   1.000000
   19       -4.006120     -4.002645   1.000000   1.000000
   20       -3.873800     -3.871347   1.000000   1.000000
   21       -3.717164     -3.717495   1.000000   1.000000
   22       -1.570762     -1.570941   1.000000   1.000000
   23       -1.349992     -1.346902   1.000000   1.000000
   24       -0.879496     -0.880073   1.000000   1.000000
   25       -0.204664     -0.198990   1.000000   1.000000
   26        1.549920      1.559370   0.000000   0.000000
   27        1.633557      1.636681   0.000000   0.000000
   28        1.706358      1.705909   0.000000   0.000000
   29        1.956987      1.956024   0.000000   0.000000
   30        6.843093      6.844245   0.000000   0.000000
   31        8.199545      8.204575   0.000000   0.000000
   32        8.283475      8.279636   0.000000   0.000000
   33        9.631002      9.631932   0.000000   0.000000
   34        9.869815      9.872179   0.000000   0.000000
 
  0.3750000E+00  0.1249351E-16 -0.1141143E-14  0.5102041E-02
    1      -44.305325    -44.305135   1.000000   1.000000
    2      -25.830328    -25.829092   1.000000   1.000000
    3      -24.776992    -24.778012   1.000000   1.000000
    4      -24.694020    -24.694693   1.000000   1.000000
    5      -24.114016    -24.108161   1.000000   1.000000
    6      -14.875544    -14.874965   1.000000   1.000000
    7      -13.621513    -13.624764   1.000000   1.000000
    8      -13.564681    -13.555634   1.000000   1.000000
    9      -12.888930    -12.887878   1.000000   1.000000
   10       -8.095149     -8.095233   1.000000   1.000000
   11       -7.835304     -7.833556   1.000000   1.000000
   12       -7.224505     -7.225151   1.000000   1.000000
   13       -6.910992     -6.910564   1.000000   1.000000
   14       -6.827879     -6.828458   1.000000   1.000000
   15       -6.626900     -6.621380   1.000000   1.000000
   16       -6.087816     -6.085337   1.000000   1.000000
   17       -5.996204     -5.994719   1.000000   1.000000
   18       -4.076953     -4.073142   1.000000   1.000000
   19       -3.999820     -3.996885   1.000000   1.000000
   20       -3.867740     -3.865176   1.000000   1.000000
   21       -3.711213     -3.711502   1.000000   1.000000
   22       -1.542696     -1.542840   1.000000   1.000000
   23       -1.250947     -1.248202   1.000000   1.000000
   24       -0.885223     -0.885582   1.000000   1.000000
   25       -0.288858     -0.283220   1.000000   1.000000
   26        1.545301      1.554947   0.000000   0.000000
   27        1.624159      1.627564   0.000000   0.000000
   28        1.702314      1.701585   0.000000   0.000000
   29        1.945562      1.944581   0.000000   0.000000
   30        5.989321      5.990184   0.000000   0.000000
   31        8.652258      8.657072   0.000000   0.000000
   32        8.846879      8.842925   0.000000   0.000000
   33        9.617835      9.619611   0.000000   0.000000
   34        9.860455      9.861854   0.000000   0.000000
 
  0.5000000E+00 -0.2799349E-16 -0.6392257E-14  0.2551020E-02
    1      -44.305314    -44.305123   1.000000   1.000000
    2      -25.827922    -25.826681   1.000000   1.000000
    3      -24.778524    -24.779633   1.000000   1.000000
    4      -24.695494    -24.696066   1.000000   1.000000
    5      -24.114295    -24.108457   1.000000   1.000000
    6      -14.924236    -14.923628   1.000000   1.000000
    7      -13.585251    -13.588973   1.000000   1.000000
    8      -13.531277    -13.521633   1.000000   1.000000
    9      -12.898840    -12.897939   1.000000   1.000000
   10       -8.089664     -8.089766   1.000000   1.000000
   11       -7.843170     -7.841435   1.000000   1.000000
   12       -7.208008     -7.208555   1.000000   1.000000
   13       -6.900034     -6.900906   1.000000   1.000000
   14       -6.786675     -6.786677   1.000000   1.000000
   15       -6.677891     -6.671926   1.000000   1.000000
   16       -6.089959     -6.087122   1.000000   1.000000
   17       -6.017353     -6.016009   1.000000   1.000000
   18       -4.075462     -4.071498   1.000000   1.000000
   19       -3.996938     -3.994233   1.000000   1.000000
   20       -3.865293     -3.862677   1.000000   1.000000
   21       -3.708825     -3.709098   1.000000   1.000000
   22       -1.528825     -1.528953   1.000000   1.000000
   23       -1.205832     -1.203269   1.000000   1.000000
   24       -0.886687     -0.886949   1.000000   1.000000
   25       -0.322790     -0.317130   1.000000   1.000000
   26        1.544134      1.553920   0.000000   0.000000
   27        1.621313      1.624836   0.000000   0.000000
   28        1.699515      1.698625   0.000000   0.000000
   29        1.940395      1.939385   0.000000   0.000000
   30        5.671355      5.672149   0.000000   0.000000
   31        8.956669      8.961358   0.000000   0.000000
   32        9.054696      9.051650   0.000000   0.000000
   33        9.391836      9.392121   0.000000   0.000000
   34        9.921673      9.923820   0.000000   0.000000
 
 -0.4276143E-18  0.1428571E+00 -0.3675050E-14  0.5102041E-02
    1      -44.305424    -44.305233   1.000000   1.000000
    2      -25.830659    -25.829410   1.000000   1.000000
    3      -24.779561    -24.781223   1.000000   1.000000
    4      -24.683411    -24.683502   1.000000   1.000000
    5      -24.123423    -24.117522   1.000000   1.000000
    6      -14.556765    -14.556592   1.000000   1.000000
    7      -13.823319    -13.826550   1.000000   1.000000
    8      -13.733490    -13.724038   1.000000   1.000000
    9      -12.883780    -12.882793   1.000000   1.000000
   10       -8.131241     -8.131099   1.000000   1.000000
   11       -7.722021     -7.720428   1.000000   1.000000
   12       -7.587301     -7.587261   1.000000   1.000000
   13       -7.077780     -7.078115   1.000000   1.000000
   14       -6.572004     -6.569275   1.000000   1.000000
   15       -6.252847     -6.248346   1.000000   1.000000
   16       -6.043630     -6.044263   1.000000   1.000000
   17       -6.033478     -6.031406   1.000000   1.000000
   18       -4.160822     -4.153047   1.000000   1.000000
   19       -4.085193     -4.085615   1.000000   1.000000
   20       -3.915261     -3.913477   1.000000   1.000000
   21       -3.772244     -3.772057   1.000000   1.000000
   22       -1.543305     -1.543075   1.000000   1.000000
   23       -1.381733     -1.379045   1.000000   1.000000
   24       -0.790114     -0.790887   1.000000   1.000000
   25       -0.134695     -0.129095   1.000000   1.000000
   26        1.473274      1.483131   0.000000   0.000000
   27        1.592503      1.595062   0.000000   0.000000
   28        1.703317      1.703040   0.000000   0.000000
   29        1.926266      1.925520   0.000000   0.000000
   30        7.514869      7.511105   0.000000   0.000000
   31        7.650036      7.657060   0.000000   0.000000
   32        8.749851      8.749646   0.000000   0.000000
   33        9.201814      9.200167   0.000000   0.000000
   34        9.642755      9.645922   0.000000   0.000000
 
  0.1250000E+00  0.1428571E+00  0.5643959E-14  0.5102041E-02
    1      -44.305408    -44.305217   1.000000   1.000000
    2      -25.830095    -25.828845   1.000000   1.000000
    3      -24.779969    -24.781572   1.000000   1.000000
    4      -24.683104    -24.683252   1.000000   1.000000
    5      -24.124038    -24.118139   1.000000   1.000000
    6      -14.567933    -14.567665   1.000000   1.000000
    7      -13.824143    -13.828986   1.000000   1.000000
    8      -13.728534    -13.717520   1.000000   1.000000
    9      -12.876516    -12.875558   1.000000   1.000000
   10       -8.121429     -8.121322   1.000000   1.000000
   11       -7.717770     -7.716192   1.000000   1.000000
   12       -7.571302     -7.571199   1.000000   1.000000
   13       -7.104640     -7.104935   1.000000   1.000000
   14       -6.566164     -6.563312   1.000000   1.000000
   15       -6.262790     -6.258370   1.000000   1.000000
   16       -6.054172     -6.054848   1.000000   1.000000
   17       -6.018328     -6.016353   1.000000   1.000000
   18       -4.162990     -4.155149   1.000000   1.000000
   19       -4.079968     -4.080606   1.000000   1.000000
   20       -3.917305     -3.915286   1.000000   1.000000
   21       -3.772771     -3.772636   1.000000   1.000000
   22       -1.530207     -1.529984   1.000000   1.000000
   23       -1.373625     -1.370908   1.000000   1.000000
   24       -0.799320     -0.799995   1.000000   1.000000
   25       -0.141892     -0.136168   1.000000   1.000000
   26        1.481069      1.490998   0.000000   0.000000
   27        1.572980      1.574854   0.000000   0.000000
   28        1.710351      1.710250   0.000000   0.000000
   29        1.925669      1.925002   0.000000   0.000000
   30        7.422743      7.420626   0.000000   0.000000
   31        7.759980      7.765494   0.000000   0.000000
   32        8.499908      8.499776   0.000000   0.000000
   33        9.376477      9.375737   0.000000   0.000000
   34        9.719165      9.721327   0.000000   0.000000
 
  0.2500000E+00  0.1428571E+00  0.4130420E-15  0.5102041E-02
    1      -44.305375    -44.305184   1.000000   1.000000
    2      -25.825428    -25.824169   1.000000   1.000000
    3      -24.782398    -24.784092   1.000000   1.000000
    4      -24.686020    -24.686055   1.000000   1.000000
    5      -24.124954    -24.119087   1.000000   1.000000
    6      -14.670056    -14.669602   1.000000   1.000000
    7      -13.780137    -13.784521   1.000000   1.000000
    8      -13.666355    -13.655958   1.000000   1.000000
    9      -12.875286    -12.874333   1.000000   1.000000
   10       -8.073049     -8.073028   1.000000   1.000000
   11       -7.740741     -7.739163   1.000000   1.000000
   12       -7.393650     -7.393677   1.000000   1.000000
   13       -7.120831     -7.120762   1.000000   1.000000
   14       -6.629838     -6.628130   1.000000   1.000000
   15       -6.393803     -6.389240   1.000000   1.000000
   16       -6.085117     -6.085223   1.000000   1.000000
   17       -5.986291     -5.984062   1.000000   1.000000
   18       -4.165167     -4.157426   1.000000   1.000000
   19       -4.071673     -4.072399   1.000000   1.000000
   20       -3.912403     -3.910177   1.000000   1.000000
   21       -3.768561     -3.768449   1.000000   1.000000
   22       -1.501120     -1.501075   1.000000   1.000000
   23       -1.321056     -1.318341   1.000000   1.000000
   24       -0.812676     -0.813113   1.000000   1.000000
   25       -0.209575     -0.203865   1.000000   1.000000
   26        1.481313      1.491491   0.000000   0.000000
   27        1.550369      1.551759   0.000000   0.000000
   28        1.712751      1.712708   0.000000   0.000000
   29        1.918636      1.918072   0.000000   0.000000
   30        7.342929      7.344277   0.000000   0.000000
   31        7.705420      7.704792   0.000000   0.000000
   32        8.215022      8.217485   0.000000   0.000000
   33        9.584979      9.585898   0.000000   0.000000
   34       10.034609     10.037745   0.000000   0.000000
 
  0.3750000E+00  0.1428571E+00 -0.4835978E-14  0.5102041E-02
    1      -44.305334    -44.305144   1.000000   1.000000
    2      -25.819414    -25.818142   1.000000   1.000000
    3      -24.785294    -24.787186   1.000000   1.000000
    4      -24.690222    -24.690028   1.000000   1.000000
    5      -24.125363    -24.119539   1.000000   1.000000
    6      -14.798744    -14.798181   1.000000   1.000000
    7      -13.703305    -13.707128   1.000000   1.000000
    8      -13.585150    -13.575268   1.000000   1.000000
    9      -12.888408    -12.887595   1.000000   1.000000
   10       -8.047955     -8.047981   1.000000   1.000000
   11       -7.775393     -7.773839   1.000000   1.000000
   12       -7.225919     -7.226395   1.000000   1.000000
   13       -6.983970     -6.983272   1.000000   1.000000
   14       -6.757336     -6.757055   1.000000   1.000000
   15       -6.537359     -6.532646   1.000000   1.000000
   16       -6.119598     -6.117855   1.000000   1.000000
   17       -5.994882     -5.993331   1.000000   1.000000
   18       -4.164736     -4.157089   1.000000   1.000000
   19       -4.065246     -4.065983   1.000000   1.000000
   20       -3.903520     -3.901243   1.000000   1.000000
   21       -3.762430     -3.762295   1.000000   1.000000
   22       -1.467696     -1.467736   1.000000   1.000000
   23       -1.235648     -1.233209   1.000000   1.000000
   24       -0.816860     -0.817055   1.000000   1.000000
   25       -0.296677     -0.290976   1.000000   1.000000
   26        1.476744      1.487221   0.000000   0.000000
   27        1.536631      1.537977   0.000000   0.000000
   28        1.708233      1.708103   0.000000   0.000000
   29        1.907264      1.906717   0.000000   0.000000
   30        6.360219      6.361111   0.000000   0.000000
   31        8.212422      8.212825   0.000000   0.000000
   32        8.747421      8.748792   0.000000   0.000000
   33        9.693637      9.697337   0.000000   0.000000
   34        9.985563      9.987592   0.000000   0.000000
 
  0.5000000E+00  0.1428571E+00  0.4496394E-14  0.5102041E-02
    1      -44.305314    -44.305124   1.000000   1.000000
    2      -25.815677    -25.814395   1.000000   1.000000
    3      -24.787177    -24.789257   1.000000   1.000000
    4      -24.693379    -24.692979   1.000000   1.000000
    5      -24.125303    -24.119507   1.000000   1.000000
    6      -14.879886    -14.879299   1.000000   1.000000
    7      -13.635642    -13.639224   1.000000   1.000000
    8      -13.537239    -13.527458   1.000000   1.000000
    9      -12.905609    -12.904964   1.000000   1.000000
   10       -8.041154     -8.041210   1.000000   1.000000
   11       -7.804106     -7.802557   1.000000   1.000000
   12       -7.174090     -7.174459   1.000000   1.000000
   13       -6.875334     -6.875802   1.000000   1.000000
   14       -6.780662     -6.780263   1.000000   1.000000
   15       -6.639991     -6.634918   1.000000   1.000000
   16       -6.137086     -6.134359   1.000000   1.000000
   17       -6.005394     -6.004178   1.000000   1.000000
   18       -4.161745     -4.154098   1.000000   1.000000
   19       -4.064567     -4.065286   1.000000   1.000000
   20       -3.896497     -3.894332   1.000000   1.000000
   21       -3.758156     -3.757965   1.000000   1.000000
   22       -1.451376     -1.451421   1.000000   1.000000
   23       -1.172774     -1.170671   1.000000   1.000000
   24       -0.809641     -0.809713   1.000000   1.000000
   25       -0.352208     -0.346495   1.000000   1.000000
   26        1.470264      1.480895   0.000000   0.000000
   27        1.539183      1.540923   0.000000   0.000000
   28        1.700022      1.699728   0.000000   0.000000
   29        1.897698      1.897067   0.000000   0.000000
   30        5.809079      5.809898   0.000000   0.000000
   31        8.771475      8.771618   0.000000   0.000000
   32        9.002677      9.004827   0.000000   0.000000
   33        9.458758      9.459601   0.000000   0.000000
   34       10.053221     10.057187   0.000000   0.000000
 
 -0.3750000E+00  0.1428571E+00 -0.1710898E-14  0.5102041E-02
    1      -44.305324    -44.305133   1.000000   1.000000
    2      -25.816203    -25.814921   1.000000   1.000000
    3      -24.786827    -24.788965   1.000000   1.000000
    4      -24.693653    -24.693199   1.000000   1.000000
    5      -24.124644    -24.118845   1.000000   1.000000
    6      -14.870763    -14.870214   1.000000   1.000000
    7      -13.634437    -13.635960   1.000000   1.000000
    8      -13.546184    -13.538621   1.000000   1.000000
    9      -12.906635    -12.905809   1.000000   1.000000
   10       -8.049146     -8.049181   1.000000   1.000000
   11       -7.817576     -7.816027   1.000000   1.000000
   12       -7.146063     -7.146605   1.000000   1.000000
   13       -6.875784     -6.876288   1.000000   1.000000
   14       -6.799801     -6.799398   1.000000   1.000000
   15       -6.647457     -6.642279   1.000000   1.000000
   16       -6.137164     -6.134357   1.000000   1.000000
   17       -5.986978     -5.985726   1.000000   1.000000
   18       -4.158990     -4.151304   1.000000   1.000000
   19       -4.070079     -4.070718   1.000000   1.000000
   20       -3.895434     -3.893473   1.000000   1.000000
   21       -3.757869     -3.757625   1.000000   1.000000
   22       -1.467093     -1.467142   1.000000   1.000000
   23       -1.183701     -1.181581   1.000000   1.000000
   24       -0.800364     -0.800515   1.000000   1.000000
   25       -0.345891     -0.340301   1.000000   1.000000
   26        1.462940      1.473408   0.000000   0.000000
   27        1.557813      1.560235   0.000000   0.000000
   28        1.693695      1.693240   0.000000   0.000000
   29        1.897764      1.897055   0.000000   0.000000
   30        5.861139      5.861986   0.000000   0.000000
   31        8.660463      8.663885   0.000000   0.000000
   32        9.089200      9.086392   0.000000   0.000000
   33        9.555121      9.557451   0.000000   0.000000
   34       10.077416     10.072969   0.000000   0.000000
 
 -0.2500000E+00  0.1428571E+00  0.1487777E-15  0.5102041E-02
    1      -44.305359    -44.305168   1.000000   1.000000
    2      -25.820865    -25.819593   1.000000   1.000000
    3      -24.784394    -24.786434   1.000000   1.000000
    4      -24.690942    -24.690607   1.000000   1.000000
    5      -24.123775    -24.117945   1.000000   1.000000
    6      -14.775636    -14.775188   1.000000   1.000000
    7      -13.702356    -13.701839   1.000000   1.000000
    8      -13.600949    -13.595604   1.000000   1.000000
    9      -12.896489    -12.895404   1.000000   1.000000
   10       -8.064867     -8.064844   1.000000   1.000000
   11       -7.801646     -7.800079   1.000000   1.000000
   12       -7.196866     -7.197567   1.000000   1.000000
   13       -6.991936     -6.991350   1.000000   1.000000
   14       -6.763766     -6.763638   1.000000   1.000000
   15       -6.551142     -6.546167   1.000000   1.000000
   16       -6.119378     -6.117389   1.000000   1.000000
   17       -5.957929     -5.956363   1.000000   1.000000
   18       -4.158555     -4.150894   1.000000   1.000000
   19       -4.078407     -4.078850   1.000000   1.000000
   20       -3.900209     -3.898445   1.000000   1.000000
   21       -3.761576     -3.761313   1.000000   1.000000
   22       -1.503689     -1.503722   1.000000   1.000000
   23       -1.260698     -1.258268   1.000000   1.000000
   24       -0.794746     -0.795148   1.000000   1.000000
   25       -0.280617     -0.275201   1.000000   1.000000
   26        1.459670      1.469900   0.000000   0.000000
   27        1.581023      1.583944   0.000000   0.000000
   28        1.692392      1.691857   0.000000   0.000000
   29        1.907816      1.907077   0.000000   0.000000
   30        6.501510      6.502573   0.000000   0.000000
   31        8.186295      8.189615   0.000000   0.000000
   32        8.789480      8.786350   0.000000   0.000000
   33        9.661913      9.683289   0.000000   0.000000
   34       10.034804     10.002137   0.000000   0.000000
 
 -0.1250000E+00  0.1428571E+00  0.2364588E-14  0.5102041E-02
    1      -44.305410    -44.305219   1.000000   1.000000
    2      -25.826866    -25.825607   1.000000   1.000000
    3      -24.781360    -24.783204   1.000000   1.000000
    4      -24.686728    -24.686618   1.000000   1.000000
    5      -24.123352    -24.117478   1.000000   1.000000
    6      -14.644976    -14.644689   1.000000   1.000000
    7      -13.779057    -13.779482   1.000000   1.000000
    8      -13.678872    -13.672442   1.000000   1.000000
    9      -12.889395    -12.888307   1.000000   1.000000
   10       -8.090823     -8.090735   1.000000   1.000000
   11       -7.758737     -7.757140   1.000000   1.000000
   12       -7.429769     -7.429863   1.000000   1.000000
   13       -7.061968     -7.062100   1.000000   1.000000
   14       -6.642238     -6.640766   1.000000   1.000000
   15       -6.394485     -6.389686   1.000000   1.000000
   16       -6.083001     -6.082648   1.000000   1.000000
   17       -5.968990     -5.966939   1.000000   1.000000
   18       -4.159587     -4.151941   1.000000   1.000000
   19       -4.084521     -4.084814   1.000000   1.000000
   20       -3.908110     -3.906427   1.000000   1.000000
   21       -3.767466     -3.767227   1.000000   1.000000
   22       -1.534642     -1.534573   1.000000   1.000000
   23       -1.343091     -1.340433   1.000000   1.000000
   24       -0.790664     -0.791327   1.000000   1.000000
   25       -0.192710     -0.187287   1.000000   1.000000
   26        1.463677      1.473680   0.000000   0.000000
   27        1.595636      1.598621   0.000000   0.000000
   28        1.696241      1.695779   0.000000   0.000000
   29        1.919694      1.918938   0.000000   0.000000
   30        7.503521      7.506714   0.000000   0.000000
   31        7.808013      7.808464   0.000000   0.000000
   32        8.158660      8.157306   0.000000   0.000000
   33        9.402813      9.402590   0.000000   0.000000
   34       10.029670     10.031395   0.000000   0.000000
 
 -0.5771177E-18  0.2857143E+00  0.5337273E-16  0.5102041E-02
    1      -44.305403    -44.305213   1.000000   1.000000
    2      -25.797106    -25.795743   1.000000   1.000000
    3      -24.812040    -24.815241   1.000000   1.000000
    4      -24.672774    -24.671325   1.000000   1.000000
    5      -24.148642    -24.142858   1.000000   1.000000
    6      -14.524828    -14.524862   1.000000   1.000000
    7      -13.855895    -13.856943   1.000000   1.000000
    8      -13.727811    -13.720132   1.000000   1.000000
    9      -12.913450    -12.912688   1.000000   1.000000
   10       -8.027929     -8.027671   1.000000   1.000000
   11       -7.666959     -7.665917   1.000000   1.000000
   12       -7.380529     -7.380379   1.000000   1.000000
   13       -6.949871     -6.949627   1.000000   1.000000
   14       -6.638613     -6.636038   1.000000   1.000000
   15       -6.315231     -6.312515   1.000000   1.000000
   16       -6.075090     -6.075783   1.000000   1.000000
   17       -5.966656     -5.963488   1.000000   1.000000
   18       -4.535861     -4.529933   1.000000   1.000000
   19       -4.183206     -4.181151   1.000000   1.000000
   20       -4.019199     -4.018291   1.000000   1.000000
   21       -3.772675     -3.771636   1.000000   1.000000
   22       -1.454940     -1.453972   1.000000   1.000000
   23       -1.108762     -1.107701   1.000000   1.000000
   24       -0.679220     -0.678867   1.000000   1.000000
   25       -0.191806     -0.187927   1.000000   1.000000
   26        1.111194      1.119385  -0.010483  -0.018265
   27        1.537804      1.542571   0.000000   0.000000
   28        1.664389      1.664866   0.000000   0.000000
   29        1.870277      1.869854   0.000000   0.000000
   30        7.599212      7.605577   0.000000   0.000000
   31        7.627802      7.625055   0.000000   0.000000
   32        8.496988      8.495681   0.000000   0.000000
   33        9.220002      9.219772   0.000000   0.000000
   34       10.089554     10.091972   0.000000   0.000000
 
  0.1250000E+00  0.2857143E+00  0.1933117E-14  0.5102041E-02
    1      -44.305393    -44.305203   1.000000   1.000000
    2      -25.797743    -25.796384   1.000000   1.000000
    3      -24.810757    -24.813881   1.000000   1.000000
    4      -24.672242    -24.670869   1.000000   1.000000
    5      -24.149515    -24.143726   1.000000   1.000000
    6      -14.507299    -14.507246   1.000000   1.000000
    7      -13.894639    -13.896600   1.000000   1.000000
    8      -13.716221    -13.707598   1.000000   1.000000
    9      -12.903042    -12.902374   1.000000   1.000000
   10       -8.049531     -8.049310   1.000000   1.000000
   11       -7.658120     -7.657134   1.000000   1.000000
   12       -7.398672     -7.398341   1.000000   1.000000
   13       -6.985786     -6.985768   1.000000   1.000000
   14       -6.612536     -6.608939   1.000000   1.000000
   15       -6.252215     -6.250612   1.000000   1.000000
   16       -6.053378     -6.054626   1.000000   1.000000
   17       -6.000598     -5.996746   1.000000   1.000000
   18       -4.550425     -4.544415   1.000000   1.000000
   19       -4.173885     -4.171938   1.000000   1.000000
   20       -4.015805     -4.014791   1.000000   1.000000
   21       -3.778048     -3.776993   1.000000   1.000000