    9    9    1    2
  0.1129649E+02  0.5054638E-09  0.4961558E-09  0.5116103E-09  0.5000000E-15
  1.000000000000000E-004
  CAR 
 unknown system                          
     51    197     34
 
  0.0000000E+00  0.0000000E+00  0.0000000E+00  0.2551020E-02
    1      -44.371531    -44.371229   1.000000   1.000000
    2      -25.359866    -25.360001   1.000000   1.000000
    3      -24.283526    -24.283603   1.000000   1.000000
    4      -24.044146    -24.043909   1.000000   1.000000
    5      -23.475222    -23.474075   1.000000   1.000000
    6      -14.806524    -14.806449   1.000000   1.000000
    7      -14.016499    -14.016035   1.000000   1.000000
    8      -13.805824    -13.804829   1.000000   1.000000
    9      -12.998317    -12.998153   1.000000   1.000000
   10       -8.026587     -8.026576   1.000000   1.000000
   11       -7.592097     -7.591886   1.000000   1.000000
   12       -7.525572     -7.525440   1.000000   1.000000
   13       -6.984780     -6.984655   1.000000   1.000000
   14       -6.372062     -6.371737   1.000000   1.000000
   15       -6.143353     -6.142739   1.000000   1.000000
   16       -5.910727     -5.910369   1.000000   1.000000
   17       -5.827555     -5.827172   1.000000   1.000000
   18       -3.820983     -3.820545   1.000000   1.000000
   19       -3.653315     -3.652250   1.000000   1.000000
   20       -3.457140     -3.456413   1.000000   1.000000
   21       -3.305836     -3.305830   1.000000   1.000000
   22       -1.769876     -1.769771   1.000000   1.000000
   23       -1.625229     -1.624633   1.000000   1.000000
   24       -1.038845     -1.038792   1.000000   1.000000
   25       -0.219979     -0.218788   1.000000   1.000000
   26        1.429672      1.431457   0.000000   0.000000
   27        1.586908      1.587280   0.000000   0.000000
   28        1.645021      1.645346   0.000000   0.000000
   29        1.918936      1.918849   0.000000   0.000000
   30        6.878497      6.878283   0.000000   0.000000
   31        7.089282      7.090423   0.000000   0.000000
   32        8.381638      8.381334   0.000000   0.000000
   33        8.662916      8.663124   0.000000   0.000000
   34        8.886584      8.886825   0.000000   0.000000
 
  0.1250000E+00 -0.3201741E-17 -0.6376779E-14  0.5102041E-02
    1      -44.371515    -44.371213   1.000000   1.000000
    2      -25.357299    -25.357435   1.000000   1.000000
    3      -24.285337    -24.285415   1.000000   1.000000
    4      -24.045178    -24.044937   1.000000   1.000000
    5      -23.475721    -23.474576   1.000000   1.000000
    6      -14.853943    -14.853850   1.000000   1.000000
    7      -13.987449    -13.986991   1.000000   1.000000
    8      -13.787566    -13.786585   1.000000   1.000000
    9      -12.995072    -12.994904   1.000000   1.000000
   10       -7.995727     -7.995719   1.000000   1.000000
   11       -7.600749     -7.600490   1.000000   1.000000
   12       -7.452281     -7.452203   1.000000   1.000000
   13       -6.987544     -6.987405   1.000000   1.000000
   14       -6.415590     -6.415346   1.000000   1.000000
   15       -6.226770     -6.226147   1.000000   1.000000
   16       -5.880686     -5.880306   1.000000   1.000000
   17       -5.827600     -5.827172   1.000000   1.000000
   18       -3.819740     -3.819294   1.000000   1.000000
   19       -3.650125     -3.649072   1.000000   1.000000
   20       -3.456313     -3.455593   1.000000   1.000000
   21       -3.303151     -3.303136   1.000000   1.000000
   22       -1.766152     -1.766047   1.000000   1.000000
   23       -1.599539     -1.598950   1.000000   1.000000
   24       -1.044589     -1.044526   1.000000   1.000000
   25       -0.250551     -0.249371   1.000000   1.000000
   26        1.425510      1.427302   0.000000   0.000000
   27        1.582102      1.582488   0.000000   0.000000
   28        1.645817      1.646134   0.000000   0.000000
   29        1.914699      1.914603   0.000000   0.000000
   30        7.084936      7.084885   0.000000   0.000000
   31        7.179962      7.181120   0.000000   0.000000
   32        7.508306      7.508093   0.000000   0.000000
   33        8.693001      8.692928   0.000000   0.000000
   34        9.581011      9.580827   0.000000   0.000000
 
  0.2500000E+00  0.8541245E-18  0.1799838E-14  0.5102041E-02
    1      -44.371472    -44.371170   1.000000   1.000000
    2      -25.351218    -25.351356   1.000000   1.000000
    3      -24.289609    -24.289690   1.000000   1.000000
    4      -24.047750    -24.047499   1.000000   1.000000
    5      -23.477040    -23.475901   1.000000   1.000000
    6      -14.964776    -14.964650   1.000000   1.000000
    7      -13.914463    -13.914027   1.000000   1.000000
    8      -13.740843    -13.739868   1.000000   1.000000
    9      -12.991320    -12.991152   1.000000   1.000000
   10       -7.957225     -7.957218   1.000000   1.000000
   11       -7.633221     -7.632953   1.000000   1.000000
   12       -7.232115     -7.232095   1.000000   1.000000
   13       -6.971017     -6.970827   1.000000   1.000000
   14       -6.536422     -6.536321   1.000000   1.000000
   15       -6.370678     -6.370014   1.000000   1.000000
   16       -5.873648     -5.873235   1.000000   1.000000
   17       -5.826843     -5.826351   1.000000   1.000000
   18       -3.816305     -3.815836   1.000000   1.000000
   19       -3.642513     -3.641490   1.000000   1.000000
   20       -3.454222     -3.453516   1.000000   1.000000
   21       -3.296685     -3.296650   1.000000   1.000000
   22       -1.751575     -1.751463   1.000000   1.000000
   23       -1.525429     -1.524868   1.000000   1.000000
   24       -1.055519     -1.055436   1.000000   1.000000
   25       -0.322580     -0.321416   1.000000   1.000000
   26        1.416511      1.418324   0.000000   0.000000
   27        1.572367      1.572759   0.000000   0.000000
   28        1.645979      1.646301   0.000000   0.000000
   29        1.904845      1.904727   0.000000   0.000000
   30        6.300142      6.300479   0.000000   0.000000
   31        7.547317      7.548087   0.000000   0.000000
   32        7.639339      7.639137   0.000000   0.000000
   33        8.885641      8.885836   0.000000   0.000000
   34        9.939188      9.949245   0.000000   0.000000
 
  0.3750000E+00  0.1662756E-17 -0.4567221E-14  0.5102041E-02
    1      -44.371428    -44.371126   1.000000   1.000000
    2      -25.345007    -25.345146   1.000000   1.000000
    3      -24.293845    -24.293929   1.000000   1.000000
    4      -24.050282    -24.050022   1.000000   1.000000
    5      -23.478356    -23.477222   1.000000   1.000000
    6      -15.070577    -15.070428   1.000000   1.000000
    7      -13.837391    -13.837008   1.000000   1.000000
    8      -13.689561    -13.688533   1.000000   1.000000
    9      -12.994682    -12.994530   1.000000   1.000000
   10       -7.939939     -7.939932   1.000000   1.000000
   11       -7.658798     -7.658536   1.000000   1.000000
   12       -7.084552     -7.084530   1.000000   1.000000
   13       -6.841246     -6.841078   1.000000   1.000000
   14       -6.674442     -6.674417   1.000000   1.000000
   15       -6.485270     -6.484554   1.000000   1.000000
   16       -5.898004     -5.897743   1.000000   1.000000
   17       -5.834453     -5.833766   1.000000   1.000000
   18       -3.812386     -3.811894   1.000000   1.000000
   19       -3.634984     -3.633995   1.000000   1.000000
   20       -3.451980     -3.451283   1.000000   1.000000
   21       -3.290229     -3.290175   1.000000   1.000000
   22       -1.730433     -1.730307   1.000000   1.000000
   23       -1.436624     -1.436110   1.000000   1.000000
   24       -1.062516     -1.062413   1.000000   1.000000
   25       -0.391981     -0.390820   1.000000   1.000000
   26        1.409285      1.411130   0.000000   0.000000
   27        1.563854      1.564217   0.000000   0.000000
   28        1.644671      1.645025   0.000000   0.000000
   29        1.895344      1.895204   0.000000   0.000000
   30        5.465878      5.466145   0.000000   0.000000
   31        7.976796      7.977749   0.000000   0.000000
   32        8.149524      8.149210   0.000000   0.000000
   33        8.916916      8.917107   0.000000   0.000000
   34        9.991525      9.998386   0.000000   0.000000
 
  0.5000000E+00  0.1708249E-17  0.3599675E-14  0.2551020E-02
    1      -44.371431    -44.371130   1.000000   1.000000
    2      -25.342581    -25.342720   1.000000   1.000000
    3      -24.295705    -24.295790   1.000000   1.000000
    4      -24.051284    -24.051020   1.000000   1.000000
    5      -23.479028    -23.477896   1.000000   1.000000
    6      -15.113175    -15.113019   1.000000   1.000000
    7      -13.804218    -13.803876   1.000000   1.000000
    8      -13.666545    -13.665466   1.000000   1.000000
    9      -12.998802    -12.998666   1.000000   1.000000
   10       -7.934366     -7.934360   1.000000   1.000000
   11       -7.665968     -7.665709   1.000000   1.000000
   12       -7.065589     -7.065532   1.000000   1.000000
   13       -6.771630     -6.771529   1.000000   1.000000
   14       -6.702885     -6.702900   1.000000   1.000000
   15       -6.528089     -6.527305   1.000000   1.000000
   16       -5.918124     -5.917926   1.000000   1.000000
   17       -5.835617     -5.834859   1.000000   1.000000
   18       -3.810675     -3.810172   1.000000   1.000000
   19       -3.631879     -3.630904   1.000000   1.000000
   20       -3.451012     -3.450318   1.000000   1.000000
   21       -3.287554     -3.287493   1.000000   1.000000
   22       -1.720084     -1.719951   1.000000   1.000000
   23       -1.396225     -1.395737   1.000000   1.000000
   24       -1.064450     -1.064339   1.000000   1.000000
   25       -0.419873     -0.418708   1.000000   1.000000
   26        1.406855      1.408717   0.000000   0.000000
   27        1.560465      1.560807   0.000000   0.000000
   28        1.643824      1.644198   0.000000   0.000000
   29        1.891486      1.891335   0.000000   0.000000
   30        5.156661      5.156923   0.000000   0.000000
   31        8.242194      8.243145   0.000000   0.000000
   32        8.368748      8.368647   0.000000   0.000000
   33        8.775267      8.775292   0.000000   0.000000
   34       10.023464     10.022560   0.000000   0.000000
 
  0.1056390E-18  0.1428571E+00  0.6478285E-16  0.5102041E-02
    1      -44.371524    -44.371223   1.000000   1.000000
    2      -25.342610    -25.342751   1.000000   1.000000
    3      -24.282150    -24.282301   1.000000   1.000000
    4      -24.058533    -24.058202   1.000000   1.000000
    5      -23.488022    -23.486888   1.000000   1.000000
    6      -14.786085    -14.786030   1.000000   1.000000
    7      -14.009881    -14.009462   1.000000   1.000000
    8      -13.830049    -13.828963   1.000000   1.000000
    9      -13.013956    -13.013818   1.000000   1.000000
   10       -7.980908     -7.980899   1.000000   1.000000
   11       -7.551405     -7.551164   1.000000   1.000000
   12       -7.462012     -7.461947   1.000000   1.000000
   13       -6.894545     -6.894411   1.000000   1.000000
   14       -6.405518     -6.405103   1.000000   1.000000
   15       -6.160285     -6.159766   1.000000   1.000000
   16       -5.894593     -5.894220   1.000000   1.000000
   17       -5.870555     -5.870196   1.000000   1.000000
   18       -3.865948     -3.865079   1.000000   1.000000
   19       -3.687625     -3.686954   1.000000   1.000000
   20       -3.561114     -3.560496   1.000000   1.000000
   21       -3.383233     -3.383111   1.000000   1.000000
   22       -1.703037     -1.702876   1.000000   1.000000
   23       -1.554381     -1.553897   1.000000   1.000000
   24       -0.949042     -0.948971   1.000000   1.000000
   25       -0.281294     -0.280137   1.000000   1.000000
   26        1.383323      1.385288   0.000000   0.000000
   27        1.505031      1.505668   0.000000   0.000000
   28        1.625542      1.625427   0.000000   0.000000
   29        1.859204      1.859189   0.000000   0.000000
   30        6.916870      6.916741   0.000000   0.000000
   31        7.070931      7.072003   0.000000   0.000000
   32        8.195039      8.194903   0.000000   0.000000
   33        8.595069      8.595048   0.000000   0.000000
   34        9.225165      9.225407   0.000000   0.000000
 
  0.1250000E+00  0.1428571E+00 -0.6312632E-14  0.5102041E-02
    1      -44.371515    -44.371213   1.000000   1.000000
    2      -25.341737    -25.341878   1.000000   1.000000
    3      -24.283012    -24.283158   1.000000   1.000000
    4      -24.057718    -24.057393   1.000000   1.000000
    5      -23.489106    -23.487972   1.000000   1.000000
    6      -14.799047    -14.798980   1.000000   1.000000
    7      -13.994320    -13.994154   1.000000   1.000000
    8      -13.843881    -13.842554   1.000000   1.000000
    9      -13.003742    -13.003601   1.000000   1.000000
   10       -7.966818     -7.966815   1.000000   1.000000
   11       -7.547937     -7.547693   1.000000   1.000000
   12       -7.442649     -7.442585   1.000000   1.000000
   13       -6.926409     -6.926262   1.000000   1.000000
   14       -6.394145     -6.393724   1.000000   1.000000
   15       -6.163722     -6.163191   1.000000   1.000000
   16       -5.913569     -5.913304   1.000000   1.000000
   17       -5.858813     -5.858379   1.000000   1.000000
   18       -3.859049     -3.858160   1.000000   1.000000
   19       -3.690326     -3.689701   1.000000   1.000000
   20       -3.563426     -3.562777   1.000000   1.000000
   21       -3.382428     -3.382305   1.000000   1.000000
   22       -1.691562     -1.691401   1.000000   1.000000
   23       -1.544766     -1.544268   1.000000   1.000000
   24       -0.957361     -0.957289   1.000000   1.000000
   25       -0.286912     -0.285743   1.000000   1.000000
   26        1.380327      1.382226   0.000000   0.000000
   27        1.498620      1.499252   0.000000   0.000000
   28        1.630859      1.630769   0.000000   0.000000
   29        1.856602      1.856586   0.000000   0.000000
   30        6.872729      6.872566   0.000000   0.000000
   31        7.135435      7.136543   0.000000   0.000000
   32        7.949973      7.949950   0.000000   0.000000
   33        8.679848      8.679815   0.000000   0.000000
   34        9.396471      9.396453   0.000000   0.000000
 
  0.2500000E+00  0.1428571E+00  0.1887875E-14  0.5102041E-02
    1      -44.371470    -44.371168   1.000000   1.000000
    2      -25.336766    -25.336908   1.000000   1.000000
    3      -24.286405    -24.286551   1.000000   1.000000
    4      -24.059240    -24.058910   1.000000   1.000000
    5      -23.490769    -23.489639   1.000000   1.000000
    6      -14.889450    -14.889347   1.000000   1.000000
    7      -13.938297    -13.938395   1.000000   1.000000
    8      -13.812369    -13.810808   1.000000   1.000000
    9      -12.994546    -12.994406   1.000000   1.000000
   10       -7.910421     -7.910426   1.000000   1.000000
   11       -7.572742     -7.572507   1.000000   1.000000
   12       -7.277273     -7.277223   1.000000   1.000000
   13       -6.953578     -6.953378   1.000000   1.000000
   14       -6.469670     -6.469404   1.000000   1.000000
   15       -6.272719     -6.272146   1.000000   1.000000
   16       -5.907358     -5.907009   1.000000   1.000000
   17       -5.855803     -5.855371   1.000000   1.000000
   18       -3.852077     -3.851153   1.000000   1.000000
   19       -3.691492     -3.690946   1.000000   1.000000
   20       -3.559019     -3.558333   1.000000   1.000000
   21       -3.376933     -3.376804   1.000000   1.000000
   22       -1.668711     -1.668565   1.000000   1.000000
   23       -1.494698     -1.494197   1.000000   1.000000
   24       -0.969063     -0.968972   1.000000   1.000000
   25       -0.343284     -0.342117   1.000000   1.000000
   26        1.371609      1.373441   0.000000   0.000000
   27        1.489656      1.490343   0.000000   0.000000
   28        1.631773      1.631684   0.000000   0.000000
   29        1.848487      1.848461   0.000000   0.000000
   30        6.772616      6.773011   0.000000   0.000000
   31        7.122750      7.122754   0.000000   0.000000
   32        7.555939      7.556516   0.000000   0.000000
   33        8.849864      8.849850   0.000000   0.000000
   34        9.997868      9.998394   0.000000   0.000000
 
  0.3750000E+00  0.1428571E+00 -0.4493301E-14  0.5102041E-02
    1      -44.371422    -44.371121   1.000000   1.000000
    2      -25.330571    -25.330715   1.000000   1.000000
    3      -24.290338    -24.290488   1.000000   1.000000
    4      -24.062063    -24.061722   1.000000   1.000000
    5      -23.492001    -23.490877   1.000000   1.000000
    6      -15.000617    -15.000484   1.000000   1.000000
    7      -13.869011    -13.869194   1.000000   1.000000
    8      -13.751704    -13.750062   1.000000   1.000000
    9      -12.997292    -12.997172   1.000000   1.000000
   10       -7.879690     -7.879694   1.000000   1.000000
   11       -7.606990     -7.606762   1.000000   1.000000
   12       -7.084886     -7.084865   1.000000   1.000000
   13       -6.881695     -6.881446   1.000000   1.000000
   14       -6.599604     -6.599473   1.000000   1.000000
   15       -6.394833     -6.394241   1.000000   1.000000
   16       -5.908031     -5.907549   1.000000   1.000000
   17       -5.879727     -5.879329   1.000000   1.000000
   18       -3.848928     -3.847972   1.000000   1.000000
   19       -3.689915     -3.689431   1.000000   1.000000
   20       -3.550633     -3.549928   1.000000   1.000000
   21       -3.370074     -3.369934   1.000000   1.000000
   22       -1.644395     -1.644247   1.000000   1.000000
   23       -1.416745     -1.416286   1.000000   1.000000
   24       -0.972219     -0.972107   1.000000   1.000000
   25       -0.416143     -0.414974   1.000000   1.000000
   26        1.365201      1.367023   0.000000   0.000000
   27        1.481144      1.481885   0.000000   0.000000
   28        1.627550      1.627445   0.000000   0.000000
   29        1.838187      1.838145   0.000000   0.000000
   30        5.809703      5.809975   0.000000   0.000000
   31        7.577912      7.578117   0.000000   0.000000
   32        8.038798      8.039304   0.000000   0.000000
   33        8.935807      8.935705   0.000000   0.000000
   34       10.151516     10.141464   0.000000   0.000000
 
  0.5000000E+00  0.1428571E+00  0.3684243E-14  0.5102041E-02
    1      -44.371410    -44.371108   1.000000   1.000000
    2      -25.326876    -25.327021   1.000000   1.000000
    3      -24.292624    -24.292780   1.000000   1.000000
    4      -24.064621    -24.064269   1.000000   1.000000
    5      -23.492206    -23.491086   1.000000   1.000000
    6      -15.068645    -15.068500   1.000000   1.000000
    7      -13.822304    -13.822344   1.000000   1.000000
    8      -13.704067    -13.702557   1.000000   1.000000
    9      -13.008348    -13.008250   1.000000   1.000000
   10       -7.873896     -7.873899   1.000000   1.000000
   11       -7.632031     -7.631806   1.000000   1.000000
   12       -7.023775     -7.023703   1.000000   1.000000
   13       -6.757943     -6.757804   1.000000   1.000000
   14       -6.667831     -6.667729   1.000000   1.000000
   15       -6.484386     -6.483760   1.000000   1.000000
   16       -5.937314     -5.936841   1.000000   1.000000
   17       -5.870517     -5.870058   1.000000   1.000000
   18       -3.851036     -3.850075   1.000000   1.000000
   19       -3.686685     -3.686209   1.000000   1.000000
   20       -3.543595     -3.542896   1.000000   1.000000
   21       -3.366165     -3.366017   1.000000   1.000000
   22       -1.634708     -1.634556   1.000000   1.000000
   23       -1.361375     -1.360966   1.000000   1.000000
   24       -0.965657     -0.965534   1.000000   1.000000
   25       -0.463906     -0.462725   1.000000   1.000000
   26        1.367146      1.369064   0.000000   0.000000
   27        1.474708      1.475428   0.000000   0.000000
   28        1.620350      1.620211   0.000000   0.000000
   29        1.829949      1.829894   0.000000   0.000000
   30        5.285413      5.285684   0.000000   0.000000
   31        8.110244      8.110483   0.000000   0.000000
   32        8.269411      8.270064   0.000000   0.000000
   33        8.801096      8.800797   0.000000   0.000000
   34       10.198060     10.194678   0.000000   0.000000
 
 -0.3750000E+00  0.1428571E+00  0.8284341E-15  0.5102041E-02
    1      -44.371414    -44.371113   1.000000   1.000000
    2      -25.327757    -25.327902   1.000000   1.000000
    3      -24.291683    -24.291844   1.000000   1.000000
    4      -24.065485    -24.065129   1.000000   1.000000
    5      -23.491048    -23.489927   1.000000   1.000000
    6      -15.057250    -15.057109   1.000000   1.000000
    7      -13.835996    -13.835685   1.000000   1.000000
    8      -13.695239    -13.694088   1.000000   1.000000
    9      -13.014450    -13.014341   1.000000   1.000000
   10       -7.885957     -7.885954   1.000000   1.000000
   11       -7.640494     -7.640267   1.000000   1.000000
   12       -6.993293     -6.993264   1.000000   1.000000
   13       -6.767200     -6.767050   1.000000   1.000000
   14       -6.679240     -6.679130   1.000000   1.000000
   15       -6.498302     -6.497676   1.000000   1.000000
   16       -5.937651     -5.937063   1.000000   1.000000
   17       -5.849199     -5.848831   1.000000   1.000000
   18       -3.857256     -3.856317   1.000000   1.000000
   19       -3.684139     -3.683616   1.000000   1.000000
   20       -3.541915     -3.541245   1.000000   1.000000
   21       -3.367421     -3.367273   1.000000   1.000000
   22       -1.648560     -1.648417   1.000000   1.000000
   23       -1.374066     -1.373657   1.000000   1.000000
   24       -0.957980     -0.957856   1.000000   1.000000
   25       -0.460308     -0.459137   1.000000   1.000000
   26        1.373377      1.375431   0.000000   0.000000
   27        1.476599      1.477250   0.000000   0.000000
   28        1.614820      1.614644   0.000000   0.000000
   29        1.830380      1.830326   0.000000   0.000000
   30        5.351802      5.352076   0.000000   0.000000
   31        7.982639      7.984295   0.000000   0.000000
   32        8.390918      8.391121   0.000000   0.000000
   33        8.859531     10.035247   0.000000   0.000000
   34       10.204120     10.893117   0.000000   0.000000
 
 -0.2500000E+00  0.1428571E+00  0.1890104E-14  0.5102041E-02
    1      -44.371475    -44.371173   1.000000   1.000000
    2      -25.332816    -25.332960   1.000000   1.000000
    3      -24.288354    -24.288515   1.000000   1.000000
    4      -24.064137    -24.063784   1.000000   1.000000
    5      -23.489495    -23.488371   1.000000   1.000000
    6      -14.972172    -14.972053   1.000000   1.000000
    7      -13.903306    -13.902772   1.000000   1.000000
    8      -13.726734    -13.725817   1.000000   1.000000
    9      -13.015629    -13.015496   1.000000   1.000000
   10       -7.905856     -7.905848   1.000000   1.000000
   11       -7.624267     -7.624035   1.000000   1.000000
   12       -7.089140     -7.089155   1.000000   1.000000
   13       -6.852548     -6.852323   1.000000   1.000000
   14       -6.607708     -6.607571   1.000000   1.000000
   15       -6.421928     -6.421339   1.000000   1.000000
   16       -5.913286     -5.912606   1.000000   1.000000
   17       -5.830269     -5.830016   1.000000   1.000000
   18       -3.864467     -3.863563   1.000000   1.000000
   19       -3.683593     -3.682995   1.000000   1.000000
   20       -3.546137     -3.545502   1.000000   1.000000
   21       -3.372776     -3.372635   1.000000   1.000000
   22       -1.676119     -1.675987   1.000000   1.000000
   23       -1.446234     -1.445785   1.000000   1.000000
   24       -0.953149     -0.953038   1.000000   1.000000
   25       -0.405927     -0.404781   1.000000   1.000000
   26        1.378115      1.380199   0.000000   0.000000
   27        1.488911      1.489558   0.000000   0.000000
   28        1.614062      1.613871   0.000000   0.000000
   29        1.840659      1.840618   0.000000   0.000000
   30        5.983023      5.983324   0.000000   0.000000
   31        7.532785      7.533476   0.000000   0.000000
   32        8.097335      8.097118   0.000000   0.000000
   33        8.893475      8.893582   0.000000   0.000000
   34       10.135680     10.136342   0.000000   0.000000
 
 -0.1250000E+00  0.1428571E+00  0.2626417E-14  0.5102041E-02
    1      -44.371510    -44.371209   1.000000   1.000000
    2      -25.338906    -25.339048   1.000000   1.000000
    3      -24.284385    -24.284542   1.000000   1.000000
    4      -24.061225    -24.060884   1.000000   1.000000
    5      -23.488201    -23.487071   1.000000   1.000000
    6      -14.859300    -14.859217   1.000000   1.000000
    7      -13.974785    -13.974235   1.000000   1.000000
    8      -13.781991    -13.781065   1.000000   1.000000
    9      -13.016835    -13.016695   1.000000   1.000000
   10       -7.937549     -7.937542   1.000000   1.000000
   11       -7.585379     -7.585142   1.000000   1.000000
   12       -7.328174     -7.328124   1.000000   1.000000
   13       -6.878836     -6.878679   1.000000   1.000000
   14       -6.487983     -6.487714   1.000000   1.000000
   15       -6.282090     -6.281536   1.000000   1.000000
   16       -5.890431     -5.889837   1.000000   1.000000
   17       -5.840725     -5.840479   1.000000   1.000000
   18       -3.868291     -3.867415   1.000000   1.000000
   19       -3.685011     -3.684351   1.000000   1.000000
   20       -3.553885     -3.553273   1.000000   1.000000
   21       -3.379185     -3.379055   1.000000   1.000000
   22       -1.698060     -1.697920   1.000000   1.000000
   23       -1.520985     -1.520507   1.000000   1.000000
   24       -0.949398     -0.949310   1.000000   1.000000
   25       -0.331075     -0.329934   1.000000   1.000000
   26        1.381417      1.383446   0.000000   0.000000
   27        1.501868      1.502529   0.000000   0.000000
   28        1.618598      1.618435   0.000000   0.000000
   29        1.853188      1.853163   0.000000   0.000000
   30        6.949293      6.950098   0.000000   0.000000
   31        7.169136      7.169298   0.000000   0.000000
   32        7.571624      7.571521   0.000000   0.000000
   33        8.699016      8.698870   0.000000   0.000000
   34        9.905100      9.904924   0.000000   0.000000
 
 -0.7456966E-19  0.2857143E+00  0.9088026E-16  0.5102041E-02
    1      -44.371520    -44.371219   1.000000   1.000000
    2      -25.301570    -25.301726   1.000000   1.000000
    3      -24.285826    -24.286166   1.000000   1.000000
    4      -24.085740    -24.085176   1.000000   1.000000
    5      -23.517799    -23.516696   1.000000   1.000000
    6      -14.735144    -14.735149   1.000000   1.000000
    7      -14.004769    -14.004505   1.000000   1.000000
    8      -13.878452    -13.877092   1.000000   1.000000
    9      -13.050306    -13.050231   1.000000   1.000000
   10       -7.872548     -7.872545   1.000000   1.000000
   11       -7.489510     -7.489353   1.000000   1.000000
   12       -7.246921     -7.246874   1.000000   1.000000
   13       -6.716125     -6.715895   1.000000   1.000000
   14       -6.492861     -6.492306   1.000000   1.000000
   15       -6.203165     -6.202895   1.000000   1.000000
   16       -5.927384     -5.927281   1.000000   1.000000
   17       -5.822317     -5.821697   1.000000   1.000000
   18       -4.160161     -4.158920   1.000000   1.000000
   19       -3.906743     -3.906291   1.000000   1.000000
   20       -3.633709     -3.633542   1.000000   1.000000
   21       -3.461347     -3.460798   1.000000   1.000000
   22       -1.604407     -1.604128   1.000000   1.000000
   23       -1.270172     -1.269978   1.000000   1.000000
   24       -0.802954     -0.802674   1.000000   1.000000
   25       -0.355940     -0.355024   1.000000   1.000000
   26        1.053193      1.054647  -0.041718  -0.042638
   27        1.402086      1.403224   0.000000   0.000000
   28        1.607619      1.607610   0.000000   0.000000
   29        1.763905      1.764005   0.000000   0.000000
   30        6.974982      6.975703   0.000000   0.000000
   31        7.065248      7.065521   0.000000   0.000000
   32        7.924579      7.924388   0.000000   0.000000
   33        8.559556      8.559543   0.000000   0.000000
   34        9.782812      9.783169   0.000000   0.000000
 
  0.1250000E+00  0.2857143E+00 -0.6285955E-14  0.5102041E-02
    1      -44.371511    -44.371209   1.000000   1.000000
    2      -25.301770    -25.301926   1.000000   1.000000
    3      -24.285541    -24.285874   1.000000   1.000000
    4      -24.084333    -24.083778   1.000000   1.000000
    5      -23.519208    -23.518104   1.000000   1.000000
    6      -14.723796    -14.723799   1.000000   1.000000
    7      -14.023881    -14.023914   1.000000   1.000000
    8      -13.886397    -13.884740   1.000000   1.000000
    9      -13.036838    -13.036761   1.000000   1.000000
   10       -7.888250     -7.888251   1.000000   1.000000
   11       -7.482278     -7.482115   1.000000   1.000000
   12       -7.247237     -7.247191   1.000000   1.000000
   13       -6.769774     -6.769571   1.000000   1.000000
   14       -6.444728     -6.443993   1.000000   1.000000
   15       -6.150763     -6.150615   1.000000   1.000000
   16       -5.928179     -5.928308   1.000000   1.000000
   17       -5.846252     -5.845443   1.000000   1.000000
   18       -4.168932     -4.167694   1.000000   1.000000
   19       -3.897860     -3.897412   1.000000   1.000000
   20       -3.632323     -3.632144   1.000000   1.000000
   21       -3.465101     -3.464549   1.000000   1.000000