 running on   12 total cores
 distrk:  each k-point on   12 cores,    1 groups
 distr:  one band on    6 cores,    2 groups
 using from now: INCAR     
 vasp.6.1.2 22Jul20 (build Mar 20 2021 11:25:07) complex                        
  
 POSCAR found type information on POSCAR LiO 
 POSCAR found :  2 types and       9 ions
 scaLAPACK will be used
 LDA part: xc-table for Pade appr. of Perdew
 generate k-points for:    8    7    7
 POSCAR, INCAR and KPOINTS ok, starting setup
 FFT: planning ...
 WAVECAR not read
 entering main loop
       N       E                     dE             d eps       ncg     rms          rms(c)
DAV:   1     0.358827443695E+03    0.35883E+03   -0.27995E+04 26816   0.147E+03
DAV:   2    -0.177159798710E+02   -0.37654E+03   -0.36296E+03 34816   0.349E+02
DAV:   3    -0.431195312883E+02   -0.25404E+02   -0.25090E+02 39654   0.909E+01
DAV:   4    -0.440172131046E+02   -0.89768E+00   -0.89365E+00 43784   0.127E+01
DAV:   5    -0.440888655410E+02   -0.71652E-01   -0.71647E-01 35782   0.178E+00    0.145E+01
RMM:   6    -0.444180415518E+02   -0.32918E+00   -0.30018E+00 30747   0.889E+00    0.103E+01
RMM:   7    -0.440076902618E+02    0.41035E+00   -0.10994E+00 29751   0.569E+00    0.582E+00
RMM:   8    -0.438303995298E+02    0.17729E+00   -0.48644E-01 30638   0.396E+00    0.415E+00
RMM:   9    -0.437368887685E+02    0.93511E-01   -0.18817E-01 31734   0.244E+00    0.251E+00
RMM:  10    -0.437266630489E+02    0.10226E-01   -0.67067E-02 32561   0.147E+00    0.116E+00
RMM:  11    -0.437216428297E+02    0.50202E-02   -0.16025E-02 35526   0.741E-01    0.638E-01
RMM:  12    -0.437211923057E+02    0.45052E-03   -0.64260E-03 36857   0.488E-01    0.334E-01
RMM:  13    -0.437208632212E+02    0.32908E-03   -0.30070E-03 38844   0.334E-01    0.984E-02
WARNING in EDDRMM: call to ZHEGV failed, returncode =   8  4      5
RMM:  14    -0.437211633766E+02   -0.30016E-03   -0.11682E-03 46190   0.177E-01    0.420E-02
RMM:  15    -0.437212845952E+02   -0.12122E-03   -0.53625E-04 46474   0.112E-01    0.216E-02
WARNING in EDDRMM: call to ZHEGV failed, returncode =   8  4      9
RMM:  16    -0.437213182885E+02   -0.33693E-04   -0.26722E-04 44562   0.733E-02    0.120E-02
RMM:  17    -0.437213289498E+02   -0.10661E-04   -0.11158E-04 35627   0.493E-02    0.717E-03
WARNING in EDDRMM: call to ZHEGV failed, returncode =   6  3      3
RMM:  18    -0.437213352350E+02   -0.62852E-05   -0.48781E-05 32595   0.418E-02
   1 F= -.43721335E+02 E0= -.43721335E+02  d E =0.000000E+00  mag=     0.0013
 -----------------------------------------------------------------------------
|                                                                             |
|           W    W    AA    RRRRR   N    N  II  N    N   GGGG   !!!           |
|           W    W   A  A   R    R  NN   N  II  NN   N  G    G  !!!           |
|           W    W  A    A  R    R  N N  N  II  N N  N  G       !!!           |
|           W WW W  AAAAAA  RRRRR   N  N N  II  N  N N  G  GGG   !            |
|           WW  WW  A    A  R   R   N   NN  II  N   NN  G    G                |
|           W    W  A    A  R    R  N    N  II  N    N   GGGG   !!!           |
|                                                                             |
|     Tetrahedron method does not include variations of the Fermi             |
|     occupations, so forces and stress will be inaccurate. We suggest        |
|     using a different smearing scheme ISMEAR = 1 or 2 for metals in         |
|     relaxations.                                                            |
|                                                                             |
 -----------------------------------------------------------------------------

