 running on   12 total cores
 distrk:  each k-point on   12 cores,    1 groups
 distr:  one band on    6 cores,    2 groups
 using from now: INCAR     
 vasp.6.1.2 22Jul20 (build Mar 20 2021 11:25:07) complex                        
  
 POSCAR found type information on POSCAR LiP O 
 POSCAR found :  3 types and      26 ions
 scaLAPACK will be used
 LDA part: xc-table for Pade appr. of Perdew
 generate k-points for:    7    5    4
 POSCAR, INCAR and KPOINTS ok, starting setup
 FFT: planning ...
 WAVECAR not read
 entering main loop
       N       E                     dE             d eps       ncg     rms          rms(c)
DAV:   1     0.111396869295E+04    0.11140E+04   -0.62016E+04 24432   0.152E+03
DAV:   2    -0.607662407485E+02   -0.11747E+04   -0.11052E+04 29392   0.393E+02
DAV:   3    -0.172232290689E+03   -0.11147E+03   -0.11073E+03 31516   0.124E+02
DAV:   4    -0.181990785602E+03   -0.97585E+01   -0.97156E+01 45760   0.297E+01
DAV:   5    -0.183548567718E+03   -0.15578E+01   -0.15573E+01 34152   0.688E+00    0.509E+01
DAV:   6    -0.163071622092E+03    0.20477E+02   -0.89891E+01 30440   0.323E+01    0.262E+01
DAV:   7    -0.165041526434E+03   -0.19699E+01   -0.74527E+00 31530   0.932E+00    0.888E+00
DAV:   8    -0.165318040588E+03   -0.27651E+00   -0.81474E-01 32776   0.362E+00    0.452E+00
DAV:   9    -0.165443637525E+03   -0.12560E+00   -0.14670E-01 33400   0.167E+00    0.195E+00
DAV:  10    -0.165472837908E+03   -0.29200E-01   -0.60978E-02 29528   0.119E+00    0.562E-01
DAV:  11    -0.165482832713E+03   -0.99948E-02   -0.11640E-02 31576   0.446E-01    0.296E-01
DAV:  12    -0.165485782784E+03   -0.29501E-02   -0.24039E-03 30232   0.218E-01    0.155E-01
DAV:  13    -0.165487015028E+03   -0.12322E-02   -0.92959E-04 28928   0.125E-01    0.569E-02
DAV:  14    -0.165487241512E+03   -0.22648E-03   -0.18571E-04 31552   0.577E-02    0.310E-02
DAV:  15    -0.165487303984E+03   -0.62472E-04   -0.46582E-05 24992   0.284E-02    0.189E-02
DAV:  16    -0.165487321050E+03   -0.17066E-04   -0.12324E-05 19856   0.150E-02    0.949E-03
DAV:  17    -0.165487324843E+03   -0.37926E-05   -0.52423E-06 18136   0.966E-03
   1 F= -.16548732E+03 E0= -.16548732E+03  d E =0.000000E+00  mag=    -0.0006
