 vasp.6.1.2 22Jul20 (build Mar 20 2021 11:25:07) complex                        
  
 executed on             LinuxIFC date 2021.03.26  11:13:48
 running on    8 total cores
 distrk:  each k-point on    8 cores,    1 groups
 distr:  one band on NCORE=   1 cores,    8 groups


--------------------------------------------------------------------------------------------------------


 INCAR:
 POTCAR:    PAW_PBE Li_sv 10Sep2004               
 POTCAR:    PAW_PBE P 06Sep2000                   
 -----------------------------------------------------------------------------
|                                                                             |
|           W    W    AA    RRRRR   N    N  II  N    N   GGGG   !!!           |
|           W    W   A  A   R    R  NN   N  II  NN   N  G    G  !!!           |
|           W    W  A    A  R    R  N N  N  II  N N  N  G       !!!           |
|           W WW W  AAAAAA  RRRRR   N  N N  II  N  N N  G  GGG   !            |
|           WW  WW  A    A  R   R   N   NN  II  N   NN  G    G                |
|           W    W  A    A  R    R  N    N  II  N    N   GGGG   !!!           |
|                                                                             |
|     The value NCORE = 6 specified in the INCAR file was overwritten,        |
|     because it was not compatible with the 8 processes available:           |
|     NCORE = 1                                                               |
|     was used instead, please check that this makes sense for your           |
|     machine.                                                                |
|                                                                             |
 -----------------------------------------------------------------------------

 -----------------------------------------------------------------------------
|                                                                             |
|           W    W    AA    RRRRR   N    N  II  N    N   GGGG   !!!           |
|           W    W   A  A   R    R  NN   N  II  NN   N  G    G  !!!           |
|           W    W  A    A  R    R  N N  N  II  N N  N  G       !!!           |
|           W WW W  AAAAAA  RRRRR   N  N N  II  N  N N  G  GGG   !            |
|           WW  WW  A    A  R   R   N   NN  II  N   NN  G    G                |
|           W    W  A    A  R    R  N    N  II  N    N   GGGG   !!!           |
|                                                                             |
|     For optimal performance we recommend to set                             |
|       NCORE = 4 - approx SQRT(number of cores).                             |
|     NCORE specifies how many cores store one orbital (NPAR=cpu/NCORE).      |
|     This setting can greatly improve the performance of VASP for DFT.       |
|     The default, NCORE=1 might be grossly inefficient on modern             |
|     multi-core architectures or massively parallel machines. Do your        |
|     own testing!!!!                                                         |
|     Unfortunately you need to use the default for GW and RPA                |
|     calculations (for HF NCORE is supported but not extensively tested      |
|     yet).                                                                   |
|                                                                             |
 -----------------------------------------------------------------------------

 POTCAR:    PAW_PBE Li_sv 10Sep2004               
   VRHFIN =Li: 1s2s2p                                                                               
   LEXCH  = PE                                                                                      
   EATOM  =   202.7858 eV,   14.9043 Ry                                                             
                                                                                                    
   TITEL  = PAW_PBE Li_sv 10Sep2004                                                                 
   LULTRA =        F    use ultrasoft PP ?                                                          
   IUNSCR =        0    unscreen: 0-lin 1-nonlin 2-no                                               
   RPACOR =    0.000    partial core radius                                                         
   POMASS =    7.010; ZVAL   =    3.000    mass and valenz                                          
   RCORE  =    1.700    outmost cutoff radius                                                       
   RWIGS  =    2.050; RWIGS  =    1.085    wigner-seitz radius (au A)                               
   ENMAX  =  499.034; ENMIN  =  374.276 eV                                                          
   ICORE  =        2    local potential                                                             
   LCOR   =        T    correct aug charges                                                         
   LPAW   =        T    paw PP                                                                      
   EAUG   =  628.945                                                                                
   RMAX   =    1.732    core radius for proj-oper                                                   
   RAUG   =    1.300    factor for augmentation sphere                                              
   RDEP   =    1.728    radius for radial grids                                                     
   RDEPT  =    1.329    core radius for aug-charge                                                  
                                                                                                    
   Atomic configuration                                                                             
    4 entries                                                                                       
     n  l   j            E        occ.                                                              
     1  0  0.50       -51.8549   2.0000                                                             
     2  0  0.50        -2.8742   1.0000                                                             
     2  1  0.50        -1.3606   0.0000                                                             
     3  2  1.50        -1.3606   0.0000                                                             
   Description                                                                                      
     l       E           TYP  RCUT    TYP  RCUT                                                     
     0    -51.8548813     23  1.400                                                                 
     0     -2.8742052     23  1.700                                                                 
     1     -1.3605826     23  1.400                                                                 
     2     -1.3605826     23  1.400                                                                 
  local pseudopotential read in
  atomic valenz-charges read in
  non local Contribution for L=           0  read in
    real space projection operators read in
  non local Contribution for L=           0  read in
    real space projection operators read in
  non local Contribution for L=           1  read in
    real space projection operators read in
    PAW grid and wavefunctions read in
 
   number of l-projection  operators is LMAX  =           3
   number of lm-projection operators is LMMAX =           5
 
 POTCAR:    PAW_PBE P 06Sep2000                   
   VRHFIN =P : s2p3                                                                                 
   LEXCH  = PE                                                                                      
   EATOM  =   176.0430 eV,   12.9388 Ry                                                             
                                                                                                    
   TITEL  = PAW_PBE P 06Sep2000                                                                     
   LULTRA =        F    use ultrasoft PP ?                                                          
   IUNSCR =        1    unscreen: 0-lin 1-nonlin 2-no                                               
   RPACOR =    1.500    partial core radius                                                         
   POMASS =   30.974; ZVAL   =    5.000    mass and valenz                                          
   RCORE  =    1.900    outmost cutoff radius                                                       
   RWIGS  =    2.330; RWIGS  =    1.233    wigner-seitz radius (au A)                               
   ENMAX  =  255.040; ENMIN  =  191.280 eV                                                          
   ICORE  =        2    local potential                                                             
   LCOR   =        T    correct aug charges                                                         
   LPAW   =        T    paw PP                                                                      
   EAUG   =  342.924                                                                                
   DEXC   =    0.000                                                                                
   RMAX   =    1.935    core radius for proj-oper                                                   
   RAUG   =    1.300    factor for augmentation sphere                                              
   RDEP   =    1.931    radius for radial grids                                                     
   RDEPT  =    1.794    core radius for aug-charge                                                  
                                                                                                    
   Atomic configuration                                                                             
    6 entries                                                                                       
     n  l   j            E        occ.                                                              
     1  0  0.50     -2084.0982   2.0000                                                             
     2  0  0.50      -173.9859   2.0000                                                             
     2  1  1.50      -124.4865   6.0000                                                             
     3  0  0.50       -13.9692   2.0000                                                             
     3  1  0.50        -5.5067   3.0000                                                             
     3  2  1.50        -5.4423   0.0000                                                             
   Description                                                                                      
     l       E           TYP  RCUT    TYP  RCUT                                                     
     0    -13.9691527     23  1.900                                                                 
     0    -11.7794650     23  1.900                                                                 
     1     -5.5066937     23  1.900                                                                 
     1     -0.2556953     23  1.900                                                                 
     2     -5.4423304     23  1.900                                                                 
  local pseudopotential read in
  partial core-charges read in
  partial kinetic energy density read in
  atomic valenz-charges read in
  non local Contribution for L=           0  read in
    real space projection operators read in
  non local Contribution for L=           0  read in
    real space projection operators read in
  non local Contribution for L=           1  read in
    real space projection operators read in
  non local Contribution for L=           1  read in
    real space projection operators read in
    PAW grid and wavefunctions read in
 
   number of l-projection  operators is LMAX  =           4
   number of lm-projection operators is LMMAX =           8
 
 Optimization of the real space projectors (new method)

 maximal supplied QI-value         = 22.11
 optimisation between [QCUT,QGAM] = [ 11.50, 23.22] = [ 37.02,150.92] Ry 
 Optimized for a Real-space Cutoff    1.08 Angstroem

   l    n(q)    QCUT    max X(q) W(low)/X(q) W(high)/X(q)  e(spline) 
   0      7    11.497    10.506    0.36E-04    0.62E-04    0.14E-07
   0      7    11.497     8.367    0.65E-04    0.14E-03    0.28E-07
   1      7    11.497     8.983    0.21E-03    0.43E-03    0.90E-07
 Optimization of the real space projectors (new method)

 maximal supplied QI-value         = 19.84
 optimisation between [QCUT,QGAM] = [ 11.51, 23.22] = [ 37.09,150.92] Ry 
 Optimized for a Real-space Cutoff    1.21 Angstroem

   l    n(q)    QCUT    max X(q) W(low)/X(q) W(high)/X(q)  e(spline) 
   0      8    11.508   160.924    0.96E-04    0.17E-03    0.52E-07
   0      8    11.508   130.086    0.95E-04    0.17E-03    0.51E-07
   1      8    11.508    74.434    0.16E-03    0.74E-04    0.91E-07
   1      8    11.508    49.120    0.16E-03    0.71E-04    0.89E-07
  PAW_PBE Li_sv 10Sep2004               :
 energy of atom  1       EATOM= -202.7858
 kinetic energy error for atom=    0.0130 (will be added to EATOM!!)
  PAW_PBE P 06Sep2000                   :
 energy of atom  2       EATOM= -176.0430
 kinetic energy error for atom=    0.0011 (will be added to EATOM!!)
 
 
 POSCAR: Li12 P28
  positions in direct lattice
  No initial velocities read in
 exchange correlation table for  LEXCH =        8
   RHO(1)=    0.500       N(1)  =     2000
   RHO(2)=  100.500       N(2)  =     4000
 


--------------------------------------------------------------------------------------------------------


 ion  position               nearest neighbor table
   1  0.850  0.307  0.816-  34 2.59  37 2.60  31 2.68
   2  0.350  0.193  0.184-  33 2.59  38 2.60  32 2.68
   3  0.150  0.807  0.684-  36 2.59  39 2.60  29 2.68
   4  0.650  0.693  0.316-  35 2.59  40 2.60  30 2.68
   5  0.569  0.026  0.015-  40 2.48  34 2.52  29 2.54  20 2.68
   6  0.069  0.474  0.985-  39 2.48  33 2.52  30 2.54  19 2.68
   7  0.431  0.526  0.485-  38 2.48  36 2.52  31 2.54  18 2.68
   8  0.931  0.974  0.515-  37 2.48  35 2.52  32 2.54  17 2.68
   9  0.402  0.301  0.691-  31 2.56  16 2.56  18 2.60  25 2.61
  10  0.902  0.199  0.309-  32 2.56  15 2.56  17 2.60  26 2.61
  11  0.598  0.801  0.809-  29 2.56  14 2.56  20 2.60  27 2.61
  12  0.098  0.699  0.191-  30 2.56  13 2.56  19 2.60  28 2.61
  13  0.281  0.875  0.318-  32 2.15  36 2.16  40 2.16  12 2.56
  14  0.781  0.625  0.682-  31 2.15  35 2.16  39 2.16  11 2.56
  15  0.719  0.375  0.182-  30 2.15  34 2.16  38 2.16  10 2.56
  16  0.219  0.125  0.818-  29 2.15  33 2.16  37 2.16   9 2.56
  17  0.638  0.048  0.388-  40 2.13  25 2.23  21 2.26  10 2.60   8 2.68
  18  0.138  0.452  0.612-  39 2.13  26 2.23  22 2.26   9 2.60   7 2.68
  19  0.362  0.548  0.112-  38 2.13  27 2.23  23 2.26  12 2.60   6 2.68
  20  0.862  0.952  0.888-  37 2.13  28 2.23  24 2.26  11 2.60   5 2.68
  21  0.534  0.943  0.566-  36 2.12  25 2.22  17 2.26
  22  0.034  0.557  0.434-  35 2.12  26 2.22  18 2.26
  23  0.466  0.443  0.934-  34 2.12  27 2.22  19 2.26
  24  0.966  0.057  0.066-  33 2.12  28 2.22  20 2.26
  25  0.406  0.134  0.495-  32 2.13  21 2.22  17 2.23   9 2.61
  26  0.906  0.366  0.505-  31 2.13  22 2.22  18 2.23  10 2.61
  27  0.594  0.634  0.005-  30 2.13  23 2.22  19 2.23  11 2.61
  28  0.094  0.866  0.995-  29 2.13  24 2.22  20 2.23  12 2.61
  29  0.317  0.928  0.881-  28 2.13  16 2.15   5 2.54  11 2.56   3 2.68
  30  0.817  0.572  0.119-  27 2.13  15 2.15   6 2.54  12 2.56   4 2.68
  31  0.683  0.428  0.619-  26 2.13  14 2.15   7 2.54   9 2.56   1 2.68
  32  0.183  0.072  0.381-  25 2.13  13 2.15   8 2.54  10 2.56   2 2.68
  33  0.129  0.219  0.995-  24 2.12  16 2.16   6 2.52   2 2.59
  34  0.629  0.281  0.005-  23 2.12  15 2.16   5 2.52   1 2.59
  35  0.871  0.719  0.505-  22 2.12  14 2.16   8 2.52   4 2.59
  36  0.371  0.781  0.495-  21 2.12  13 2.16   7 2.52   3 2.59
  37  0.966  0.071  0.734-  20 2.13  16 2.16   8 2.48   1 2.60
  38  0.466  0.429  0.266-  19 2.13  15 2.16   7 2.48   2 2.60
  39  0.034  0.571  0.766-  18 2.13  14 2.16   6 2.48   3 2.60
  40  0.534  0.929  0.234-  17 2.13  13 2.16   5 2.48   4 2.60
 
  LATTYP: Found a simple orthorhombic cell.
 ALAT       =     7.5191890000
 B/A-ratio  =     1.2921941449
 C/A-ratio  =     1.3867691050
  
  Lattice vectors:
  
 A1 = (   7.5191890000,   0.0000000000,   0.0000000000)
 A2 = (   0.0000000000,   9.7162520000,   0.0000000000)
 A3 = (   0.0000000000,   0.0000000000,  10.4273790000)


Analysis of symmetry for initial positions (statically):
=====================================================================
 Subroutine PRICEL returns:
 Original cell was already a primitive cell.
 

 Routine SETGRP: Setting up the symmetry group for a 
 simple orthorhombic supercell.


 Subroutine GETGRP returns: Found  4 space group operations
 (whereof  1 operations were pure point group operations)
 out of a pool of  8 trial point group operations.


The static configuration has the point symmetry C_1 .
 The point group associated with its full space group is D_2 .


Analysis of symmetry for dynamics (positions and initial velocities):
=====================================================================
 Subroutine PRICEL returns:
 Original cell was already a primitive cell.
 

 Routine SETGRP: Setting up the symmetry group for a 
 simple orthorhombic supercell.


 Subroutine GETGRP returns: Found  4 space group operations
 (whereof  1 operations were pure point group operations)
 out of a pool of  8 trial point group operations.


The dynamic configuration has the point symmetry C_1 .
 The point group associated with its full space group is D_2 .


Analysis of structural, dynamic, and magnetic symmetry:
=====================================================================
 Subroutine PRICEL returns:
 Original cell was already a primitive cell.
 

 Routine SETGRP: Setting up the symmetry group for a 
 simple orthorhombic supercell.


 Subroutine GETGRP returns: Found  4 space group operations
 (whereof  1 operations were pure point group operations)
 out of a pool of  8 trial point group operations.


The magnetic configuration has the point symmetry C_1 .
 The point group associated with its full space group is D_2 .


 Subroutine INISYM returns: Found  4 space group operations
 (whereof  1 operations are pure point group operations),
 and found     1 'primitive' translations


----------------------------------------------------------------------------------------

                                     Primitive cell                                     

  volume of cell :     761.8069

  direct lattice vectors                    reciprocal lattice vectors
     7.519189000  0.000000000  0.000000000     0.132993066  0.000000000  0.000000000
     0.000000000  9.716252000  0.000000000     0.000000000  0.102920344  0.000000000
     0.000000000  0.000000000 10.427379000     0.000000000  0.000000000  0.095901377

  length of vectors
     7.519189000  9.716252000 10.427379000     0.132993066  0.102920344  0.095901377

  position of ions in fractional coordinates (direct lattice)
     0.850185000  0.307382000  0.816212000
     0.350185000  0.192618000  0.183788000
     0.149815000  0.807382000  0.683788000
     0.649815000  0.692618000  0.316212000
     0.568698000  0.026280000  0.015039000
     0.068698000  0.473720000  0.984961000
     0.431302000  0.526280000  0.484961000
     0.931302000  0.973720000  0.515039000
     0.401918000  0.301123000  0.691024000
     0.901918000  0.198877000  0.308976000
     0.598082000  0.801123000  0.808976000
     0.098082000  0.698877000  0.191024000
     0.280567000  0.875063000  0.318431000
     0.780567000  0.624937000  0.681569000
     0.719433000  0.375063000  0.181569000
     0.219433000  0.124937000  0.818431000
     0.637535000  0.047995000  0.387710000
     0.137535000  0.452005000  0.612290000
     0.362465000  0.547995000  0.112290000
     0.862465000  0.952005000  0.887710000
     0.533535000  0.942671000  0.565642000
     0.033535000  0.557329000  0.434358000
     0.466465000  0.442671000  0.934358000
     0.966465000  0.057329000  0.065642000
     0.405625000  0.133862000  0.494860000
     0.905625000  0.366138000  0.505140000
     0.594375000  0.633862000  0.005140000
     0.094375000  0.866138000  0.994860000
     0.316720000  0.927556000  0.881174000
     0.816720000  0.572444000  0.118826000
     0.683280000  0.427556000  0.618826000
     0.183280000  0.072444000  0.381174000
     0.129046000  0.218717000  0.994585000
     0.629046000  0.281283000  0.005415000
     0.870954000  0.718717000  0.505415000
     0.370954000  0.781283000  0.494585000
     0.966252000  0.070983000  0.733888000
     0.466252000  0.429017000  0.266112000
     0.033748000  0.570983000  0.766112000
     0.533748000  0.929017000  0.233888000

  ion indices of the primitive-cell ions
   primitive index   ion index
                 1           1
                 2           2
                 3           3
                 4           4
                 5           5
                 6           6
                 7           7
                 8           8
                 9           9
                10          10
                11          11
                12          12
                13          13
                14          14
                15          15
                16          16
                17          17
                18          18
                19          19
                20          20
                21          21
                22          22
                23          23
                24          24
                25          25
                26          26
                27          27
                28          28
                29          29
                30          30
                31          31
                32          32
                33          33
                34          34
                35          35
                36          36
                37          37
                38          38
                39          39
                40          40

----------------------------------------------------------------------------------------

 
 
 KPOINTS: Fully automatic kpoint scheme           

Automatic generation of k-mesh.
 generate k-points for:    4    3    3
Space group operators:
 irot       det(A)        alpha          n_x          n_y          n_z        tau_x        tau_y        tau_z
    1     1.000000     0.000000     1.000000     0.000000     0.000000     0.000000     0.000000     0.000000
    2     1.000000   180.000000     0.000000     0.000000     1.000000    -0.500000     0.000000    -0.500000
    3     1.000000   180.000000     0.000000     1.000000     0.000000     0.000000    -0.500000    -0.500000
    4     1.000000   180.000000     1.000000     0.000000     0.000000    -0.500000     0.500000     0.000000
 TETIRR: Found    102 inequivalent tetrahedra from      216
 
 Subroutine IBZKPT returns following result:
 ===========================================
 
 Found     12 irreducible k-points:
 
 Following reciprocal coordinates:
            Coordinates               Weight
  0.000000  0.000000  0.000000      1.000000
  0.250000  0.000000  0.000000      2.000000
  0.500000  0.000000  0.000000      1.000000
  0.000000  0.333333  0.000000      2.000000
  0.250000  0.333333  0.000000      4.000000
  0.500000  0.333333  0.000000      2.000000
  0.000000  0.000000  0.333333      2.000000
  0.250000  0.000000  0.333333      4.000000
  0.500000  0.000000  0.333333      2.000000
  0.000000  0.333333  0.333333      4.000000
  0.250000  0.333333  0.333333      8.000000
  0.500000  0.333333  0.333333      4.000000
 
 Following cartesian coordinates:
            Coordinates               Weight
  0.000000  0.000000  0.000000      1.000000
  0.033248  0.000000  0.000000      2.000000
  0.066497  0.000000  0.000000      1.000000
  0.000000  0.034307  0.000000      2.000000
  0.033248  0.034307  0.000000      4.000000
  0.066497  0.034307  0.000000      2.000000
  0.000000  0.000000  0.031967      2.000000
  0.033248  0.000000  0.031967      4.000000
  0.066497  0.000000  0.031967      2.000000
  0.000000  0.034307  0.031967      4.000000
  0.033248  0.034307  0.031967      8.000000
  0.066497  0.034307  0.031967      4.000000
 


--------------------------------------------------------------------------------------------------------




 Dimension of arrays:
   k-points           NKPTS =     12   k-points in BZ     NKDIM =     12   number of bands    NBANDS=    128
   number of dos      NEDOS =    301   number of ions     NIONS =     40
   non local maximal  LDIM  =      4   non local SUM 2l+1 LMDIM =      8
   total plane-waves  NPLWV = 322560
   max r-space proj   IRMAX =   3198   max aug-charges    IRDMAX=  13083
   dimension x,y,z NGX =    56 NGY =   72 NGZ =   80
   dimension x,y,z NGXF=   112 NGYF=  144 NGZF=  160
   support grid    NGXF=   112 NGYF=  144 NGZF=  160
   ions per type =              12  28
   NGX,Y,Z   is equivalent  to a cutoff of  12.38, 12.32, 12.75 a.u.
   NGXF,Y,Z  is equivalent  to a cutoff of  24.76, 24.64, 25.51 a.u.

 SYSTEM =  unknown system                          
 POSCAR =  Li12 P28                                

 Startparameter for this run:
   NWRITE =      2    write-flag & timer
   PREC   = accura    normal or accurate (medium, high low for compatibility)
   ISTART =      0    job   : 0-new  1-cont  2-samecut
   ICHARG =      2    charge: 1-file 2-atom 10-const
   ISPIN  =      2    spin polarized calculation?
   LNONCOLLINEAR =      F non collinear calculations
   LSORBIT =      F    spin-orbit coupling
   INIWAV =      1    electr: 0-lowe 1-rand  2-diag
   LASPH  =      T    aspherical Exc in radial PAW
   METAGGA=      F    non-selfconsistent MetaGGA calc.

 Electronic Relaxation 1
   ENCUT  =  520.0 eV  38.22 Ry    6.18 a.u.  13.98 18.07 19.39*2*pi/ulx,y,z
   ENINI  =  520.0     initial cutoff
   ENAUG  =  628.9 eV  augmentation charge cutoff
   NELM   =    100;   NELMIN=  2; NELMDL= -5     # of ELM steps 
   EDIFF  = 0.1E-04   stopping-criterion for ELM
   LREAL  =      T    real-space projection
   NLSPLINE    = F    spline interpolate recip. space projectors
   LCOMPAT=      F    compatible to vasp.4.4
   GGA_COMPAT  = T    GGA compatible to vasp.4.4-vasp.4.6
   LMAXPAW     = -100 max onsite density
   LMAXMIX     =    2 max onsite mixed and CHGCAR
   VOSKOWN=      0    Vosko Wilk Nusair interpolation
   ROPT   =   -0.00025  -0.00025
 Ionic relaxation
   EDIFFG = 0.1E-03   stopping-criterion for IOM
   NSW    =      0    number of steps for IOM
   NBLOCK =      1;   KBLOCK =      1    inner block; outer block 
   IBRION =     -1    ionic relax: 0-MD 1-quasi-New 2-CG
   NFREE  =      0    steps in history (QN), initial steepest desc. (CG)
   ISIF   =      2    stress and relaxation
   IWAVPR =     10    prediction:  0-non 1-charg 2-wave 3-comb
   ISYM   =      2    0-nonsym 1-usesym 2-fastsym
   LCORR  =      T    Harris-Foulkes like correction to forces

   POTIM  = 0.5000    time-step for ionic-motion
   TEIN   =    0.0    initial temperature
   TEBEG  =    0.0;   TEEND  =   0.0 temperature during run
   SMASS  =  -3.00    Nose mass-parameter (am)
   estimated Nose-frequenzy (Omega)   =  0.10E-29 period in steps = 0.13E+47 mass=  -0.129E-26a.u.
   SCALEE = 1.0000    scale energy and forces
   NPACO  =    256;   APACO  = 16.0  distance and # of slots for P.C.
   PSTRESS=    0.0 pullay stress

  Mass of Ions in am
   POMASS =   7.01 30.97
  Ionic Valenz
   ZVAL   =   3.00  5.00
  Atomic Wigner-Seitz radii
   RWIGS  =  -1.00 -1.00
  virtual crystal weights 
   VCA    =   1.00  1.00
   NELECT =     176.0000    total number of electrons
   NUPDOWN=      -1.0000    fix difference up-down

 DOS related values:
   EMIN   =  10.00;   EMAX   =-10.00  energy-range for DOS
   EFERMI =   0.00
   ISMEAR =    -5;   SIGMA  =   0.05  broadening in eV -4-tet -1-fermi 0-gaus

 Electronic relaxation 2 (details)
   IALGO  =     38    algorithm
   LDIAG  =      T    sub-space diagonalisation (order eigenvalues)
   LSUBROT=      F    optimize rotation matrix (better conditioning)
   TURBO    =      0    0=normal 1=particle mesh
   IRESTART =      0    0=no restart 2=restart with 2 vectors
   NREBOOT  =      0    no. of reboots
   NMIN     =      0    reboot dimension
   EREF     =   0.00    reference energy to select bands
   IMIX   =      4    mixing-type and parameters
     AMIX     =   0.40;   BMIX     =  1.00
     AMIX_MAG =   1.60;   BMIX_MAG =  1.00
     AMIN     =   0.10
     WC   =   100.;   INIMIX=   1;  MIXPRE=   1;  MAXMIX= -45

 Intra band minimization:
   WEIMIN = 0.0000     energy-eigenvalue tresh-hold
   EBREAK =  0.20E-07  absolut break condition
   DEPER  =   0.30     relativ break condition  

   TIME   =   0.40     timestep for ELM

  volume/ion in A,a.u.               =      19.05       128.52
  Fermi-wavevector in a.u.,A,eV,Ry     =   1.004533  1.898292 13.729448  1.009086
  Thomas-Fermi vector in A             =   2.137155
 
 Write flags
   LWAVE        =      F    write WAVECAR
   LDOWNSAMPLE  =      F    k-point downsampling of WAVECAR
   LCHARG       =      F    write CHGCAR
   LVTOT        =      F    write LOCPOT, total local potential
   LVHAR        =      F    write LOCPOT, Hartree potential only
   LELF         =      F    write electronic localiz. function (ELF)
   LORBIT       =     11    0 simple, 1 ext, 2 COOP (PROOUT), +10 PAW based schemes


 Dipole corrections
   LMONO  =      F    monopole corrections only (constant potential shift)
   LDIPOL =      F    correct potential (dipole corrections)
   IDIPOL =      0    1-x, 2-y, 3-z, 4-all directions 
   EPSILON=  1.0000000 bulk dielectric constant

 Exchange correlation treatment:
   GGA     =    --    GGA type
   LEXCH   =     8    internal setting for exchange type
   VOSKOWN=      0    Vosko Wilk Nusair interpolation
   LHFCALC =     F    Hartree Fock is set to
   LHFONE  =     F    Hartree Fock one center treatment
   AEXX    =    0.0000 exact exchange contribution

 Linear response parameters
   LEPSILON=     F    determine dielectric tensor
   LRPA    =     F    only Hartree local field effects (RPA)
   LNABLA  =     F    use nabla operator in PAW spheres
   LVEL    =     F    velocity operator in full k-point grid
   LINTERFAST=   F  fast interpolation
   KINTER  =     0    interpolate to denser k-point grid
   CSHIFT  =0.1000    complex shift for real part using Kramers Kronig
   OMEGAMAX=  -1.0    maximum frequency
   DEG_THRESHOLD= 0.2000000E-02 threshold for treating states as degnerate
   RTIME   =   -0.100 relaxation time in fs
  (WPLASMAI=    0.000 imaginary part of plasma frequency in eV, 0.658/RTIME)
   DFIELD  = 0.0000000 0.0000000 0.0000000 field for delta impulse in time
 
 Orbital magnetization related:
   ORBITALMAG=     F  switch on orbital magnetization
   LCHIMAG   =     F  perturbation theory with respect to B field
   DQ        =  0.001000  dq finite difference perturbation B field
   LLRAUG    =     F  two centre corrections for induced B field



--------------------------------------------------------------------------------------------------------


 Static calculation
 charge density and potential will be updated during run
 spin polarized calculation
 Variant of blocked Davidson
 Davidson routine will perform the subspace rotation
 perform sub-space diagonalisation
    after iterative eigenvector-optimisation
 modified Broyden-mixing scheme, WC =      100.0
 initial mixing is a Kerker type mixing with AMIX =  0.4000 and BMIX =      1.0000
 Hartree-type preconditioning will be used
 using additional bands           40
 real space projection scheme for non local part
 use partial core corrections
 calculate Harris-corrections to forces 
   (improved forces if not selfconsistent)
 use gradient corrections 
 use of overlap-Matrix (Vanderbilt PP)
 Fermi weights with tetrahedron method with Bloechl corrections


--------------------------------------------------------------------------------------------------------


  energy-cutoff  :      520.00
  volume of cell :      761.81
      direct lattice vectors                 reciprocal lattice vectors
     7.519189000  0.000000000  0.000000000     0.132993066  0.000000000  0.000000000
     0.000000000  9.716252000  0.000000000     0.000000000  0.102920344  0.000000000
     0.000000000  0.000000000 10.427379000     0.000000000  0.000000000  0.095901377

  length of vectors
     7.519189000  9.716252000 10.427379000     0.132993066  0.102920344  0.095901377


 
 k-points in units of 2pi/SCALE and weight: Fully automatic kpoint scheme           
   0.00000000  0.00000000  0.00000000       0.028
   0.03324827  0.00000000  0.00000000       0.056
   0.06649653  0.00000000  0.00000000       0.028
   0.00000000  0.03430678  0.00000000       0.056
   0.03324827  0.03430678  0.00000000       0.111
   0.06649653  0.03430678  0.00000000       0.056
   0.00000000  0.00000000  0.03196713       0.056
   0.03324827  0.00000000  0.03196713       0.111
   0.06649653  0.00000000  0.03196713       0.056
   0.00000000  0.03430678  0.03196713       0.111
   0.03324827  0.03430678  0.03196713       0.222
   0.06649653  0.03430678  0.03196713       0.111
 
 k-points in reciprocal lattice and weights: Fully automatic kpoint scheme           
   0.00000000  0.00000000  0.00000000       0.028
   0.25000000  0.00000000  0.00000000       0.056
   0.50000000  0.00000000  0.00000000       0.028
   0.00000000  0.33333333  0.00000000       0.056
   0.25000000  0.33333333  0.00000000       0.111
   0.50000000  0.33333333  0.00000000       0.056
   0.00000000  0.00000000  0.33333333       0.056
   0.25000000  0.00000000  0.33333333       0.111
   0.50000000  0.00000000  0.33333333       0.056
   0.00000000  0.33333333  0.33333333       0.111
   0.25000000  0.33333333  0.33333333       0.222
   0.50000000  0.33333333  0.33333333       0.111
 
 position of ions in fractional coordinates (direct lattice) 
   0.85018500  0.30738200  0.81621200
   0.35018500  0.19261800  0.18378800
   0.14981500  0.80738200  0.68378800
   0.64981500  0.69261800  0.31621200
   0.56869800  0.02628000  0.01503900
   0.06869800  0.47372000  0.98496100
   0.43130200  0.52628000  0.48496100
   0.93130200  0.97372000  0.51503900
   0.40191800  0.30112300  0.69102400
   0.90191800  0.19887700  0.30897600
   0.59808200  0.80112300  0.80897600
   0.09808200  0.69887700  0.19102400
   0.28056700  0.87506300  0.31843100
   0.78056700  0.62493700  0.68156900
   0.71943300  0.37506300  0.18156900
   0.21943300  0.12493700  0.81843100
   0.63753500  0.04799500  0.38771000
   0.13753500  0.45200500  0.61229000
   0.36246500  0.54799500  0.11229000
   0.86246500  0.95200500  0.88771000
   0.53353500  0.94267100  0.56564200
   0.03353500  0.55732900  0.43435800
   0.46646500  0.44267100  0.93435800
   0.96646500  0.05732900  0.06564200
   0.40562500  0.13386200  0.49486000
   0.90562500  0.36613800  0.50514000
   0.59437500  0.63386200  0.00514000
   0.09437500  0.86613800  0.99486000
   0.31672000  0.92755600  0.88117400
   0.81672000  0.57244400  0.11882600
   0.68328000  0.42755600  0.61882600
   0.18328000  0.07244400  0.38117400
   0.12904600  0.21871700  0.99458500
   0.62904600  0.28128300  0.00541500
   0.87095400  0.71871700  0.50541500
   0.37095400  0.78128300  0.49458500
   0.96625200  0.07098300  0.73388800
   0.46625200  0.42901700  0.26611200
   0.03374800  0.57098300  0.76611200
   0.53374800  0.92901700  0.23388800
 
 position of ions in cartesian coordinates  (Angst):
   6.39270170  2.98660097  8.51095187
   2.63310720  1.87152503  1.91642713
   1.12648730  7.84472697  7.13011663
   4.88608180  6.72965103  3.29726237
   4.27614775  0.25534310  0.15681735
   0.51655325  4.60278290 10.27056165
   3.24304125  5.11346910  5.05687215
   7.00263575  9.46090890  5.37050685
   3.02209740  2.92578695  7.20556915
   6.78169190  1.93233905  3.22180985
   4.49709160  7.78391295  8.43549935
   0.73749710  6.79046505  1.99187965
   2.10963630  8.50233262  3.32040072
   5.86923080  6.07204538  7.10697828
   5.40955270  3.64420662  1.89328878
   1.64995820  1.21391938  8.53409022
   4.79374616  0.46633151  4.04279911
   1.03415166  4.39179449  6.38457989
   2.72544284  5.32445751  1.17089039
   6.48503734  9.24992049  9.25648861
   4.01175050  9.15922899  5.89816351
   0.25215600  5.41514901  4.52921549
   3.50743850  4.30110299  9.74290499
   7.26703300  0.55702301  0.68447401
   3.04997104  1.30063693  5.16009277
   6.80956554  3.55748907  5.26728623
   4.46921796  6.15876293  0.05359673
   0.70962346  8.41561507 10.37378227
   2.38147754  9.01236784  9.18833526
   6.14107204  5.56201016  1.23904374
   5.13771146  4.15424184  6.45273324
   1.37811696  0.70388416  3.97464576
   0.97032126  2.12510949 10.37091474
   4.72991576  2.73301651  0.05646426
   6.54886774  6.98323549  5.27015376
   2.78927324  7.59114251  5.15722524
   7.26543141  0.68968872  7.65252832
   3.50583691  4.16843728  2.77485068
   0.25375759  5.54781472  7.98854018
   4.01335209  9.02656328  2.43883882
 


--------------------------------------------------------------------------------------------------------


 k-point   1 :   0.0000 0.0000 0.0000  plane waves:   20437
 k-point   2 :   0.2500 0.0000 0.0000  plane waves:   20518
 k-point   3 :   0.5000 0.0000 0.0000  plane waves:   20540
 k-point   4 :   0.0000 0.3333 0.0000  plane waves:   20470
 k-point   5 :   0.2500 0.3333 0.0000  plane waves:   20536
 k-point   6 :   0.5000 0.3333 0.0000  plane waves:   20534
 k-point   7 :   0.0000 0.0000 0.3333  plane waves:   20483
 k-point   8 :   0.2500 0.0000 0.3333  plane waves:   20504
 k-point   9 :   0.5000 0.0000 0.3333  plane waves:   20496
 k-point  10 :   0.0000 0.3333 0.3333  plane waves:   20488
 k-point  11 :   0.2500 0.3333 0.3333  plane waves:   20513
 k-point  12 :   0.5000 0.3333 0.3333  plane waves:   20540

 maximum and minimum number of plane-waves per node :     20540    20437

 maximum number of plane-waves:     20540
 maximum index in each direction: 
   IXMAX=   13   IYMAX=   18   IZMAX=   19
   IXMIN=  -14   IYMIN=  -18   IZMIN=  -19


 serial   3D FFT for wavefunctions
 parallel 3D FFT for charge:
    minimum data exchange during FFTs selected (reduces bandwidth)


 total amount of memory used by VASP MPI-rank0   231800. kBytes
=======================================================================

   base      :      30000. kBytes
   nonlr-proj:       9303. kBytes
   fftplans  :      12265. kBytes
   grid      :      51996. kBytes
   one-center:        245. kBytes
   wavefun   :     127991. kBytes
 
     INWAV:  cpu time    0.0000: real time    0.0000
 Broyden mixing: mesh for mixing (old mesh)
   NGX = 27   NGY = 37   NGZ = 39
  (NGX  =112   NGY  =144   NGZ  =160)
  gives a total of  38961 points

 initial charge density was supplied:
 charge density of overlapping atoms calculated
 number of electron     176.0000000 magnetization      24.0000000
 keeping initial charge density in first step


--------------------------------------------------------------------------------------------------------


 Maximum index for non-local projection operator         3062
 Maximum index for augmentation-charges         1595 (set IRDMAX)


--------------------------------------------------------------------------------------------------------


 First call to EWALD:  gamma=   0.194
 Maximum number of real-space cells 3x 3x 2
 Maximum number of reciprocal cells 2x 3x 3

    FEWALD:  cpu time    0.0010: real time    0.0010


--------------------------------------- Iteration      1(   1)  ---------------------------------------


    POTLOK:  cpu time    0.6613: real time    0.6613
    SETDIJ:  cpu time    0.6760: real time    0.6761
     EDDAV:  cpu time   53.1402: real time   53.1446
 BZINTS: Fermi energy:   13.678381;  176.000000 electrons
         Band energy:-0.776045E+02;  BLOECHL correction:   -0.014832
       DOS:  cpu time    0.0257: real time    0.0257
    --------------------------------------------
      LOOP:  cpu time   54.5033: real time   54.5077

 eigenvalue-minimisations  :  6144
 total energy-change (2. order) : 0.1051450E+04  (-0.6867399E+04)
 number of electron     176.0000000 magnetization      24.0000000
 augmentation part      176.0000000 magnetization      24.0000000

 Free energy of the ion-electron system (eV)
  ---------------------------------------------------
  alpha Z        PSCENC =       150.98616665
  Ewald energy   TEWEN  =     -5434.11242261
  -Hartree energ DENC   =     -1240.14659176
  -exchange      EXHF   =         0.00000000
  -V(xc)+E(xc)   XCENC  =       245.78932251
  PAW double counting   =      4868.62014042    -4824.53102578
  entropy T*S    EENTRO =         0.00000000
  eigenvalues    EBANDS =       -77.60446105
  atomic energy  EATOM  =      7362.44866298
  Solvation  Ediel_sol  =         0.00000000
  ---------------------------------------------------
  free energy    TOTEN  =      1051.44979136 eV

  energy without entropy =     1051.44979136  energy(sigma->0) =     1051.44979136


--------------------------------------------------------------------------------------------------------




--------------------------------------- Iteration      1(   2)  ---------------------------------------


     EDDAV:  cpu time   60.2205: real time   60.2969
 BZINTS: Fermi energy:    5.934088;  176.000000 electrons
         Band energy:-0.116183E+04;  BLOECHL correction:   -0.000000
       DOS:  cpu time    0.0134: real time    0.0134
    --------------------------------------------
      LOOP:  cpu time   60.2338: real time   60.3102

 eigenvalue-minimisations  :  7264
 total energy-change (2. order) :-0.1084222E+04  (-0.9951897E+03)
 number of electron     176.0000000 magnetization      24.0000000
 augmentation part      176.0000000 magnetization      24.0000000

 Free energy of the ion-electron system (eV)
  ---------------------------------------------------
  alpha Z        PSCENC =       150.98616665
  Ewald energy   TEWEN  =     -5434.11242261
  -Hartree energ DENC   =     -1240.14659176
  -exchange      EXHF   =         0.00000000
  -V(xc)+E(xc)   XCENC  =       245.78932251
  PAW double counting   =      4868.62014042    -4824.53102578
  entropy T*S    EENTRO =         0.00000000
  eigenvalues    EBANDS =     -1161.82606232
  atomic energy  EATOM  =      7362.44866298
  Solvation  Ediel_sol  =         0.00000000
  ---------------------------------------------------
  free energy    TOTEN  =       -32.77180991 eV

  energy without entropy =      -32.77180991  energy(sigma->0) =      -32.77180991


--------------------------------------------------------------------------------------------------------




--------------------------------------- Iteration      1(   3)  ---------------------------------------


     EDDAV:  cpu time   68.3822: real time   68.5872
 BZINTS: Fermi energy:    5.234741;  176.000000 electrons
         Band energy:-0.129576E+04;  BLOECHL correction:    0.000000
       DOS:  cpu time    0.0132: real time    0.0132
    --------------------------------------------
      LOOP:  cpu time   68.3954: real time   68.6003

 eigenvalue-minimisations  :  8328
 total energy-change (2. order) :-0.1339355E+03  (-0.1321069E+03)
 number of electron     176.0000000 magnetization      24.0000000
 augmentation part      176.0000000 magnetization      24.0000000

 Free energy of the ion-electron system (eV)
  ---------------------------------------------------
  alpha Z        PSCENC =       150.98616665
  Ewald energy   TEWEN  =     -5434.11242261
  -Hartree energ DENC   =     -1240.14659176
  -exchange      EXHF   =         0.00000000
  -V(xc)+E(xc)   XCENC  =       245.78932251
  PAW double counting   =      4868.62014042    -4824.53102578
  entropy T*S    EENTRO =         0.00000000
  eigenvalues    EBANDS =     -1295.76156224
  atomic energy  EATOM  =      7362.44866298
  Solvation  Ediel_sol  =         0.00000000
  ---------------------------------------------------
  free energy    TOTEN  =      -166.70730983 eV

  energy without entropy =     -166.70730983  energy(sigma->0) =     -166.70730983


--------------------------------------------------------------------------------------------------------




--------------------------------------- Iteration      1(   4)  ---------------------------------------


     EDDAV:  cpu time   87.2553: real time   87.2998
 BZINTS: Fermi energy:    5.175999;  176.000000 electrons
         Band energy:-0.131165E+04;  BLOECHL correction:   -0.000000
       DOS:  cpu time    0.0141: real time    0.0141
    --------------------------------------------
      LOOP:  cpu time   87.2695: real time   87.3139

 eigenvalue-minimisations  : 11096
 total energy-change (2. order) :-0.1588858E+02  (-0.1576923E+02)
 number of electron     176.0000000 magnetization      24.0000000
 augmentation part      176.0000000 magnetization      24.0000000

 Free energy of the ion-electron system (eV)
  ---------------------------------------------------
  alpha Z        PSCENC =       150.98616665
  Ewald energy   TEWEN  =     -5434.11242261
  -Hartree energ DENC   =     -1240.14659176
  -exchange      EXHF   =         0.00000000
  -V(xc)+E(xc)   XCENC  =       245.78932251
  PAW double counting   =      4868.62014042    -4824.53102578
  entropy T*S    EENTRO =         0.00000000
  eigenvalues    EBANDS =     -1311.65014657
  atomic energy  EATOM  =      7362.44866298
  Solvation  Ediel_sol  =         0.00000000
  ---------------------------------------------------
  free energy    TOTEN  =      -182.59589416 eV

  energy without entropy =     -182.59589416  energy(sigma->0) =     -182.59589416


--------------------------------------------------------------------------------------------------------




--------------------------------------- Iteration      1(   5)  ---------------------------------------


     EDDAV:  cpu time   79.7656: real time   79.7731
 BZINTS: Fermi energy:    5.166544;  176.000000 electrons
         Band energy:-0.131443E+04;  BLOECHL correction:   -0.000000
       DOS:  cpu time    0.0149: real time    0.0149
    CHARGE:  cpu time    3.4050: real time    3.4055
    MIXING:  cpu time    0.0157: real time    0.0157
    --------------------------------------------
      LOOP:  cpu time   83.2013: real time   83.2092

 eigenvalue-minimisations  :  9872
 total energy-change (2. order) :-0.2780391E+01  (-0.2778848E+01)
 number of electron     176.0000053 magnetization      13.7713714
 augmentation part       -3.3011123 magnetization      13.4878260

 Broyden mixing:
  rms(total) = 0.35266E+01    rms(broyden)= 0.35263E+01
  rms(prec ) = 0.36626E+01
  weight for this iteration     100.00

 Free energy of the ion-electron system (eV)
  ---------------------------------------------------
  alpha Z        PSCENC =       150.98616665
  Ewald energy   TEWEN  =     -5434.11242261
  -Hartree energ DENC   =     -1240.14659176
  -exchange      EXHF   =         0.00000000
  -V(xc)+E(xc)   XCENC  =       245.78932251
  PAW double counting   =      4868.62014042    -4824.53102578
  entropy T*S    EENTRO =         0.00000000
  eigenvalues    EBANDS =     -1314.43053737
  atomic energy  EATOM  =      7362.44866298
  Solvation  Ediel_sol  =         0.00000000
  ---------------------------------------------------
  free energy    TOTEN  =      -185.37628496 eV

  energy without entropy =     -185.37628496  energy(sigma->0) =     -185.37628496


--------------------------------------------------------------------------------------------------------




--------------------------------------- Iteration      1(   6)  ---------------------------------------


    POTLOK:  cpu time    0.6704: real time    0.6706
    SETDIJ:  cpu time    0.6905: real time    0.6906
     EDDAV:  cpu time   67.9930: real time   67.9994
 BZINTS: Fermi energy:    5.310154;  176.000000 electrons
         Band energy:-0.128395E+04;  BLOECHL correction:   -0.000000
       DOS:  cpu time    0.0144: real time    0.0144
    CHARGE:  cpu time    3.5184: real time    3.5187
    MIXING:  cpu time    0.0177: real time    0.0177
    --------------------------------------------
      LOOP:  cpu time   72.9044: real time   72.9114

 eigenvalue-minimisations  :  8008
 total energy-change (2. order) :-0.2045992E+00  (-0.8724583E+00)
 number of electron     176.0000052 magnetization       8.0741591
 augmentation part       -3.1897465 magnetization       8.1893584

 Broyden mixing:
  rms(total) = 0.19514E+01    rms(broyden)= 0.19514E+01
  rms(prec ) = 0.20124E+01
  weight for this iteration     100.00

 eigenvalues of (default mixing * dielectric matrix)
  average eigenvalue GAMMA=   0.7588
  0.7588

 Free energy of the ion-electron system (eV)
  ---------------------------------------------------
  alpha Z        PSCENC =       150.98616665
  Ewald energy   TEWEN  =     -5434.11242261
  -Hartree energ DENC   =     -1270.30292685
  -exchange      EXHF   =         0.00000000
  -V(xc)+E(xc)   XCENC  =       248.69582958
  PAW double counting   =      8667.80991311    -8627.15480427
  entropy T*S    EENTRO =         0.00000000
  eigenvalues    EBANDS =     -1283.95130271
  atomic energy  EATOM  =      7362.44866298
  Solvation  Ediel_sol  =         0.00000000
  ---------------------------------------------------
  free energy    TOTEN  =      -185.58088413 eV

  energy without entropy =     -185.58088413  energy(sigma->0) =     -185.58088413


--------------------------------------------------------------------------------------------------------




--------------------------------------- Iteration      1(   7)  ---------------------------------------


    POTLOK:  cpu time    0.6889: real time    0.6889
    SETDIJ:  cpu time    0.6448: real time    0.6448
     EDDAV:  cpu time   64.1336: real time   64.1387
 BZINTS: Fermi energy:    5.466742;  176.000000 electrons
         Band energy:-0.127033E+04;  BLOECHL correction:    0.000000
       DOS:  cpu time    0.0140: real time    0.0140
    CHARGE:  cpu time    3.6177: real time    3.6179
    MIXING:  cpu time    0.0171: real time    0.0171
    --------------------------------------------
      LOOP:  cpu time   69.1160: real time   69.1215

 eigenvalue-minimisations  :  7712
 total energy-change (2. order) :-0.2207767E+01  (-0.3188039E+00)
 number of electron     176.0000052 magnetization       0.4377053
 augmentation part       -3.1676251 magnetization       0.5871450

 Broyden mixing:
  rms(total) = 0.11777E+01    rms(broyden)= 0.11777E+01
  rms(prec ) = 0.12117E+01
  weight for this iteration     100.00

 eigenvalues of (default mixing * dielectric matrix)
  average eigenvalue GAMMA=   1.3824
  0.6633  2.1014

 Free energy of the ion-electron system (eV)
  ---------------------------------------------------
  alpha Z        PSCENC =       150.98616665
  Ewald energy   TEWEN  =     -5434.11242261
  -Hartree energ DENC   =     -1284.58374471
  -exchange      EXHF   =         0.00000000
  -V(xc)+E(xc)   XCENC  =       248.96566194
  PAW double counting   =     11608.84437487   -11570.00594524
  entropy T*S    EENTRO =         0.00000000
  eigenvalues    EBANDS =     -1270.33140513
  atomic energy  EATOM  =      7362.44866298
  Solvation  Ediel_sol  =         0.00000000
  ---------------------------------------------------
  free energy    TOTEN  =      -187.78865125 eV

  energy without entropy =     -187.78865125  energy(sigma->0) =     -187.78865125


--------------------------------------------------------------------------------------------------------




--------------------------------------- Iteration      1(   8)  ---------------------------------------


    POTLOK:  cpu time    0.6835: real time    0.6836
    SETDIJ:  cpu time    0.6247: real time    0.6247
     EDDAV:  cpu time   63.8009: real time   63.8064
 BZINTS: Fermi energy:    5.680722;  176.000000 electrons
         Band energy:-0.125266E+04;  BLOECHL correction:    0.000000
       DOS:  cpu time    0.0147: real time    0.0147
    CHARGE:  cpu time    3.5921: real time    3.5924
    MIXING:  cpu time    0.0174: real time    0.0174
    --------------------------------------------
      LOOP:  cpu time   68.7334: real time   68.7393

 eigenvalue-minimisations  :  7504
 total energy-change (2. order) :-0.8331077E+00  (-0.1431873E+00)
 number of electron     176.0000052 magnetization      -0.1692973
 augmentation part       -3.1567136 magnetization      -0.1759874

 Broyden mixing:
  rms(total) = 0.24723E+00    rms(broyden)= 0.24722E+00
  rms(prec ) = 0.25851E+00
  weight for this iteration     100.00

 eigenvalues of (default mixing * dielectric matrix)
  average eigenvalue GAMMA=   1.2663
  2.3897  0.7803  0.6289

 Free energy of the ion-electron system (eV)
  ---------------------------------------------------
  alpha Z        PSCENC =       150.98616665
  Ewald energy   TEWEN  =     -5434.11242261
  -Hartree energ DENC   =     -1302.95295597
  -exchange      EXHF   =         0.00000000
  -V(xc)+E(xc)   XCENC  =       251.00571971
  PAW double counting   =     16694.14530558   -16657.48401549
  entropy T*S    EENTRO =         0.00000000
  eigenvalues    EBANDS =     -1252.65821980
  atomic energy  EATOM  =      7362.44866298
  Solvation  Ediel_sol  =         0.00000000
  ---------------------------------------------------
  free energy    TOTEN  =      -188.62175895 eV

  energy without entropy =     -188.62175895  energy(sigma->0) =     -188.62175895


--------------------------------------------------------------------------------------------------------




--------------------------------------- Iteration      1(   9)  ---------------------------------------


    POTLOK:  cpu time    0.6869: real time    0.6870
    SETDIJ:  cpu time    0.6348: real time    0.6348
     EDDAV:  cpu time   71.1086: real time   71.1148
 BZINTS: Fermi energy:    5.703882;  176.000000 electrons
         Band energy:-0.125164E+04;  BLOECHL correction:    0.000000
       DOS:  cpu time    0.0141: real time    0.0141
    CHARGE:  cpu time    3.3629: real time    3.3632
    MIXING:  cpu time    0.0178: real time    0.0178
    --------------------------------------------
      LOOP:  cpu time   75.8252: real time   75.8317

 eigenvalue-minimisations  :  8448
 total energy-change (2. order) :-0.6696713E-01  (-0.1999581E-01)
 number of electron     176.0000051 magnetization      -0.1877877
 augmentation part       -3.2023290 magnetization      -0.1882683

 Broyden mixing:
  rms(total) = 0.12040E+00    rms(broyden)= 0.12036E+00
  rms(prec ) = 0.12711E+00
  weight for this iteration     100.00

 eigenvalues of (default mixing * dielectric matrix)
  average eigenvalue GAMMA=   1.2287
  2.4759  1.1210  0.7010  0.6168

 Free energy of the ion-electron system (eV)
  ---------------------------------------------------
  alpha Z        PSCENC =       150.98616665
  Ewald energy   TEWEN  =     -5434.11242261
  -Hartree energ DENC   =     -1304.11496454
  -exchange      EXHF   =         0.00000000
  -V(xc)+E(xc)   XCENC  =       251.27085515
  PAW double counting   =     17326.32877898   -17289.86019724
  entropy T*S    EENTRO =         0.00000000
  eigenvalues    EBANDS =     -1251.63560546
  atomic energy  EATOM  =      7362.44866298
  Solvation  Ediel_sol  =         0.00000000
  ---------------------------------------------------
  free energy    TOTEN  =      -188.68872608 eV

  energy without entropy =     -188.68872608  energy(sigma->0) =     -188.68872608


--------------------------------------------------------------------------------------------------------




--------------------------------------- Iteration      1(  10)  ---------------------------------------


    POTLOK:  cpu time    0.6506: real time    0.6506
    SETDIJ:  cpu time    0.6940: real time    0.6940
     EDDAV:  cpu time   66.7128: real time   66.7191
 BZINTS: Fermi energy:    5.702403;  176.000000 electrons
         Band energy:-0.125139E+04;  BLOECHL correction:    0.000000
       DOS:  cpu time    0.0141: real time    0.0141
    CHARGE:  cpu time    3.3303: real time    3.3306
    MIXING:  cpu time    0.0162: real time    0.0162
    --------------------------------------------
      LOOP:  cpu time   71.4180: real time   71.4247

 eigenvalue-minimisations  :  8096
 total energy-change (2. order) :-0.1114578E-01  (-0.3976778E-02)
 number of electron     176.0000051 magnetization      -0.0540224
 augmentation part       -3.2144316 magnetization      -0.0592333

 Broyden mixing:
  rms(total) = 0.43848E-01    rms(broyden)= 0.43837E-01
  rms(prec ) = 0.48728E-01
  weight for this iteration     100.00

 eigenvalues of (default mixing * dielectric matrix)
  average eigenvalue GAMMA=   1.2254
  2.4310  1.4576  0.9294  0.6782  0.6309

 Free energy of the ion-electron system (eV)
  ---------------------------------------------------
  alpha Z        PSCENC =       150.98616665
  Ewald energy   TEWEN  =     -5434.11242261
  -Hartree energ DENC   =     -1304.46662216
  -exchange      EXHF   =         0.00000000
  -V(xc)+E(xc)   XCENC  =       251.37032557
  PAW double counting   =     17488.97256235   -17452.51135213
  entropy T*S    EENTRO =         0.00000000
  eigenvalues    EBANDS =     -1251.38719252
  atomic energy  EATOM  =      7362.44866298
  Solvation  Ediel_sol  =         0.00000000
  ---------------------------------------------------
  free energy    TOTEN  =      -188.69987187 eV

  energy without entropy =     -188.69987187  energy(sigma->0) =     -188.69987187


--------------------------------------------------------------------------------------------------------




--------------------------------------- Iteration      1(  11)  ---------------------------------------


    POTLOK:  cpu time    0.6377: real time    0.6378
    SETDIJ:  cpu time    0.7945: real time    0.7945
     EDDAV:  cpu time   61.3065: real time   61.3124
 BZINTS: Fermi energy:    5.707666;  176.000000 electrons
         Band energy:-0.125092E+04;  BLOECHL correction:    0.000000
       DOS:  cpu time    0.0151: real time    0.0151
    CHARGE:  cpu time    3.5209: real time    3.5213
    MIXING:  cpu time    0.0168: real time    0.0168
    --------------------------------------------
      LOOP:  cpu time   66.2916: real time   66.2980

 eigenvalue-minimisations  :  7352
 total energy-change (2. order) :-0.3848616E-02  (-0.6057994E-03)
 number of electron     176.0000051 magnetization      -0.0106549
 augmentation part       -3.2135949 magnetization      -0.0161334

 Broyden mixing:
  rms(total) = 0.20956E-01    rms(broyden)= 0.20954E-01
  rms(prec ) = 0.24458E-01
  weight for this iteration     100.00

 eigenvalues of (default mixing * dielectric matrix)
  average eigenvalue GAMMA=   1.1960
  2.3821  1.6068  1.1509  0.7630  0.6385  0.6351

 Free energy of the ion-electron system (eV)
  ---------------------------------------------------
  alpha Z        PSCENC =       150.98616665
  Ewald energy   TEWEN  =     -5434.11242261
  -Hartree energ DENC   =     -1305.03870051
  -exchange      EXHF   =         0.00000000
  -V(xc)+E(xc)   XCENC  =       251.42196964
  PAW double counting   =     17441.40000431   -17404.89365306
  entropy T*S    EENTRO =         0.00000000
  eigenvalues    EBANDS =     -1250.91574788
  atomic energy  EATOM  =      7362.44866298
  Solvation  Ediel_sol  =         0.00000000
  ---------------------------------------------------
  free energy    TOTEN  =      -188.70372049 eV

  energy without entropy =     -188.70372049  energy(sigma->0) =     -188.70372049


--------------------------------------------------------------------------------------------------------




--------------------------------------- Iteration      1(  12)  ---------------------------------------


    POTLOK:  cpu time    0.6710: real time    0.6710
    SETDIJ:  cpu time    0.6847: real time    0.6847
     EDDAV:  cpu time   68.3087: real time   68.3154
 BZINTS: Fermi energy:    5.711774;  176.000000 electrons
         Band energy:-0.125051E+04;  BLOECHL correction:   -0.000000
       DOS:  cpu time    0.0160: real time    0.0160
    CHARGE:  cpu time    3.3117: real time    3.3120
    MIXING:  cpu time    0.0180: real time    0.0180
    --------------------------------------------
      LOOP:  cpu time   73.0100: real time   73.0171

 eigenvalue-minimisations  :  8424
 total energy-change (2. order) :-0.1749665E-02  (-0.2152449E-03)
 number of electron     176.0000051 magnetization       0.0086121
 augmentation part       -3.2098877 magnetization       0.0082708

 Broyden mixing:
  rms(total) = 0.10572E-01    rms(broyden)= 0.10567E-01
  rms(prec ) = 0.13328E-01
  weight for this iteration     100.00

 eigenvalues of (default mixing * dielectric matrix)
  average eigenvalue GAMMA=   1.2294
  2.2082  2.1132  1.3256  0.9970  0.7088  0.6265  0.6265

 Free energy of the ion-electron system (eV)
  ---------------------------------------------------
  alpha Z        PSCENC =       150.98616665
  Ewald energy   TEWEN  =     -5434.11242261
  -Hartree energ DENC   =     -1305.51361974
  -exchange      EXHF   =         0.00000000
  -V(xc)+E(xc)   XCENC  =       251.46378341
  PAW double counting   =     17422.74813261   -17386.21990359
  entropy T*S    EENTRO =         0.00000000
  eigenvalues    EBANDS =     -1250.50626986
  atomic energy  EATOM  =      7362.44866298
  Solvation  Ediel_sol  =         0.00000000
  ---------------------------------------------------
  free energy    TOTEN  =      -188.70547015 eV

  energy without entropy =     -188.70547015  energy(sigma->0) =     -188.70547015


--------------------------------------------------------------------------------------------------------




--------------------------------------- Iteration      1(  13)  ---------------------------------------


    POTLOK:  cpu time    0.6396: real time    0.6396
    SETDIJ:  cpu time    0.6457: real time    0.6457
     EDDAV:  cpu time   64.5068: real time   64.5120
 BZINTS: Fermi energy:    5.714098;  176.000000 electrons
         Band energy:-0.125012E+04;  BLOECHL correction:    0.000000
       DOS:  cpu time    0.0140: real time    0.0140
    CHARGE:  cpu time    3.5819: real time    3.5822
    MIXING:  cpu time    0.0186: real time    0.0186
    --------------------------------------------
      LOOP:  cpu time   69.4066: real time   69.4122

 eigenvalue-minimisations  :  7584
 total energy-change (2. order) :-0.8514723E-03  (-0.6216014E-04)
 number of electron     176.0000051 magnetization       0.0084583
 augmentation part       -3.2088638 magnetization       0.0086315

 Broyden mixing:
  rms(total) = 0.43240E-02    rms(broyden)= 0.43229E-02
  rms(prec ) = 0.60965E-02
  weight for this iteration     100.00

 eigenvalues of (default mixing * dielectric matrix)
  average eigenvalue GAMMA=   1.2590
  2.4157  2.4157  1.1999  1.1999  0.8850  0.6300  0.6300  0.6958

 Free energy of the ion-electron system (eV)
  ---------------------------------------------------
  alpha Z        PSCENC =       150.98616665
  Ewald energy   TEWEN  =     -5434.11242261
  -Hartree energ DENC   =     -1305.95588657
  -exchange      EXHF   =         0.00000000
  -V(xc)+E(xc)   XCENC  =       251.50259974
  PAW double counting   =     17413.49160651   -17376.94812769
  entropy T*S    EENTRO =         0.00000000
  eigenvalues    EBANDS =     -1250.11892063
  atomic energy  EATOM  =      7362.44866298
  Solvation  Ediel_sol  =         0.00000000
  ---------------------------------------------------
  free energy    TOTEN  =      -188.70632162 eV

  energy without entropy =     -188.70632162  energy(sigma->0) =     -188.70632162


--------------------------------------------------------------------------------------------------------




--------------------------------------- Iteration      1(  14)  ---------------------------------------


    POTLOK:  cpu time    0.6749: real time    0.6749
    SETDIJ:  cpu time    0.6383: real time    0.6384
     EDDAV:  cpu time   66.4835: real time   66.4906
 BZINTS: Fermi energy:    5.716236;  176.000000 electrons
         Band energy:-0.124985E+04;  BLOECHL correction:   -0.000000
       DOS:  cpu time    0.0145: real time    0.0145
    CHARGE:  cpu time    3.6284: real time    3.6290
    MIXING:  cpu time    0.0193: real time    0.0193
    --------------------------------------------
      LOOP:  cpu time   71.4590: real time   71.4667

 eigenvalue-minimisations  :  7680
 total energy-change (2. order) :-0.3093063E-03  (-0.3006839E-04)
 number of electron     176.0000051 magnetization       0.0019164
 augmentation part       -3.2073476 magnetization       0.0015364

 Broyden mixing:
  rms(total) = 0.23291E-02    rms(broyden)= 0.23280E-02
  rms(prec ) = 0.30086E-02
  weight for this iteration     100.00

 eigenvalues of (default mixing * dielectric matrix)
  average eigenvalue GAMMA=   1.2849
  2.5703  2.5703  1.3702  1.3702  0.9639  0.7930  0.6780  0.6241  0.6241

 Free energy of the ion-electron system (eV)
  ---------------------------------------------------
  alpha Z        PSCENC =       150.98616665
  Ewald energy   TEWEN  =     -5434.11242261
  -Hartree energ DENC   =     -1306.25759179
  -exchange      EXHF   =         0.00000000
  -V(xc)+E(xc)   XCENC  =       251.52767002
  PAW double counting   =     17410.46561996   -17373.91428905
  entropy T*S    EENTRO =         0.00000000
  eigenvalues    EBANDS =     -1249.85044710
  atomic energy  EATOM  =      7362.44866298
  Solvation  Ediel_sol  =         0.00000000
  ---------------------------------------------------
  free energy    TOTEN  =      -188.70663093 eV

  energy without entropy =     -188.70663093  energy(sigma->0) =     -188.70663093


--------------------------------------------------------------------------------------------------------




--------------------------------------- Iteration      1(  15)  ---------------------------------------


    POTLOK:  cpu time    0.7040: real time    0.7041
    SETDIJ:  cpu time    0.9669: real time    0.9670
     EDDAV:  cpu time   66.9889: real time   66.9953
 BZINTS: Fermi energy:    5.717220;  176.000000 electrons
         Band energy:-0.124973E+04;  BLOECHL correction:    0.000000
       DOS:  cpu time    0.0157: real time    0.0157
    CHARGE:  cpu time    3.4381: real time    3.4383
    MIXING:  cpu time    0.0204: real time    0.0204
    --------------------------------------------
      LOOP:  cpu time   72.1340: real time   72.1408

 eigenvalue-minimisations  :  7432
 total energy-change (2. order) :-0.7494146E-04  (-0.8986717E-05)
 number of electron     176.0000051 magnetization      -0.0011317
 augmentation part       -3.2063632 magnetization      -0.0011237

 Broyden mixing:
  rms(total) = 0.12695E-02    rms(broyden)= 0.12682E-02
  rms(prec ) = 0.15119E-02
  weight for this iteration     100.00

 eigenvalues of (default mixing * dielectric matrix)
  average eigenvalue GAMMA=   1.3077
  2.8945  2.3576  2.0316  1.1870  0.9509  0.9509  0.7900  0.6688  0.6313  0.6149

 Free energy of the ion-electron system (eV)
  ---------------------------------------------------
  alpha Z        PSCENC =       150.98616665
  Ewald energy   TEWEN  =     -5434.11242261
  -Hartree energ DENC   =     -1306.38819558
  -exchange      EXHF   =         0.00000000
  -V(xc)+E(xc)   XCENC  =       251.53696863
  PAW double counting   =     17409.60192237   -17373.04704372
  entropy T*S    EENTRO =         0.00000000
  eigenvalues    EBANDS =     -1249.73276459
  atomic energy  EATOM  =      7362.44866298
  Solvation  Ediel_sol  =         0.00000000
  ---------------------------------------------------
  free energy    TOTEN  =      -188.70670587 eV

  energy without entropy =     -188.70670587  energy(sigma->0) =     -188.70670587


--------------------------------------------------------------------------------------------------------




--------------------------------------- Iteration      1(  16)  ---------------------------------------


    POTLOK:  cpu time    0.7007: real time    0.7007
    SETDIJ:  cpu time    0.9754: real time    0.9754
     EDDAV:  cpu time   55.9118: real time   55.9157
 BZINTS: Fermi energy:    5.717382;  176.000000 electrons
         Band energy:-0.124970E+04;  BLOECHL correction:    0.000000
       DOS:  cpu time    0.0143: real time    0.0143
    CHARGE:  cpu time    3.4210: real time    3.4213
    MIXING:  cpu time    0.0194: real time    0.0194
    --------------------------------------------
      LOOP:  cpu time   61.0426: real time   61.0469

 eigenvalue-minimisations  :  5824
 total energy-change (2. order) :-0.1727276E-04  (-0.1697252E-05)
 number of electron     176.0000051 magnetization      -0.0009257
 augmentation part       -3.2061503 magnetization      -0.0009340

 Broyden mixing:
  rms(total) = 0.55772E-03    rms(broyden)= 0.55737E-03
  rms(prec ) = 0.67911E-03
  weight for this iteration     100.00

 eigenvalues of (default mixing * dielectric matrix)
  average eigenvalue GAMMA=   1.3564
  3.1562  2.3710  2.3710  1.1771  1.1771  1.1849  0.8413  0.7290  0.6635  0.6244
  0.6244

 Free energy of the ion-electron system (eV)
  ---------------------------------------------------
  alpha Z        PSCENC =       150.98616665
  Ewald energy   TEWEN  =     -5434.11242261
  -Hartree energ DENC   =     -1306.42502071
  -exchange      EXHF   =         0.00000000
  -V(xc)+E(xc)   XCENC  =       251.53857272
  PAW double counting   =     17408.86213293   -17372.30549521
  entropy T*S    EENTRO =         0.00000000
  eigenvalues    EBANDS =     -1249.69931989
  atomic energy  EATOM  =      7362.44866298
  Solvation  Ediel_sol  =         0.00000000
  ---------------------------------------------------
  free energy    TOTEN  =      -188.70672314 eV

  energy without entropy =     -188.70672314  energy(sigma->0) =     -188.70672314


--------------------------------------------------------------------------------------------------------




--------------------------------------- Iteration      1(  17)  ---------------------------------------


    POTLOK:  cpu time    0.6862: real time    0.6862
    SETDIJ:  cpu time    0.6860: real time    0.6860
     EDDAV:  cpu time   45.0461: real time   45.0500
 BZINTS: Fermi energy:    5.717846;  176.000000 electrons
         Band energy:-0.124969E+04;  BLOECHL correction:    0.000000
       DOS:  cpu time    0.0141: real time    0.0141
    --------------------------------------------
      LOOP:  cpu time   46.4323: real time   46.4363

 eigenvalue-minimisations  :  4864
 total energy-change (2. order) :-0.4592518E-05  (-0.5245008E-06)
 number of electron     176.0000051 magnetization      -0.0009257
 augmentation part       -3.2061503 magnetization      -0.0009340

 Free energy of the ion-electron system (eV)
  ---------------------------------------------------
  alpha Z        PSCENC =       150.98616665
  Ewald energy   TEWEN  =     -5434.11242261
  -Hartree energ DENC   =     -1306.43481497
  -exchange      EXHF   =         0.00000000
  -V(xc)+E(xc)   XCENC  =       251.53848800
  PAW double counting   =     17408.38746966   -17371.83012582
  entropy T*S    EENTRO =         0.00000000
  eigenvalues    EBANDS =     -1249.69015162
  atomic energy  EATOM  =      7362.44866298
  Solvation  Ediel_sol  =         0.00000000
  ---------------------------------------------------
  free energy    TOTEN  =      -188.70672774 eV

  energy without entropy =     -188.70672774  energy(sigma->0) =     -188.70672774


--------------------------------------------------------------------------------------------------------




 average (electrostatic) potential at core
  the test charge radii are     0.7079  0.9587
  (the norm of the test charge is              1.0000)
       1 -60.7684       2 -60.7684       3 -60.7684       4 -60.7684       5 -60.7717
       6 -60.7717       7 -60.7717       8 -60.7717       9 -61.1066      10 -61.1066
      11 -61.1066      12 -61.1066      13 -84.7872      14 -84.7872      15 -84.7872
      16 -84.7872      17 -84.8026      18 -84.8026      19 -84.8026      20 -84.8026
      21 -84.7566      22 -84.7566      23 -84.7566      24 -84.7566      25 -84.8238
      26 -84.8238      27 -84.8238      28 -84.8238      29 -84.0887      30 -84.0887
      31 -84.0887      32 -84.0887      33 -83.9874      34 -83.9874      35 -83.9874
      36 -83.9874      37 -84.0437      38 -84.0437      39 -84.0437      40 -84.0437
 
 
 
 E-fermi :   5.7178     XC(G=0):  -8.8390     alpha+bet :-10.4717


 spin component 1

 k-point     1 :       0.0000    0.0000    0.0000
  band No.  band energies     occupation 
      1     -42.0231      1.00000
      2     -42.0231      1.00000
      3     -42.0231      1.00000
      4     -42.0231      1.00000
      5     -41.6880      1.00000
      6     -41.6880      1.00000
      7     -41.6879      1.00000
      8     -41.6879      1.00000
      9     -41.6823      1.00000
     10     -41.6823      1.00000
     11     -41.6822      1.00000
     12     -41.6821      1.00000
     13     -10.8226      1.00000
     14     -10.6864      1.00000
     15     -10.6642      1.00000
     16     -10.6200      1.00000
     17      -8.4509      1.00000
     18      -8.4469      1.00000
     19      -8.3819      1.00000
     20      -8.2726      1.00000
     21      -7.6444      1.00000
     22      -7.5496      1.00000
     23      -7.4773      1.00000
     24      -7.4577      1.00000
     25      -7.4409      1.00000
     26      -7.4064      1.00000
     27      -7.3470      1.00000
     28      -7.2521      1.00000
     29      -4.2933      1.00000
     30      -4.1853      1.00000
     31      -4.0497      1.00000
     32      -3.9916      1.00000
     33      -3.9641      1.00000
     34      -3.9412      1.00000
     35      -3.8093      1.00000
     36      -3.7861      1.00000
     37      -3.7760      1.00000
     38      -3.7330      1.00000
     39      -3.6352      1.00000
     40      -3.4292      1.00000
     41      -1.8267      1.00000
     42      -1.1471      1.00000
     43      -1.1426      1.00000
     44      -0.9972      1.00000
     45      -0.9683      1.00000
     46      -0.6400      1.00000
     47      -0.5614      1.00000
     48      -0.4600      1.00000
     49      -0.4399      1.00000
     50      -0.4242      1.00000
     51      -0.3780      1.00000
     52      -0.2093      1.00000
     53      -0.0284      1.00000
     54       0.2328      1.00000
     55       0.2627      1.00000
     56       0.3562      1.00000
     57       0.7686      1.00000
     58       0.8542      1.00000
     59       0.8560      1.00000
     60       1.1297      1.00000
     61       1.2046      1.00000
     62       1.2319      1.00000
     63       1.3222      1.00000
     64       1.3863      1.00000
     65       1.3953      1.00000
     66       1.5423      1.00000
     67       1.5582      1.00000
     68       1.6068      1.00000
     69       1.7839      1.00000
     70       1.8056      1.00000
     71       1.9140      1.00000
     72       1.9438      1.00000
     73       2.0955      1.00000
     74       2.1777      1.00000
     75       2.2224      1.00000
     76       2.3842      1.00000
     77       2.4273      1.00000
     78       2.6151      1.00000
     79       2.6711      1.00000
     80       2.7155      1.00000
     81       2.8709      1.00000
     82       3.1096      1.00000
     83       3.2643      1.00000
     84       3.3241      1.00000
     85       3.3759      1.00000
     86       3.4406      1.00000
     87       3.5644      1.00000
     88       3.8562      1.00000
     89       5.8889      0.00000
     90       5.9289      0.00000
     91       5.9646      0.00000
     92       6.0469      0.00000
     93       6.1079      0.00000
     94       6.1359      0.00000
     95       6.3527      0.00000
     96       6.3593      0.00000
     97       6.3985      0.00000
     98       6.4851      0.00000
     99       6.5815      0.00000
    100       6.6398      0.00000
    101       6.6813      0.00000
    102       6.8672      0.00000
    103       6.9482      0.00000
    104       7.0804      0.00000
    105       7.0863      0.00000
    106       7.1076      0.00000
    107       7.3383      0.00000
    108       7.4191      0.00000
    109       7.4812      0.00000
    110       7.5930      0.00000
    111       7.6340      0.00000
    112       7.6368      0.00000
    113       7.7244      0.00000
    114       7.8731      0.00000
    115       7.9349      0.00000
    116       8.0340      0.00000
    117       8.1488      0.00000
    118       8.1626      0.00000
    119       8.1972      0.00000
    120       8.3046      0.00000
    121       8.4083      0.00000
    122       8.4289      0.00000
    123       8.6704      0.00000
    124       8.7771      0.00000
    125       8.7973      0.00000
    126       8.8588      0.00000
    127       9.0287      0.00000
    128       9.0722      0.00000

 k-point     2 :       0.2500    0.0000    0.0000
  band No.  band energies     occupation 
      1     -42.0232      1.00000
      2     -42.0231      1.00000
      3     -42.0231      1.00000
      4     -42.0231      1.00000
      5     -41.6880      1.00000
      6     -41.6880      1.00000
      7     -41.6879      1.00000
      8     -41.6879      1.00000
      9     -41.6823      1.00000
     10     -41.6823      1.00000
     11     -41.6822      1.00000
     12     -41.6822      1.00000
     13     -10.7946      1.00000
     14     -10.6773      1.00000
     15     -10.6758      1.00000
     16     -10.6365      1.00000
     17      -8.4525      1.00000
     18      -8.4502      1.00000
     19      -8.3679      1.00000
     20      -8.2919      1.00000
     21      -7.6039      1.00000
     22      -7.5386      1.00000
     23      -7.4995      1.00000
     24      -7.4666      1.00000
     25      -7.4603      1.00000
     26      -7.4292      1.00000
     27      -7.3582      1.00000
     28      -7.3044      1.00000
     29      -4.2398      1.00000
     30      -4.0822      1.00000
     31      -4.0219      1.00000
     32      -4.0180      1.00000
     33      -3.8872      1.00000
     34      -3.8594      1.00000
     35      -3.8239      1.00000
     36      -3.7997      1.00000
     37      -3.7713      1.00000
     38      -3.7010      1.00000
     39      -3.6905      1.00000
     40      -3.4978      1.00000
     41      -1.6467      1.00000
     42      -1.1547      1.00000
     43      -1.0813      1.00000
     44      -0.9589      1.00000
     45      -0.7787      1.00000
     46      -0.6738      1.00000
     47      -0.6356      1.00000
     48      -0.5807      1.00000
     49      -0.5158      1.00000
     50      -0.4842      1.00000
     51      -0.4423      1.00000
     52      -0.2931      1.00000
     53      -0.0480      1.00000
     54       0.0773      1.00000
     55       0.1998      1.00000
     56       0.3092      1.00000
     57       0.8424      1.00000
     58       0.8709      1.00000
     59       1.0579      1.00000
     60       1.1150      1.00000
     61       1.2067      1.00000
     62       1.2132      1.00000
     63       1.2724      1.00000
     64       1.4539      1.00000
     65       1.4779      1.00000
     66       1.5636      1.00000
     67       1.5695      1.00000
     68       1.6439      1.00000
     69       1.7117      1.00000
     70       1.7873      1.00000
     71       1.8865      1.00000
     72       2.0082      1.00000
     73       2.0797      1.00000
     74       2.1261      1.00000
     75       2.1658      1.00000
     76       2.4528      1.00000
     77       2.4789      1.00000
     78       2.5413      1.00000
[...]
   27        1.067   1.425   0.000   2.492
   28        1.067   1.425   0.000   2.492
   29        1.048   1.500   0.000   2.548
   30        1.048   1.500   0.000   2.548
   31        1.048   1.500   0.000   2.548
   32        1.048   1.500   0.000   2.548
   33        1.053   1.490   0.000   2.542
   34        1.053   1.490   0.000   2.542
   35        1.053   1.490   0.000   2.542
   36        1.053   1.490   0.000   2.542
   37        1.058   1.483   0.000   2.540
   38        1.058   1.483   0.000   2.540
   39        1.058   1.483   0.000   2.540
   40        1.058   1.483   0.000   2.540
--------------------------------------------------
tot         53.756  41.477   0.000  95.232
 


 magnetization (x)
 
# of ion       s       p       d       tot
------------------------------------------
    1        0.000   0.000   0.000   0.000
    2        0.000   0.000   0.000   0.000
    3        0.000   0.000   0.000   0.000
    4        0.000   0.000   0.000   0.000
    5        0.000   0.000   0.000   0.000
    6        0.000   0.000   0.000   0.000
    7        0.000   0.000   0.000   0.000
    8        0.000   0.000   0.000   0.000
    9        0.000   0.000   0.000   0.000
   10        0.000   0.000   0.000   0.000
   11        0.000   0.000   0.000   0.000
   12        0.000   0.000   0.000   0.000
   13        0.000   0.000   0.000   0.000
   14        0.000   0.000   0.000   0.000
   15        0.000   0.000   0.000   0.000
   16        0.000   0.000   0.000   0.000
   17        0.000   0.000   0.000   0.000
   18        0.000   0.000   0.000   0.000
   19        0.000   0.000   0.000   0.000
   20        0.000   0.000   0.000   0.000
   21        0.000   0.000   0.000   0.000
   22        0.000   0.000   0.000   0.000
   23        0.000   0.000   0.000   0.000
   24        0.000   0.000   0.000   0.000
   25        0.000   0.000   0.000   0.000
   26        0.000   0.000   0.000   0.000
   27        0.000   0.000   0.000   0.000
   28        0.000   0.000   0.000   0.000
   29        0.000  -0.000   0.000  -0.000
   30        0.000  -0.000   0.000  -0.000
   31        0.000  -0.000   0.000  -0.000
   32        0.000  -0.000   0.000  -0.000
   33        0.000   0.000   0.000   0.000
   34        0.000   0.000   0.000   0.000
   35        0.000   0.000   0.000   0.000
   36        0.000   0.000   0.000   0.000
   37        0.000   0.000   0.000   0.000
   38        0.000   0.000   0.000   0.000
   39        0.000   0.000   0.000   0.000
   40        0.000   0.000   0.000   0.000
--------------------------------------------------
tot          0.000   0.000   0.000   0.000
 
    CHARGE:  cpu time    3.5192: real time    3.5195
    FORLOC:  cpu time    0.0504: real time    0.0504
    FORNL :  cpu time   14.3524: real time   14.3536
    STRESS:  cpu time   41.9599: real time   41.9635
    FORCOR:  cpu time    0.6273: real time    0.6274
    FORHAR:  cpu time    0.1089: real time    0.1089
    MIXING:  cpu time    0.0174: real time    0.0174
    OFIELD:  cpu time    0.0000: real time    0.0000

  FORCE on cell =-STRESS in cart. coord.  units (eV):
  Direction    XX          YY          ZZ          XY          YZ          ZX
  --------------------------------------------------------------------------------------
  Alpha Z   150.98617   150.98617   150.98617
  Ewald   -1823.54442 -1786.89777 -1823.69683     0.00000     0.00000    -0.00000
  Hartree   421.29527   455.82908   429.30704     0.00000    -0.00000    -0.00000
  E(xc)    -637.82648  -637.88672  -637.76233    -0.00000    -0.00000     0.00000
  Local   -1294.90862 -1372.22206 -1307.07176    -0.00000    -0.00000     0.00000
  n-local  1400.03062  1401.34697  1398.62946     0.02682    -0.05041    -0.04008
  augment   -77.64294   -78.19969   -77.87338    -0.00000    -0.00000    -0.00000
  Kinetic  1874.44274  1879.81999  1880.10934     0.29416    -0.03174     0.40279
  Fock        0.00000     0.00000     0.00000     0.00000     0.00000     0.00000
  -------------------------------------------------------------------------------------
  Total      12.83234    12.77596    12.62772     0.00000     0.00000     0.00000
  in kB      26.98806    26.86948    26.55770     0.00000     0.00000     0.00000
  external pressure =       26.81 kB  Pullay stress =        0.00 kB


 VOLUME and BASIS-vectors are now :
 -----------------------------------------------------------------------------
  energy-cutoff  :      520.00
  volume of cell :      761.81
      direct lattice vectors                 reciprocal lattice vectors
     7.519189000  0.000000000  0.000000000     0.132993066  0.000000000  0.000000000
     0.000000000  9.716252000  0.000000000     0.000000000  0.102920344  0.000000000
     0.000000000  0.000000000 10.427379000     0.000000000  0.000000000  0.095901377

  length of vectors
     7.519189000  9.716252000 10.427379000     0.132993066  0.102920344  0.095901377


 FORCES acting on ions
    electron-ion (+dipol)            ewald-force                    non-local-force                 convergence-correction
 -----------------------------------------------------------------------------------------------
   0.993E+01 0.236E+01 0.478E+01   -.105E+02 -.297E+01 -.460E+01   0.536E+00 0.636E+00 -.183E+00   -.240E-03 -.152E-03 -.614E-04
   0.993E+01 -.236E+01 -.478E+01   -.105E+02 0.297E+01 0.460E+01   0.536E+00 -.636E+00 0.183E+00   -.240E-03 0.152E-03 0.614E-04
   -.993E+01 0.236E+01 -.478E+01   0.105E+02 -.297E+01 0.460E+01   -.536E+00 0.636E+00 0.183E+00   0.240E-03 -.152E-03 0.614E-04
   -.993E+01 -.236E+01 0.478E+01   0.105E+02 0.297E+01 -.460E+01   -.536E+00 -.636E+00 -.183E+00   0.240E-03 0.152E-03 -.614E-04
   -.349E+01 0.881E+01 0.519E+01   0.260E+01 -.862E+01 -.473E+01   0.914E+00 -.201E+00 -.476E+00   -.207E-04 0.129E-04 -.128E-03
   -.349E+01 -.881E+01 -.519E+01   0.260E+01 0.862E+01 0.473E+01   0.914E+00 0.201E+00 0.476E+00   -.207E-04 -.129E-04 0.128E-03
   0.349E+01 0.881E+01 -.519E+01   -.260E+01 -.862E+01 0.473E+01   -.914E+00 -.201E+00 0.476E+00   0.207E-04 0.129E-04 0.128E-03
   0.349E+01 -.881E+01 0.519E+01   -.260E+01 0.862E+01 -.473E+01   -.914E+00 0.201E+00 -.476E+00   0.207E-04 -.129E-04 -.128E-03
   -.105E+02 0.448E+00 -.309E+01   0.995E+01 -.670E+00 0.264E+01   0.599E+00 0.232E+00 0.460E+00   0.258E-03 -.279E-03 0.121E-03
   -.105E+02 -.448E+00 0.309E+01   0.995E+01 0.670E+00 -.264E+01   0.599E+00 -.232E+00 -.460E+00   0.258E-03 0.279E-03 -.121E-03
   0.105E+02 0.448E+00 0.309E+01   -.995E+01 -.670E+00 -.264E+01   -.599E+00 0.232E+00 -.460E+00   -.258E-03 -.279E-03 -.121E-03
   0.105E+02 -.448E+00 -.309E+01   -.995E+01 0.670E+00 0.264E+01   -.599E+00 -.232E+00 0.460E+00   -.258E-03 0.279E-03 0.121E-03
   0.578E+02 0.387E+02 0.486E+02   -.611E+02 -.417E+02 -.514E+02   0.298E+01 0.282E+01 0.254E+01   -.260E-03 -.604E-04 -.845E-04
   0.578E+02 -.387E+02 -.486E+02   -.611E+02 0.417E+02 0.514E+02   0.298E+01 -.282E+01 -.254E+01   -.260E-03 0.604E-04 0.845E-04
   -.578E+02 0.387E+02 -.486E+02   0.611E+02 -.417E+02 0.514E+02   -.298E+01 0.282E+01 -.254E+01   0.260E-03 -.604E-04 0.845E-04
   -.578E+02 -.387E+02 0.486E+02   0.611E+02 0.417E+02 -.514E+02   -.298E+01 -.282E+01 0.254E+01   0.260E-03 0.604E-04 -.845E-04
   -.788E+02 -.398E+02 0.140E+02   0.829E+02 0.414E+02 -.152E+02   -.368E+01 -.142E+01 0.120E+01   0.184E-03 -.154E-03 0.620E-04
   -.788E+02 0.398E+02 -.140E+02   0.829E+02 -.414E+02 0.152E+02   -.368E+01 0.142E+01 -.120E+01   0.184E-03 0.154E-03 -.620E-04
   0.788E+02 -.398E+02 -.140E+02   -.829E+02 0.414E+02 0.152E+02   0.368E+01 -.142E+01 -.120E+01   -.184E-03 -.154E-03 -.620E-04
   0.788E+02 0.398E+02 0.140E+02   -.829E+02 -.414E+02 -.152E+02   0.368E+01 0.142E+01 0.120E+01   -.184E-03 0.154E-03 0.620E-04
   -.412E+02 0.203E+01 -.882E+02   0.430E+02 -.300E+01 0.925E+02   -.150E+01 0.949E+00 -.386E+01   -.790E-04 0.182E-03 0.893E-05
   -.412E+02 -.203E+01 0.882E+02   0.430E+02 0.300E+01 -.925E+02   -.150E+01 -.949E+00 0.386E+01   -.790E-04 -.182E-03 -.893E-05
   0.412E+02 0.203E+01 0.882E+02   -.430E+02 -.300E+01 -.925E+02   0.150E+01 0.949E+00 0.386E+01   0.790E-04 0.182E-03 -.893E-05
   0.412E+02 -.203E+01 -.882E+02   -.430E+02 0.300E+01 0.925E+02   0.150E+01 -.949E+00 -.386E+01   0.790E-04 -.182E-03 0.893E-05
   0.836E+01 -.844E+02 -.418E+02   -.864E+01 0.889E+02 0.449E+02   0.262E+00 -.405E+01 -.284E+01   0.165E-03 -.790E-04 0.235E-03
   0.836E+01 0.844E+02 0.418E+02   -.864E+01 -.889E+02 -.449E+02   0.262E+00 0.405E+01 0.284E+01   0.165E-03 0.790E-04 -.235E-03
   -.836E+01 -.844E+02 0.418E+02   0.864E+01 0.889E+02 -.449E+02   -.262E+00 -.405E+01 0.284E+01   -.165E-03 -.790E-04 -.235E-03
   -.836E+01 0.844E+02 -.418E+02   0.864E+01 -.889E+02 0.449E+02   -.262E+00 0.405E+01 -.284E+01   -.165E-03 0.790E-04 0.235E-03
   -.691E+02 0.457E+02 0.113E+02   0.721E+02 -.467E+02 -.123E+02   -.257E+01 0.749E+00 0.983E+00   0.232E-03 -.941E-04 -.198E-03
   -.691E+02 -.457E+02 -.113E+02   0.721E+02 0.467E+02 0.123E+02   -.257E+01 -.749E+00 -.983E+00   0.232E-03 0.941E-04 0.198E-03
   0.691E+02 0.457E+02 -.113E+02   -.721E+02 -.467E+02 0.123E+02   0.257E+01 0.749E+00 -.983E+00   -.232E-03 -.941E-04 0.198E-03
   0.691E+02 -.457E+02 0.113E+02   -.721E+02 0.467E+02 -.123E+02   0.257E+01 -.749E+00 0.983E+00   -.232E-03 0.941E-04 -.198E-03
   -.125E+02 -.634E+02 -.362E+02   0.134E+02 0.661E+02 0.379E+02   -.837E+00 -.225E+01 -.153E+01   -.819E-04 0.917E-05 0.223E-03
   -.125E+02 0.634E+02 0.362E+02   0.134E+02 -.661E+02 -.379E+02   -.837E+00 0.225E+01 0.153E+01   -.819E-04 -.917E-05 -.223E-03
   0.125E+02 -.634E+02 0.362E+02   -.134E+02 0.661E+02 -.379E+02   0.837E+00 -.225E+01 0.153E+01   0.819E-04 0.917E-05 -.223E-03
   0.125E+02 0.634E+02 -.362E+02   -.134E+02 -.661E+02 0.379E+02   0.837E+00 0.225E+01 -.153E+01   0.819E-04 -.917E-05 0.223E-03
   0.423E+02 -.201E+02 0.741E+02   -.439E+02 0.214E+02 -.771E+02   0.137E+01 -.114E+01 0.257E+01   -.209E-03 -.749E-04 0.114E-03
   0.423E+02 0.201E+02 -.741E+02   -.439E+02 -.214E+02 0.771E+02   0.137E+01 0.114E+01 -.257E+01   -.209E-03 0.749E-04 -.114E-03
   -.423E+02 -.201E+02 -.741E+02   0.439E+02 0.214E+02 0.771E+02   -.137E+01 -.114E+01 -.257E+01   0.209E-03 -.749E-04 -.114E-03
   -.423E+02 0.201E+02 0.741E+02   0.439E+02 -.214E+02 -.771E+02   -.137E+01 0.114E+01 0.257E+01   0.209E-03 0.749E-04 0.114E-03
 -----------------------------------------------------------------------------------------------
   0.119E-05 0.480E-06 -.830E-08   0.142E-13 -.142E-13 0.142E-13   0.133E-14 -.133E-14 0.444E-15   -.523E-13 0.410E-13 -.529E-13
 
 
 POSITION                                       TOTAL-FORCE (eV/Angst)
 -----------------------------------------------------------------------------------
      6.39270      2.98660      8.51095         0.007721      0.019016     -0.004045
      2.63311      1.87153      1.91643         0.007721     -0.019016      0.004045
      1.12649      7.84473      7.13012        -0.007721      0.019016      0.004045
      4.88608      6.72965      3.29726        -0.007721     -0.019016     -0.004045
      4.27615      0.25534      0.15682         0.022718     -0.014025     -0.023321
      0.51655      4.60278     10.27056         0.022718      0.014025      0.023321
      3.24304      5.11347      5.05687        -0.022718     -0.014025      0.023321
      7.00264      9.46091      5.37051        -0.022718      0.014025     -0.023321
      3.02210      2.92579      7.20557         0.016129      0.010028      0.003620
      6.78169      1.93234      3.22181         0.016129     -0.010028     -0.003620
      4.49709      7.78391      8.43550        -0.016129      0.010028     -0.003620
      0.73750      6.79047      1.99188        -0.016129     -0.010028      0.003620
      2.10964      8.50233      3.32040        -0.281549     -0.230692     -0.248212
      5.86923      6.07205      7.10698        -0.281549      0.230692      0.248212
      5.40955      3.64421      1.89329         0.281549     -0.230692      0.248212
      1.64996      1.21392      8.53409         0.281549      0.230692     -0.248212
      4.79375      0.46633      4.04280         0.410949      0.216620     -0.024602
      1.03415      4.39179      6.38458         0.410949     -0.216620      0.024602
      2.72544      5.32446      1.17089        -0.410949      0.216620      0.024602
      6.48504      9.24992      9.25649        -0.410949     -0.216620     -0.024602
      4.01175      9.15923      5.89816         0.267052     -0.023623      0.442527
      0.25216      5.41515      4.52922         0.267052      0.023623     -0.442527
      3.50744      4.30110      9.74290        -0.267052     -0.023623     -0.442527
      7.26703      0.55702      0.68447        -0.267052      0.023623      0.442527
      3.04997      1.30064      5.16009        -0.022065      0.423306      0.242001
      6.80957      3.55749      5.26729        -0.022065     -0.423306     -0.242001
      4.46922      6.15876      0.05360         0.022065      0.423306     -0.242001
      0.70962      8.41562     10.37378         0.022065     -0.423306      0.242001
      2.38148      9.01237      9.18834         0.391229     -0.200781     -0.091225
      6.14107      5.56201      1.23904         0.391229      0.200781      0.091225
      5.13771      4.15424      6.45273        -0.391229     -0.200781      0.091225
      1.37812      0.70388      3.97465        -0.391229      0.200781     -0.091225
      0.97032      2.12511     10.37091         0.109121      0.431155      0.149324
      4.72992      2.73302      0.05646         0.109121     -0.431155     -0.149324
      6.54887      6.98324      5.27015        -0.109121      0.431155     -0.149324
      2.78927      7.59114      5.15723        -0.109121     -0.431155      0.149324
      7.26543      0.68969      7.65253        -0.162560      0.124484     -0.444034
      3.50584      4.16844      2.77485        -0.162560     -0.124484      0.444034
      0.25376      5.54781      7.98854         0.162560      0.124484      0.444034
      4.01335      9.02656      2.43884         0.162560     -0.124484     -0.444034
 -----------------------------------------------------------------------------------
    total drift:                                0.000001      0.000000     -0.000000


--------------------------------------------------------------------------------------------------------



  FREE ENERGIE OF THE ION-ELECTRON SYSTEM (eV)
  ---------------------------------------------------
  free  energy   TOTEN  =      -188.70672774 eV

  energy  without entropy=     -188.70672774  energy(sigma->0) =     -188.70672774
 


--------------------------------------------------------------------------------------------------------


    POTLOK:  cpu time    1.2495: real time    1.2496


--------------------------------------------------------------------------------------------------------


     LOOP+:  cpu time 1233.9124: real time 1234.3290
    4ORBIT:  cpu time    0.0000: real time    0.0000
 


 total charge     
 
# of ion       s       p       d       tot
------------------------------------------
    1        2.015   0.045   0.000   2.060
    2        2.015   0.045   0.000   2.060
    3        2.015   0.045   0.000   2.060
    4        2.015   0.045   0.000   2.060
    5        2.020   0.054   0.000   2.074
    6        2.020   0.054   0.000   2.074
    7        2.020   0.054   0.000   2.074
    8        2.020   0.054   0.000   2.074
    9        2.015   0.048   0.000   2.063
   10        2.015   0.048   0.000   2.063
   11        2.015   0.048   0.000   2.063
   12        2.015   0.048   0.000   2.063
   13        1.039   1.457   0.000   2.496
   14        1.039   1.457   0.000   2.496
   15        1.039   1.457   0.000   2.496
   16        1.039   1.457   0.000   2.496
   17        1.054   1.451   0.000   2.505
   18        1.054   1.451   0.000   2.505
   19        1.054   1.451   0.000   2.505
   20        1.054   1.451   0.000   2.505
   21        1.071   1.417   0.000   2.488
   22        1.071   1.417   0.000   2.488
   23        1.071   1.417   0.000   2.488
   24        1.071   1.417   0.000   2.488
   25        1.067   1.425   0.000   2.492
   26        1.067   1.425   0.000   2.492
   27        1.067   1.425   0.000   2.492
   28        1.067   1.425   0.000   2.492
   29        1.048   1.500   0.000   2.548
   30        1.048   1.500   0.000   2.548
   31        1.048   1.500   0.000   2.548
   32        1.048   1.500   0.000   2.548
   33        1.053   1.490   0.000   2.542
   34        1.053   1.490   0.000   2.542
   35        1.053   1.490   0.000   2.542
   36        1.053   1.490   0.000   2.542
   37        1.058   1.483   0.000   2.540
   38        1.058   1.483   0.000   2.540
   39        1.058   1.483   0.000   2.540
   40        1.058   1.483   0.000   2.540
--------------------------------------------------
tot         53.756  41.477   0.000  95.232
 


 magnetization (x)
 
# of ion       s       p       d       tot
------------------------------------------
    1        0.000   0.000   0.000   0.000
    2        0.000   0.000   0.000   0.000
    3        0.000   0.000   0.000   0.000
    4        0.000   0.000   0.000   0.000
    5        0.000   0.000   0.000   0.000
    6        0.000   0.000   0.000   0.000
    7        0.000   0.000   0.000   0.000
    8        0.000   0.000   0.000   0.000
    9        0.000   0.000   0.000   0.000
   10        0.000   0.000   0.000   0.000
   11        0.000   0.000   0.000   0.000
   12        0.000   0.000   0.000   0.000
   13        0.000   0.000   0.000   0.000
   14        0.000   0.000   0.000   0.000
   15        0.000   0.000   0.000   0.000
   16        0.000   0.000   0.000   0.000
   17        0.000   0.000   0.000   0.000
   18        0.000   0.000   0.000   0.000
   19        0.000   0.000   0.000   0.000
   20        0.000   0.000   0.000   0.000
   21        0.000   0.000   0.000   0.000
   22        0.000   0.000   0.000   0.000
   23        0.000   0.000   0.000   0.000
   24        0.000   0.000   0.000   0.000
   25        0.000   0.000   0.000   0.000
   26        0.000   0.000   0.000   0.000
   27        0.000   0.000   0.000   0.000
   28        0.000   0.000   0.000   0.000
   29        0.000  -0.000   0.000  -0.000
   30        0.000  -0.000   0.000  -0.000
   31        0.000  -0.000   0.000  -0.000
   32        0.000  -0.000   0.000  -0.000
   33        0.000   0.000   0.000   0.000
   34        0.000   0.000   0.000   0.000
   35        0.000   0.000   0.000   0.000
   36        0.000   0.000   0.000   0.000
   37        0.000   0.000   0.000   0.000
   38        0.000   0.000   0.000   0.000
   39        0.000   0.000   0.000   0.000
   40        0.000   0.000   0.000   0.000
--------------------------------------------------
tot          0.000   0.000   0.000   0.000
 
 BZINTS: Fermi energy:    5.717846;  176.000000 electrons
         Band energy:-0.124969E+04;  BLOECHL correction:    0.000000

 total amount of memory used by VASP MPI-rank0   231800. kBytes
=======================================================================

   base      :      30000. kBytes
   nonlr-proj:       9303. kBytes
   fftplans  :      12265. kBytes
   grid      :      51996. kBytes
   one-center:        245. kBytes
   wavefun   :     127991. kBytes
 
  
  
 General timing and accounting informations for this job:
 ========================================================
  
                  Total CPU time used (sec):     1244.101
                            User time (sec):     1241.594
                          System time (sec):        2.507
                         Elapsed time (sec):     1244.767
  
                   Maximum memory used (kb):      383260.
                   Average memory used (kb):           0.
  
                          Minor page faults:       936592
                          Major page faults:            0
                 Voluntary context switches:           62
