       N       E                     dE             d eps       ncg     rms          rms(c)
DAV:   1     0.862771486655E+02    0.86277E+02   -0.85496E+03 25952   0.119E+03
DAV:   2    -0.232109981571E+02   -0.10949E+03   -0.10597E+03 33782   0.274E+02
DAV:   3    -0.285194116850E+02   -0.53084E+01   -0.52878E+01 36546   0.652E+01
DAV:   4    -0.287306249437E+02   -0.21121E+00   -0.21112E+00 38980   0.110E+01
DAV:   5    -0.287334842516E+02   -0.28593E-02   -0.28591E-02 36230   0.132E+00    0.130E+01
RMM:   6    -0.274766739482E+02    0.12568E+01   -0.40224E+00 28243   0.140E+01    0.597E+00
RMM:   7    -0.274115680863E+02    0.65106E-01   -0.67280E-01 33509   0.776E+00    0.342E+00
RMM:   8    -0.273874945285E+02    0.24074E-01   -0.29211E-01 37097   0.434E+00    0.169E+00
RMM:   9    -0.274008783621E+02   -0.13384E-01   -0.75090E-02 40121   0.239E+00    0.650E-01
RMM:  10    -0.274018072787E+02   -0.92892E-03   -0.25579E-02 42379   0.125E+00    0.161E-01
RMM:  11    -0.274033429832E+02   -0.15357E-02   -0.10859E-02 44461   0.725E-01    0.911E-02
RMM:  12    -0.274040683049E+02   -0.72532E-03   -0.51117E-03 47696   0.456E-01    0.583E-02
RMM:  13    -0.274043265645E+02   -0.25826E-03   -0.21178E-03 47377   0.286E-01    0.244E-02
RMM:  14    -0.274044442656E+02   -0.11770E-03   -0.95218E-04 45972   0.200E-01    0.157E-02
RMM:  15    -0.274044967872E+02   -0.52522E-04   -0.43821E-04 43191   0.130E-01    0.954E-03
RMM:  16    -0.274045186025E+02   -0.21815E-04   -0.19198E-04 39432   0.879E-02    0.257E-03
RMM:  17    -0.274045287003E+02   -0.10098E-04   -0.83885E-05 34166   0.648E-02    0.198E-03
RMM:  18    -0.274045321819E+02   -0.34817E-05   -0.35089E-05 29725   0.523E-02
   1 F= -.27404532E+02 E0= -.27404532E+02  d E =0.000000E+00  mag=     0.0000
