   26   26    1    2
  0.1146602E+02  0.5260542E-09  0.7365629E-09  0.8662857E-09  0.5000000E-15
  1.000000000000000E-004
  CAR 
 unknown system                          
    128     71     86
 
  0.0000000E+00  0.0000000E+00  0.0000000E+00  0.7142857E-02
    1      -42.037107    -42.037182   1.000000   1.000000
    2      -42.036603    -42.036677   1.000000   1.000000
    3      -41.898957    -41.899030   1.000000   1.000000
    4      -41.898842    -41.898915   1.000000   1.000000
    5      -41.809278    -41.809355   1.000000   1.000000
    6      -41.809167    -41.809244   1.000000   1.000000
    7      -41.722633    -41.722723   1.000000   1.000000
    8      -41.705493    -41.705583   1.000000   1.000000
    9      -20.104809    -20.104801   1.000000   1.000000
   10      -20.048314    -20.048307   1.000000   1.000000
   11      -18.868572    -18.868567   1.000000   1.000000
   12      -18.837251    -18.837246   1.000000   1.000000
   13      -17.555850    -17.555860   1.000000   1.000000
   14      -17.492300    -17.492310   1.000000   1.000000
   15      -17.022919    -17.022936   1.000000   1.000000
   16      -17.003306    -17.003323   1.000000   1.000000
   17      -16.742817    -16.742834   1.000000   1.000000
   18      -16.719516    -16.719534   1.000000   1.000000
   19      -16.711731    -16.711748   1.000000   1.000000
   20      -16.702289    -16.702307   1.000000   1.000000
   21      -16.616317    -16.616335   1.000000   1.000000
   22      -16.587403    -16.587422   1.000000   1.000000
   23       -8.613218     -8.613199   1.000000   1.000000
   24       -8.598364     -8.598345   1.000000   1.000000
   25       -6.105757     -6.105709   1.000000   1.000000
   26       -5.721223     -5.721186   1.000000   1.000000
   27       -5.126577     -5.126539   1.000000   1.000000
   28       -4.965564     -4.965531   1.000000   1.000000
   29       -4.603375     -4.603341   1.000000   1.000000
   30       -4.417266     -4.417233   1.000000   1.000000
   31       -4.301388     -4.301361   1.000000   1.000000
   32       -4.282094     -4.282068   1.000000   1.000000
   33       -3.876892     -3.876862   1.000000   1.000000
   34       -3.841562     -3.841529   1.000000   1.000000
   35       -3.734718     -3.734690   1.000000   1.000000
   36       -3.584526     -3.584499   1.000000   1.000000
   37       -3.161563     -3.161535   1.000000   1.000000
   38       -2.879841     -2.879817   1.000000   1.000000
   39       -2.496617     -2.496604   1.000000   1.000000
   40       -2.210758     -2.210753   1.000000   1.000000
   41       -2.201853     -2.201852   1.000000   1.000000
   42       -1.903033     -1.903020   1.000000   1.000000
   43       -1.842492     -1.842473   1.000000   1.000000
   44       -1.746028     -1.746021   1.000000   1.000000
   45       -1.554951     -1.554949   1.000000   1.000000
   46       -1.519336     -1.519331   1.000000   1.000000
   47       -1.475330     -1.475330   1.000000   1.000000
   48       -1.244289     -1.244285   1.000000   1.000000
   49       -1.134143     -1.134142   1.000000   1.000000
   50       -1.114341     -1.114342   1.000000   1.000000
   51       -1.028351     -1.028353   1.000000   1.000000
   52       -0.718168     -0.718173   1.000000   1.000000
   53       -0.683020     -0.683024   1.000000   1.000000
   54       -0.512625     -0.512628   1.000000   1.000000
   55       -0.340897     -0.340909   1.000000   1.000000
   56       -0.317840     -0.317853   1.000000   1.000000
   57       -0.161568     -0.161580   1.000000   1.000000
   58       -0.125479     -0.125472   1.000000   1.000000
   59       -0.094466     -0.094469   1.000000   1.000000
   60        0.015825      0.015822   1.000000   1.000000
   61        0.117372      0.117366   1.000000   1.000000
   62        0.193370      0.193354   1.000000   1.000000
   63        0.386406      0.386388   1.000000   1.000000
   64        0.397518      0.397505   1.000000   1.000000
   65        6.024890      6.024943   0.000002   0.000001
   66        8.294803      8.294832   0.000000   0.000000
   67        8.408989      8.409014   0.000000   0.000000
   68        8.541765      8.541827   0.000000   0.000000
   69        8.820705      8.820770   0.000000   0.000000
   70        8.924162      8.924208   0.000000   0.000000
   71        9.038205      9.038266   0.000000   0.000000
   72        9.424968      9.425019   0.000000   0.000000
   73        9.535405      9.535466   0.000000   0.000000
   74        9.704346      9.704391   0.000000   0.000000
   75        9.881746      9.881806   0.000000   0.000000
   76       10.161859     10.161920   0.000000   0.000000
   77       10.264959     10.264992   0.000000   0.000000
   78       10.425285     10.425343   0.000000   0.000000
   79       10.767078     10.767102   0.000000   0.000000
   80       10.795396     10.795479   0.000000   0.000000
   81       10.864867     10.864921   0.000000   0.000000
   82       11.061471     11.061521   0.000000   0.000000
   83       11.154426     11.154501   0.000000   0.000000
   84       11.337014     11.337061   0.000000   0.000000
   85       11.378695     11.378760   0.000000   0.000000
   86       11.765477     11.763999   0.000000   0.000000
 
  0.1428571E+00  0.7187966E-17 -0.5184410E-14  0.1428571E-01
    1      -42.037098    -42.037172   1.000000   1.000000
    2      -42.036595    -42.036670   1.000000   1.000000
    3      -41.898926    -41.898999   1.000000   1.000000
    4      -41.898820    -41.898893   1.000000   1.000000
    5      -41.809293    -41.809369   1.000000   1.000000
    6      -41.809188    -41.809265   1.000000   1.000000
    7      -41.722614    -41.722704   1.000000   1.000000
    8      -41.705511    -41.705601   1.000000   1.000000
    9      -20.099360    -20.099352   1.000000   1.000000
   10      -20.048457    -20.048450   1.000000   1.000000
   11      -18.868191    -18.868186   1.000000   1.000000
   12      -18.840295    -18.840290   1.000000   1.000000
   13      -17.547886    -17.547896   1.000000   1.000000
   14      -17.491176    -17.491186   1.000000   1.000000
   15      -17.022818    -17.022835   1.000000   1.000000
   16      -17.003071    -17.003087   1.000000   1.000000
   17      -16.750665    -16.750681   1.000000   1.000000
   18      -16.732893    -16.732911   1.000000   1.000000
   19      -16.713404    -16.713421   1.000000   1.000000
   20      -16.701001    -16.701018   1.000000   1.000000
   21      -16.616316    -16.616334   1.000000   1.000000
   22      -16.589746    -16.589765   1.000000   1.000000
   23       -8.621130     -8.621111   1.000000   1.000000
   24       -8.602887     -8.602868   1.000000   1.000000
   25       -6.087814     -6.087767   1.000000   1.000000
   26       -5.720612     -5.720574   1.000000   1.000000
   27       -5.111774     -5.111737   1.000000   1.000000
   28       -4.954148     -4.954116   1.000000   1.000000
   29       -4.589313     -4.589278   1.000000   1.000000
   30       -4.408768     -4.408736   1.000000   1.000000
   31       -4.288268     -4.288242   1.000000   1.000000
   32       -4.243621     -4.243595   1.000000   1.000000
   33       -3.852198     -3.852165   1.000000   1.000000
   34       -3.811941     -3.811909   1.000000   1.000000
   35       -3.700992     -3.700963   1.000000   1.000000
   36       -3.565535     -3.565508   1.000000   1.000000
   37       -3.145914     -3.145886   1.000000   1.000000
   38       -2.843893     -2.843870   1.000000   1.000000
   39       -2.464811     -2.464799   1.000000   1.000000
   40       -2.245808     -2.245803   1.000000   1.000000
   41       -2.181871     -2.181868   1.000000   1.000000
   42       -1.976442     -1.976427   1.000000   1.000000
   43       -1.861237     -1.861219   1.000000   1.000000
   44       -1.713487     -1.713479   1.000000   1.000000
   45       -1.629243     -1.629241   1.000000   1.000000
   46       -1.482352     -1.482347   1.000000   1.000000
   47       -1.452102     -1.452101   1.000000   1.000000
   48       -1.261982     -1.261979   1.000000   1.000000
   49       -1.193668     -1.193667   1.000000   1.000000
   50       -1.163164     -1.163164   1.000000   1.000000
   51       -1.097565     -1.097564   1.000000   1.000000
   52       -0.762739     -0.762744   1.000000   1.000000
   53       -0.665534     -0.665537   1.000000   1.000000
   54       -0.532320     -0.532323   1.000000   1.000000
   55       -0.357661     -0.357672   1.000000   1.000000
   56       -0.336901     -0.336913   1.000000   1.000000
   57       -0.202019     -0.202028   1.000000   1.000000
   58       -0.154126     -0.154126   1.000000   1.000000
   59       -0.055940     -0.055945   1.000000   1.000000
   60        0.019803      0.019798   1.000000   1.000000
   61        0.130480      0.130474   1.000000   1.000000
   62        0.196227      0.196211   1.000000   1.000000
   63        0.382997      0.382980   1.000000   1.000000
   64        0.404692      0.404679   1.000000   1.000000
   65        6.224526      6.224577  -0.000000  -0.000000
   66        8.196942      8.196973   0.000000   0.000000
   67        8.430148      8.430181   0.000000   0.000000
   68        8.544151      8.544207   0.000000   0.000000
   69        8.754408      8.754465   0.000000   0.000000
   70        8.887166      8.887222   0.000000   0.000000
   71        9.127503      9.127554   0.000000   0.000000
   72        9.474216      9.474275   0.000000   0.000000
   73        9.545660      9.545706   0.000000   0.000000
   74        9.762695      9.762744   0.000000   0.000000
   75        9.939010      9.939071   0.000000   0.000000
   76       10.046994     10.047049   0.000000   0.000000
   77       10.283584     10.283618   0.000000   0.000000
   78       10.370242     10.370304   0.000000   0.000000
   79       10.554663     10.554705   0.000000   0.000000
   80       10.660781     10.660852   0.000000   0.000000
   81       10.764531     10.764568   0.000000   0.000000
   82       10.859614     10.859678   0.000000   0.000000
   83       10.961066     10.961120   0.000000   0.000000
   84       11.339857     11.339850   0.000000   0.000000
   85       11.538955     11.538518   0.000000   0.000000
   86       11.638550     11.637428   0.000000   0.000000
 
  0.2857143E+00  0.1627303E-16  0.3984328E-14  0.1428571E-01
    1      -42.037068    -42.037142   1.000000   1.000000
    2      -42.036604    -42.036679   1.000000   1.000000
    3      -41.898876    -41.898949   1.000000   1.000000
    4      -41.898768    -41.898840   1.000000   1.000000
    5      -41.809341    -41.809418   1.000000   1.000000
    6      -41.809239    -41.809315   1.000000   1.000000
    7      -41.722582    -41.722672   1.000000   1.000000
    8      -41.705559    -41.705649   1.000000   1.000000
    9      -20.085678    -20.085671   1.000000   1.000000
   10      -20.050161    -20.050154   1.000000   1.000000
   11      -18.867141    -18.867137   1.000000   1.000000
   12      -18.847431    -18.847426   1.000000   1.000000
   13      -17.528422    -17.528432   1.000000   1.000000
   14      -17.490028    -17.490038   1.000000   1.000000
   15      -17.021096    -17.021113   1.000000   1.000000
   16      -17.004006    -17.004023   1.000000   1.000000
   17      -16.773769    -16.773784   1.000000   1.000000
   18      -16.745466    -16.745483   1.000000   1.000000
   19      -16.724366    -16.724383   1.000000   1.000000
   20      -16.703355    -16.703372   1.000000   1.000000
   21      -16.616031    -16.616049   1.000000   1.000000
   22      -16.595265    -16.595284   1.000000   1.000000
   23       -8.636650     -8.636631   1.000000   1.000000
   24       -8.615713     -8.615694   1.000000   1.000000
   25       -6.046895     -6.046851   1.000000   1.000000
   26       -5.718852     -5.718815   1.000000   1.000000
   27       -5.072993     -5.072959   1.000000   1.000000
   28       -4.938240     -4.938209   1.000000   1.000000
   29       -4.554243     -4.554207   1.000000   1.000000
   30       -4.392710     -4.392677   1.000000   1.000000
   31       -4.225670     -4.225644   1.000000   1.000000
   32       -4.175611     -4.175585   1.000000   1.000000
   33       -3.877780     -3.877743   1.000000   1.000000
   34       -3.680061     -3.680030   1.000000   1.000000
   35       -3.605750     -3.605720   1.000000   1.000000
   36       -3.497390     -3.497363   1.000000   1.000000
   37       -3.104580     -3.104551   1.000000   1.000000
   38       -2.771495     -2.771473   1.000000   1.000000
   39       -2.406938     -2.406928   1.000000   1.000000
   40       -2.277797     -2.277789   1.000000   1.000000
   41       -2.169299     -2.169295   1.000000   1.000000
   42       -2.074616     -2.074599   1.000000   1.000000
   43       -1.884340     -1.884326   1.000000   1.000000
   44       -1.747635     -1.747627   1.000000   1.000000
   45       -1.701061     -1.701055   1.000000   1.000000
   46       -1.528450     -1.528445   1.000000   1.000000
   47       -1.487006     -1.487002   1.000000   1.000000
   48       -1.349820     -1.349816   1.000000   1.000000
   49       -1.291529     -1.291524   1.000000   1.000000
   50       -1.240416     -1.240413   1.000000   1.000000
   51       -1.154839     -1.154836   1.000000   1.000000
   52       -0.851916     -0.851920   1.000000   1.000000
   53       -0.657445     -0.657447   1.000000   1.000000
   54       -0.569168     -0.569174   1.000000   1.000000
   55       -0.412544     -0.412556   1.000000   1.000000
   56       -0.371100     -0.371112   1.000000   1.000000
   57       -0.249596     -0.249604   1.000000   1.000000
   58       -0.188963     -0.188966   1.000000   1.000000
   59       -0.034064     -0.034071   1.000000   1.000000
   60        0.016197      0.016190   1.000000   1.000000
   61        0.173456      0.173446   1.000000   1.000000
   62        0.206313      0.206297   1.000000   1.000000
   63        0.381855      0.381838   1.000000   1.000000
   64        0.415006      0.414992   1.000000   1.000000
   65        6.734637      6.734683   0.000000   0.000000
   66        8.113332      8.113370   0.000000   0.000000
   67        8.407574      8.407619   0.000000   0.000000
   68        8.488195      8.488237   0.000000   0.000000
   69        8.790724      8.790777   0.000000   0.000000
   70        8.895512      8.895559   0.000000   0.000000
   71        9.191195      9.191238   0.000000   0.000000
   72        9.381267      9.381321   0.000000   0.000000
   73        9.543710      9.543758   0.000000   0.000000
   74        9.639873      9.639908   0.000000   0.000000
   75        9.757287      9.757345   0.000000   0.000000
   76       10.003644     10.003702   0.000000   0.000000
   77       10.087755     10.087809   0.000000   0.000000
   78       10.312930     10.312983   0.000000   0.000000
   79       10.405439     10.405489   0.000000   0.000000
   80       10.495786     10.495851   0.000000   0.000000
   81       10.593925     10.593969   0.000000   0.000000
   82       10.657508     10.657561   0.000000   0.000000
   83       10.933622     10.933672   0.000000   0.000000
   84       11.141145     11.141199   0.000000   0.000000
   85       11.540325     11.540388   0.000000   0.000000
   86       11.653703     11.653931   0.000000   0.000000
 
  0.4285714E+00 -0.7368352E-16 -0.1201174E-14  0.1428571E-01
    1      -42.037032    -42.037106   1.000000   1.000000
    2      -42.036616    -42.036690   1.000000   1.000000
    3      -41.898830    -41.898902   1.000000   1.000000
    4      -41.898718    -41.898791   1.000000   1.000000
    5      -41.809379    -41.809455   1.000000   1.000000
    6      -41.809266    -41.809342   1.000000   1.000000
    7      -41.722548    -41.722638   1.000000   1.000000
    8      -41.705595    -41.705685   1.000000   1.000000
    9      -20.070313    -20.070306   1.000000   1.000000
   10      -20.055869    -20.055862   1.000000   1.000000
   11      -18.865580    -18.865576   1.000000   1.000000
   12      -18.853823    -18.853819   1.000000   1.000000
   13      -17.507634    -17.507644   1.000000   1.000000
   14      -17.493887    -17.493897   1.000000   1.000000
   15      -17.017101    -17.017117   1.000000   1.000000
   16      -17.007416    -17.007433   1.000000   1.000000
   17      -16.793007    -16.793022   1.000000   1.000000
   18      -16.752245    -16.752261   1.000000   1.000000
   19      -16.733354    -16.733370   1.000000   1.000000
   20      -16.708166    -16.708183   1.000000   1.000000
   21      -16.615295    -16.615313   1.000000   1.000000
   22      -16.599914    -16.599933   1.000000   1.000000
   23       -8.647675     -8.647655   1.000000   1.000000
   24       -8.627669     -8.627650   1.000000   1.000000
   25       -6.012808     -6.012768   1.000000   1.000000
   26       -5.718340     -5.718302   1.000000   1.000000
   27       -5.033978     -5.033947   1.000000   1.000000
   28       -4.937099     -4.937068   1.000000   1.000000
   29       -4.522456     -4.522420   1.000000   1.000000
   30       -4.382154     -4.382121   1.000000   1.000000
   31       -4.145353     -4.145328   1.000000   1.000000
   32       -4.124998     -4.124971   1.000000   1.000000
   33       -3.915588     -3.915550   1.000000   1.000000
   34       -3.599595     -3.599564   1.000000   1.000000
   35       -3.508649     -3.508619   1.000000   1.000000
   36       -3.394566     -3.394540   1.000000   1.000000
   37       -3.061160     -3.061130   1.000000   1.000000
   38       -2.726202     -2.726180   1.000000   1.000000
   39       -2.398050     -2.398040   1.000000   1.000000
   40       -2.242986     -2.242977   1.000000   1.000000
   41       -2.172774     -2.172765   1.000000   1.000000
   42       -2.114003     -2.113985   1.000000   1.000000
   43       -1.918876     -1.918867   1.000000   1.000000
   44       -1.807014     -1.807003   1.000000   1.000000
   45       -1.754228     -1.754221   1.000000   1.000000
   46       -1.736993     -1.736986   1.000000   1.000000
   47       -1.547904     -1.547896   1.000000   1.000000
   48       -1.395643     -1.395637   1.000000   1.000000
   49       -1.330776     -1.330766   1.000000   1.000000
   50       -1.253923     -1.253918   1.000000   1.000000
   51       -1.116114     -1.116117   1.000000   1.000000
   52       -0.957296     -0.957298   1.000000   1.000000
   53       -0.681104     -0.681106   1.000000   1.000000
   54       -0.580083     -0.580091   1.000000   1.000000
   55       -0.464929     -0.464941   1.000000   1.000000
   56       -0.396435     -0.396447   1.000000   1.000000
   57       -0.254274     -0.254281   1.000000   1.000000
   58       -0.228390     -0.228396   1.000000   1.000000
   59       -0.034748     -0.034754   1.000000   1.000000
   60        0.026848      0.026836   1.000000   1.000000
   61        0.197765      0.197749   1.000000   1.000000
   62        0.212933      0.212918   1.000000   1.000000
   63        0.396228      0.396213   1.000000   1.000000
   64        0.414941      0.414926   1.000000   1.000000
   65        7.312422      7.312465   0.000000   0.000000
   66        8.031259      8.031308   0.000000   0.000000
   67        8.386800      8.386837   0.000000   0.000000
   68        8.610650      8.610691   0.000000   0.000000
   69        8.747241      8.747283   0.000000   0.000000
   70        8.946312      8.946350   0.000000   0.000000
   71        9.033718      9.033746   0.000000   0.000000
   72        9.223635      9.223686   0.000000   0.000000
   73        9.348133      9.348172   0.000000   0.000000
   74        9.386191      9.386245   0.000000   0.000000
   75        9.610869      9.610938   0.000000   0.000000
   76        9.740495      9.740562   0.000000   0.000000
   77       10.179698     10.179753   0.000000   0.000000
   78       10.288319     10.288377   0.000000   0.000000
   79       10.343808     10.343868   0.000000   0.000000
   80       10.496726     10.496767   0.000000   0.000000
   81       10.571184     10.571247   0.000000   0.000000
   82       10.704309     10.704342   0.000000   0.000000
   83       10.920517     10.920570   0.000000   0.000000
   84       10.971550     10.971605   0.000000   0.000000
   85       11.545597     11.545665   0.000000   0.000000
   86       11.779931     11.779822   0.000000   0.000000
 
  0.0000000E+00  0.2000000E+00  0.5940892E-16  0.1428571E-01
    1      -42.037053    -42.037127   1.000000   1.000000
    2      -42.036642    -42.036717   1.000000   1.000000
    3      -41.898962    -41.899035   1.000000   1.000000
    4      -41.898821    -41.898894   1.000000   1.000000
    5      -41.809267    -41.809344   1.000000   1.000000
    6      -41.809163    -41.809239   1.000000   1.000000
    7      -41.722655    -41.722745   1.000000   1.000000
    8      -41.705462    -41.705552   1.000000   1.000000
    9      -20.095691    -20.095683   1.000000   1.000000
   10      -20.051960    -20.051953   1.000000   1.000000
   11      -18.867108    -18.867102   1.000000   1.000000
   12      -18.857297    -18.857292   1.000000   1.000000
   13      -17.533238    -17.533247   1.000000   1.000000
   14      -17.499788    -17.499798   1.000000   1.000000
   15      -17.036015    -17.036031   1.000000   1.000000
   16      -16.988658    -16.988675   1.000000   1.000000
   17      -16.746008    -16.746025   1.000000   1.000000
   18      -16.732458    -16.732475   1.000000   1.000000
   19      -16.700741    -16.700758   1.000000   1.000000
   20      -16.698188    -16.698206   1.000000   1.000000
   21      -16.612969    -16.612987   1.000000   1.000000
   22      -16.589242    -16.589261   1.000000   1.000000
   23       -8.631146     -8.631126   1.000000   1.000000
   24       -8.610488     -8.610469   1.000000   1.000000
   25       -6.093679     -6.093631   1.000000   1.000000
   26       -5.699355     -5.699318   1.000000   1.000000
   27       -5.126015     -5.125977   1.000000   1.000000
   28       -4.953503     -4.953470   1.000000   1.000000
   29       -4.589263     -4.589229   1.000000   1.000000
   30       -4.387916     -4.387885   1.000000   1.000000
   31       -4.313213     -4.313185   1.000000   1.000000
   32       -4.298993     -4.298967   1.000000   1.000000
   33       -3.911842     -3.911809   1.000000   1.000000
   34       -3.860550     -3.860520   1.000000   1.000000
   35       -3.734817     -3.734789   1.000000   1.000000
   36       -3.569137     -3.569109   1.000000   1.000000
   37       -3.103840     -3.103813   1.000000   1.000000
   38       -2.918053     -2.918028   1.000000   1.000000
   39       -2.373832     -2.373821   1.000000   1.000000
   40       -2.209901     -2.209899   1.000000   1.000000
   41       -2.196084     -2.196079   1.000000   1.000000
   42       -2.095224     -2.095214   1.000000   1.000000
   43       -1.911326     -1.911306   1.000000   1.000000
   44       -1.659016     -1.659010   1.000000   1.000000
   45       -1.609874     -1.609868   1.000000   1.000000
   46       -1.440718     -1.440716   1.000000   1.000000
   47       -1.319090     -1.319086   1.000000   1.000000
   48       -1.236984     -1.236984   1.000000   1.000000
   49       -1.137983     -1.137984   1.000000   1.000000
   50       -1.130472     -1.130471   1.000000   1.000000
   51       -1.054054     -1.054056   1.000000   1.000000
   52       -0.835648     -0.835653   1.000000   1.000000
   53       -0.723860     -0.723862   1.000000   1.000000
   54       -0.499270     -0.499275   1.000000   1.000000
   55       -0.351896     -0.351905   1.000000   1.000000
   56       -0.306882     -0.306893   1.000000   1.000000
   57       -0.204632     -0.204639   1.000000   1.000000
   58       -0.124477     -0.124476   1.000000   1.000000
   59       -0.061668     -0.061669   1.000000   1.000000
   60        0.012257      0.012256   1.000000   1.000000
   61        0.128670      0.128661   1.000000   1.000000
   62        0.196988      0.196973   1.000000   1.000000
   63        0.368782      0.368767   1.000000   1.000000
   64        0.399020      0.399004   1.000000   1.000000
   65        6.256619      6.256669  -0.000000  -0.000000
   66        7.986265      7.986287   0.000000   0.000000
   67        8.315461      8.315510   0.000000   0.000000
   68        8.685354      8.685413   0.000000   0.000000
   69        8.714720      8.714762   0.000000   0.000000
   70        8.933629      8.933688   0.000000   0.000000
   71        9.208003      9.208058   0.000000   0.000000
   72        9.355078      9.355134   0.000000   0.000000
   73        9.606440      9.606497   0.000000   0.000000
   74        9.709354      9.709401   0.000000   0.000000
   75        9.778227      9.778283   0.000000   0.000000
   76       10.066845     10.066907   0.000000   0.000000
   77       10.281966     10.282020   0.000000   0.000000
   78       10.544779     10.544830   0.000000   0.000000
   79       10.571420     10.571459   0.000000   0.000000
   80       10.813343     10.813387   0.000000   0.000000
   81       10.991032     10.991091   0.000000   0.000000
   82       11.065646     11.065719   0.000000   0.000000
   83       11.241624     11.241687   0.000000   0.000000
   84       11.431920     11.431908   0.000000   0.000000
   85       11.533852     11.532925   0.000000   0.000000
   86       11.738766     11.740673   0.000000   0.000000
 
  0.1428571E+00  0.2000000E+00 -0.5125002E-14  0.1428571E-01
    1      -42.037042    -42.037117   1.000000   1.000000
    2      -42.036653    -42.036727   1.000000   1.000000
    3      -41.898938    -41.899011   1.000000   1.000000
    4      -41.898810    -41.898882   1.000000   1.000000
    5      -41.809290    -41.809367   1.000000   1.000000
    6      -41.809192    -41.809269   1.000000   1.000000
    7      -41.722659    -41.722748   1.000000   1.000000
    8      -41.705476    -41.705566   1.000000   1.000000
    9      -20.085375    -20.085367   1.000000   1.000000
   10      -20.053724    -20.053717   1.000000   1.000000
   11      -18.884686    -18.884680   1.000000   1.000000
   12      -18.852452    -18.852447   1.000000   1.000000
   13      -17.514511    -17.514521   1.000000   1.000000
   14      -17.501979    -17.501989   1.000000   1.000000
   15      -17.037461    -17.037477   1.000000   1.000000
   16      -16.985769    -16.985786   1.000000   1.000000
   17      -16.759186    -16.759203   1.000000   1.000000
   18      -16.740496    -16.740513   1.000000   1.000000
   19      -16.704734    -16.704751   1.000000   1.000000
   20      -16.694405    -16.694423   1.000000   1.000000
   21      -16.610305    -16.610324   1.000000   1.000000
   22      -16.594390    -16.594409   1.000000   1.000000
   23       -8.655428     -8.655407   1.000000   1.000000
   24       -8.614879     -8.614860   1.000000   1.000000
   25       -6.075612     -6.075566   1.000000   1.000000
   26       -5.680806     -5.680769   1.000000   1.000000
   27       -5.103160     -5.103123   1.000000   1.000000
   28       -4.938773     -4.938741   1.000000   1.000000
   29       -4.572835     -4.572800   1.000000   1.000000
   30       -4.367761     -4.367730   1.000000   1.000000
   31       -4.304587     -4.304559   1.000000   1.000000
   32       -4.289157     -4.289132   1.000000   1.000000
   33       -3.936317     -3.936282   1.000000   1.000000
   34       -3.784741     -3.784711   1.000000   1.000000
   35       -3.674109     -3.674081   1.000000   1.000000
   36       -3.575543     -3.575514   1.000000   1.000000
   37       -3.056279     -3.056252   1.000000   1.000000
   38       -2.879249     -2.879225   1.000000   1.000000
   39       -2.327631     -2.327622   1.000000   1.000000
   40       -2.236600     -2.236594   1.000000   1.000000
   41       -2.154085     -2.154075   1.000000   1.000000
   42       -2.128552     -2.128546   1.000000   1.000000
   43       -1.963103     -1.963083   1.000000   1.000000
   44       -1.703679     -1.703675   1.000000   1.000000
   45       -1.617255     -1.617246   1.000000   1.000000
   46       -1.433865     -1.433861   1.000000   1.000000
   47       -1.315847     -1.315844   1.000000   1.000000
   48       -1.228890     -1.228889   1.000000   1.000000
   49       -1.185915     -1.185915   1.000000   1.000000
   50       -1.170638     -1.170639   1.000000   1.000000
   51       -1.142383     -1.142382   1.000000   1.000000
   52       -0.929227     -0.929231   1.000000   1.000000
   53       -0.709838     -0.709839   1.000000   1.000000
   54       -0.520386     -0.520392   1.000000   1.000000
   55       -0.389852     -0.389863   1.000000   1.000000
   56       -0.316550     -0.316558   1.000000   1.000000
   57       -0.233344     -0.233351   1.000000   1.000000
   58       -0.165127     -0.165129   1.000000   1.000000
   59       -0.033773     -0.033775   1.000000   1.000000
   60        0.034175      0.034172   1.000000   1.000000
   61        0.162837      0.162828   1.000000   1.000000
   62        0.171286      0.171272   1.000000   1.000000
   63        0.359096      0.359080   1.000000   1.000000
   64        0.410603      0.410588   1.000000   1.000000
   65        6.583630      6.583675   0.000000   0.000000
   66        7.893478      7.893502   0.000000   0.000000
   67        8.118337      8.118382   0.000000   0.000000
   68        8.681925      8.681976   0.000000   0.000000
   69        8.782246      8.782300   0.000000   0.000000
   70        8.933639      8.933695   0.000000   0.000000
   71        9.288611      9.288659   0.000000   0.000000
   72        9.317362      9.317409   0.000000   0.000000
   73        9.669564      9.669635   0.000000   0.000000
   74        9.797747      9.797788   0.000000   0.000000
   75        9.830734      9.830794   0.000000   0.000000
   76       10.020622     10.020684   0.000000   0.000000
   77       10.138004     10.138061   0.000000   0.000000