 running on   12 total cores
 distrk:  each k-point on   12 cores,    1 groups
 distr:  one band on    6 cores,    2 groups
 using from now: INCAR     
 vasp.6.1.2 22Jul20 (build Mar 20 2021 11:25:07) complex                        
  
 POSCAR found type information on POSCAR LiP O 
 POSCAR found :  3 types and      26 ions
 scaLAPACK will be used
 LDA part: xc-table for Pade appr. of Perdew
 generate k-points for:    7    5    4
 POSCAR, INCAR and KPOINTS ok, starting setup
 FFT: planning ...
 WAVECAR not read
 entering main loop
       N       E                     dE             d eps       ncg     rms          rms(c)
DAV:   1     0.111324504297E+04    0.11132E+04   -0.61954E+04 24440   0.152E+03
DAV:   2    -0.627915163899E+02   -0.11760E+04   -0.11062E+04 29334   0.393E+02
DAV:   3    -0.174296685419E+03   -0.11151E+03   -0.11079E+03 31566   0.124E+02
DAV:   4    -0.183951623411E+03   -0.96549E+01   -0.96142E+01 45984   0.295E+01
DAV:   5    -0.185510204823E+03   -0.15586E+01   -0.15581E+01 34360   0.683E+00    0.505E+01
DAV:   6    -0.165534597754E+03    0.19976E+02   -0.89495E+01 30590   0.319E+01    0.250E+01
DAV:   7    -0.167576474371E+03   -0.20419E+01   -0.73164E+00 31920   0.903E+00    0.893E+00
DAV:   8    -0.167861282969E+03   -0.28481E+00   -0.79324E-01 32358   0.357E+00    0.446E+00
DAV:   9    -0.167998693952E+03   -0.13741E+00   -0.14122E-01 33880   0.164E+00    0.171E+00
DAV:  10    -0.168024464535E+03   -0.25771E-01   -0.51960E-02 29832   0.111E+00    0.521E-01
DAV:  11    -0.168035132988E+03   -0.10668E-01   -0.11547E-02 30432   0.443E-01    0.305E-01
DAV:  12    -0.168037786727E+03   -0.26537E-02   -0.20262E-03 31984   0.204E-01    0.156E-01
DAV:  13    -0.168039034680E+03   -0.12480E-02   -0.10764E-03 28392   0.128E-01    0.464E-02
DAV:  14    -0.168039209577E+03   -0.17490E-03   -0.15213E-04 32432   0.608E-02    0.235E-02
DAV:  15    -0.168039267688E+03   -0.58111E-04   -0.62909E-05 25472   0.353E-02    0.148E-02
DAV:  16    -0.168039275783E+03   -0.80946E-05   -0.81179E-06 20864   0.140E-02
   1 F= -.16803928E+03 E0= -.16803928E+03  d E =0.000000E+00  mag=    -0.0015
