       N       E                     dE             d eps       ncg     rms          rms(c)
DAV:   1     0.633947607335E+03    0.63395E+03   -0.37449E+04  9984   0.155E+03
DAV:   2    -0.439033715558E+02   -0.67785E+03   -0.64464E+03 11556   0.406E+02
DAV:   3    -0.102544650290E+03   -0.58641E+02   -0.58362E+02 13924   0.113E+02
DAV:   4    -0.108244668184E+03   -0.57000E+01   -0.56751E+01 17088   0.290E+01
DAV:   5    -0.108738061906E+03   -0.49339E+00   -0.49328E+00 13968   0.606E+00    0.405E+01
RMM:   6    -0.983488965077E+02    0.10389E+02   -0.42299E+01 11086   0.249E+01    0.173E+01
RMM:   7    -0.993986912240E+02   -0.10498E+01   -0.55261E+00 14417   0.944E+00    0.877E+00
RMM:   8    -0.996563735743E+02   -0.25768E+00   -0.11657E+00 16587   0.483E+00    0.400E+00
RMM:   9    -0.997252864782E+02   -0.68913E-01   -0.45225E-01 16683   0.329E+00    0.114E+00
RMM:  10    -0.997661930973E+02   -0.40907E-01   -0.29473E-01 18851   0.199E+00    0.416E-01
RMM:  11    -0.997834370887E+02   -0.17244E-01   -0.13098E-01 19323   0.122E+00    0.322E-01
RMM:  12    -0.997905436317E+02   -0.71065E-02   -0.50512E-02 19362   0.766E-01    0.200E-01
RMM:  13    -0.997929020339E+02   -0.23584E-02   -0.18932E-02 19010   0.509E-01    0.925E-02
RMM:  14    -0.997940928762E+02   -0.11908E-02   -0.97658E-03 19163   0.354E-01    0.387E-02
RMM:  15    -0.997945120672E+02   -0.41919E-03   -0.39569E-03 18759   0.223E-01    0.319E-02
RMM:  16    -0.997947069802E+02   -0.19491E-03   -0.19514E-03 18564   0.150E-01    0.180E-02
RMM:  17    -0.997947790456E+02   -0.72065E-04   -0.75736E-04 18088   0.103E-01    0.971E-03
RMM:  18    -0.997948239226E+02   -0.44877E-04   -0.42454E-04 17771   0.721E-02    0.713E-03
RMM:  19    -0.997948403587E+02   -0.16436E-04   -0.17319E-04 16979   0.502E-02    0.316E-03
RMM:  20    -0.997948412347E+02   -0.87596E-06   -0.44277E-05 12379   0.366E-02
   1 F= -.99794841E+02 E0= -.99794841E+02  d E =0.000000E+00  mag=     0.0000
