    8    8    1    2
  0.8808796E+01  0.4749860E-09  0.4749860E-09  0.4749860E-09  0.5000000E-15
  1.000000000000000E-004
  CAR 
 unknown system                          
     36    169     32
 
  0.0000000E+00  0.0000000E+00  0.0000000E+00  0.1562500E-02
    1      -37.687375    -37.687085   1.000000   1.000000
    2      -37.655399    -37.655108   1.000000   1.000000
    3      -13.817413    -13.817431   1.000000   1.000000
    4       -9.048018     -9.048046   1.000000   1.000000
    5       -9.048018     -9.048046   1.000000   1.000000
    6       -8.775549     -8.775577   1.000000   1.000000
    7       -6.729233     -6.729250   1.000000   1.000000
    8       -1.915226     -1.915244   1.000000   1.000000
    9       -1.915226     -1.915244   1.000000   1.000000
   10       -1.227732     -1.227751   1.000000   1.000000
   11        1.466495      1.466470   1.000000   1.000000
   12        2.694714      2.694723   1.000000   1.000000
   13        2.780814      2.780800   1.000000   1.000000
   14        3.998196      3.998180   1.000000   1.000000
   15        3.998197      3.998181   1.000000   1.000000
   16        4.454515      4.454497   1.000000   1.000000
   17        4.454516      4.454497   1.000000   1.000000
   18        4.569850      4.569825   1.000000   1.000000
   19        9.304020      9.304044   0.000000   0.000000
   20       12.527280     12.527310   0.000000   0.000000
   21       14.648838     14.648850   0.000000   0.000000
   22       14.648839     14.648850   0.000000   0.000000
   23       14.723417     14.723400   0.000000   0.000000
   24       14.723417     14.723401   0.000000   0.000000
   25       15.981687     15.981692   0.000000   0.000000
   26       16.039796     16.039806   0.000000   0.000000
   27       16.501614     16.501653   0.000000   0.000000
   28       16.840155     16.840170   0.000000   0.000000
   29       18.896443     18.896425   0.000000   0.000000
   30       19.519736     19.519739   0.000000   0.000000
   31       19.519744     19.519743   0.000000   0.000000
   32       20.261395     20.261752   0.000000   0.000000
 
  0.1250000E+00 -0.2463242E-17  0.1600594E-17  0.6250000E-02
    1      -37.686456    -37.686166   1.000000   1.000000
    2      -37.656332    -37.656041   1.000000   1.000000
    3      -13.735545    -13.735563   1.000000   1.000000
    4       -9.379749     -9.379775   1.000000   1.000000
    5       -9.074368     -9.074396   1.000000   1.000000
    6       -8.861992     -8.862020   1.000000   1.000000
    7       -6.342144     -6.342162   1.000000   1.000000
    8       -1.936535     -1.936552   1.000000   1.000000
    9       -1.888035     -1.888053   1.000000   1.000000
   10       -1.127251     -1.127270   1.000000   1.000000
   11        1.396633      1.396611   1.000000   1.000000
   12        2.778319      2.778305   1.000000   1.000000
   13        2.819304      2.819307   1.000000   1.000000
   14        3.856761      3.856742   1.000000   1.000000
   15        4.040151      4.040131   1.000000   1.000000
   16        4.364622      4.364607   1.000000   1.000000
   17        4.425491      4.425475   1.000000   1.000000
   18        4.582043      4.582025   1.000000   1.000000
   19        9.663838      9.663859  -0.000000  -0.000000
   20       12.756114     12.756144   0.000000   0.000000
   21       13.855009     13.855007   0.000000   0.000000
   22       14.028088     14.028085   0.000000   0.000000
   23       14.777688     14.777685   0.000000   0.000000
   24       15.157165     15.157165   0.000000   0.000000
   25       15.700878     15.700885   0.000000   0.000000
   26       16.651182     16.651206   0.000000   0.000000
   27       16.826824     16.826835   0.000000   0.000000
   28       17.134969     17.134981   0.000000   0.000000
   29       18.605175     18.605161   0.000000   0.000000
   30       19.006232     19.006215   0.000000   0.000000
   31       19.295742     19.295749   0.000000   0.000000
   32       20.325958     20.287358   0.000000   0.000000
 
  0.2500000E+00 -0.4926484E-17  0.3201189E-17  0.6250000E-02
    1      -37.683928    -37.683638   1.000000   1.000000
    2      -37.658682    -37.658391   1.000000   1.000000
    3      -13.505234    -13.505253   1.000000   1.000000
    4      -10.121689    -10.121713   1.000000   1.000000
    5       -9.120050     -9.120077   1.000000   1.000000
    6       -8.929926     -8.929953   1.000000   1.000000
    7       -5.652234     -5.652253   1.000000   1.000000
    8       -1.988243     -1.988259   1.000000   1.000000
    9       -1.731534     -1.731551   1.000000   1.000000
   10       -0.948344     -0.948363   1.000000   1.000000
   11        1.333935      1.333916   1.000000   1.000000
   12        2.761052      2.761036   1.000000   1.000000
   13        2.948662      2.948640   1.000000   1.000000
   14        3.222664      3.222669   1.000000   1.000000
   15        3.982883      3.982862   1.000000   1.000000
   16        4.273251      4.273230   1.000000   1.000000
   17        4.504904      4.504896   1.000000   1.000000
   18        4.957679      4.957659   1.000000   1.000000
   19       10.630333     10.630347   0.000000   0.000000
   20       12.771515     12.771529   0.000000   0.000000
   21       13.090738     13.090753   0.000000   0.000000
   22       13.587236     13.587232   0.000000   0.000000
   23       14.352180     14.352172   0.000000   0.000000
   24       15.677917     15.677924   0.000000   0.000000
   25       15.827021     15.827032   0.000000   0.000000
   26       16.869342     16.869344   0.000000   0.000000
   27       16.977621     16.977624   0.000000   0.000000
   28       17.750102     17.750093   0.000000   0.000000
   29       17.933071     17.933104   0.000000   0.000000
   30       18.374700     18.374713   0.000000   0.000000
   31       18.980088     18.980013   0.000000   0.000000
   32       20.262520     20.260588   0.000000   0.000000
 
  0.3750000E+00 -0.1586314E-16 -0.7541482E-17  0.6250000E-02
    1      -37.680824    -37.680534   1.000000   1.000000
    2      -37.661670    -37.661379   1.000000   1.000000
    3      -13.195804    -13.195824   1.000000   1.000000
    4      -10.812172    -10.812194   1.000000   1.000000
    5       -9.141520     -9.141547   1.000000   1.000000
    6       -9.005345     -9.005372   1.000000   1.000000
    7       -5.108253     -5.108272   1.000000   1.000000
    8       -1.988666     -1.988685   1.000000   1.000000
    9       -1.447941     -1.447960   1.000000   1.000000
   10       -0.892046     -0.892066   1.000000   1.000000
   11        1.446731      1.446714   1.000000   1.000000
   12        2.170740      2.170725   1.000000   1.000000
   13        2.680118      2.680107   1.000000   1.000000
   14        3.363332      3.363321   1.000000   1.000000
   15        3.858040      3.858028   1.000000   1.000000
   16        4.121279      4.121261   1.000000   1.000000
   17        4.785459      4.785446   1.000000   1.000000
   18        5.354203      5.354178   1.000000   1.000000
   19       11.897911     11.897913   0.000000   0.000000
   20       12.059123     12.059131   0.000000   0.000000
   21       13.011898     13.011912   0.000000   0.000000
   22       13.533289     13.533300   0.000000   0.000000
   23       14.121525     14.121508   0.000000   0.000000
   24       15.595185     15.595203   0.000000   0.000000
   25       16.125278     16.125296   0.000000   0.000000
   26       16.553089     16.553086   0.000000   0.000000
   27       16.724484     16.724497   0.000000   0.000000
   28       17.221833     17.221825   0.000000   0.000000
   29       17.703867     17.703881   0.000000   0.000000
   30       18.586596     18.586577   0.000000   0.000000
   31       18.985576     18.985718   0.000000   0.000000
   32       20.116123     20.114913   0.000000   0.000000
 
  0.5000000E+00 -0.9852968E-17  0.6402377E-17  0.6250000E-02
    1      -37.679253    -37.678963   1.000000   1.000000
    2      -37.663281    -37.662990   1.000000   1.000000
    3      -13.019794    -13.019816   1.000000   1.000000
    4      -11.123658    -11.123679   1.000000   1.000000
    5       -9.137407     -9.137434   1.000000   1.000000
    6       -9.048682     -9.048709   1.000000   1.000000
    7       -4.909097     -4.909115   1.000000   1.000000
    8       -1.966832     -1.966853   1.000000   1.000000
    9       -1.218897     -1.218918   1.000000   1.000000
   10       -0.970704     -0.970723   1.000000   1.000000
   11        1.540822      1.540813   1.000000   1.000000
   12        1.881402      1.881382   1.000000   1.000000
   13        2.461402      2.461393   1.000000   1.000000
   14        3.653812      3.653797   1.000000   1.000000
   15        3.721413      3.721396   1.000000   1.000000
   16        3.993095      3.993088   1.000000   1.000000
   17        4.941937      4.941920   1.000000   1.000000
   18        5.500470      5.500442   1.000000   1.000000
   19       11.740594     11.740600   0.000000   0.000000
   20       12.708053     12.708052   0.000000   0.000000
   21       13.126638     13.126633   0.000000   0.000000
   22       13.524414     13.524411   0.000000   0.000000
   23       14.049437     14.049426   0.000000   0.000000
   24       15.183212     15.183251   0.000000   0.000000
   25       15.706837     15.706922   0.000000   0.000000
   26       16.325239     16.325244   0.000000   0.000000
   27       16.726356     16.726368   0.000000   0.000000
   28       17.279464     17.279454   0.000000   0.000000
   29       18.026136     18.026163   0.000000   0.000000
   30       18.209219     18.209152   0.000000   0.000000
   31       19.178450     19.178431   0.000000   0.000000
   32       19.763215     19.761341   0.000000   0.000000
 
  0.1250000E+00  0.1250000E+00  0.3095676E-16  0.3125000E-02
    1      -37.684989    -37.684699   1.000000   1.000000
    2      -37.657733    -37.657442   1.000000   1.000000
    3      -13.604465    -13.604483   1.000000   1.000000
    4       -9.809618     -9.809643   1.000000   1.000000
    5       -9.122439     -9.122466   1.000000   1.000000
    6       -8.951074     -8.951102   1.000000   1.000000
    7       -5.851190     -5.851210   1.000000   1.000000
    8       -2.036275     -2.036292   1.000000   1.000000
    9       -1.650900     -1.650918   1.000000   1.000000
   10       -1.090272     -1.090290   1.000000   1.000000
   11        1.400631      1.400611   1.000000   1.000000
   12        2.733822      2.733807   1.000000   1.000000
   13        2.910044      2.910038   1.000000   1.000000
   14        3.481248      3.481237   1.000000   1.000000
   15        3.954765      3.954742   1.000000   1.000000
   16        4.326546      4.326529   1.000000   1.000000
   17        4.586256      4.586237   1.000000   1.000000
   18        4.633429      4.633417   1.000000   1.000000
   19       10.208375     10.208393  -0.000000  -0.000000
   20       12.770406     12.770432   0.000000   0.000000
   21       13.358221     13.358219   0.000000   0.000000
   22       13.608886     13.608885   0.000000   0.000000
   23       14.745848     14.745841   0.000000   0.000000
   24       15.245588     15.245595   0.000000   0.000000
   25       15.683781     15.683789   0.000000   0.000000
   26       16.583400     16.583408   0.000000   0.000000
   27       17.226885     17.226898   0.000000   0.000000
   28       17.794019     17.794035   0.000000   0.000000
   29       18.370687     18.370684   0.000000   0.000000
   30       18.564200     18.564226   0.000000   0.000000
   31       19.150162     19.150165   0.000000   0.000000
   32       19.951647     19.948014   0.000000   0.000000
 
  0.2500000E+00  0.1250000E+00  0.2021409E-16  0.6250000E-02
    1      -37.682154    -37.681864   1.000000   1.000000
    2      -37.660410    -37.660119   1.000000   1.000000
    3      -13.336537    -13.336556   1.000000   1.000000
    4      -10.492567    -10.492591   1.000000   1.000000
    5       -9.178250     -9.178276   1.000000   1.000000
    6       -9.009555     -9.009582   1.000000   1.000000
    7       -5.234258     -5.234278   1.000000   1.000000
    8       -2.111688     -2.111705   1.000000   1.000000
    9       -1.420185     -1.420203   1.000000   1.000000
   10       -0.953772     -0.953792   1.000000   1.000000
   11        1.454003      1.453985   1.000000   1.000000
   12        2.398335      2.398322   1.000000   1.000000
   13        2.731763      2.731749   1.000000   1.000000
   14        3.317922      3.317915   1.000000   1.000000
   15        3.850311      3.850292   1.000000   1.000000
   16        4.337492      4.337471   1.000000   1.000000
   17        4.704412      4.704398   1.000000   1.000000
   18        5.026096      5.026077   1.000000   1.000000
   19       11.213588     11.213600   0.000000   0.000000
   20       12.401690     12.401702   0.000000   0.000000
   21       12.682649     12.682657   0.000000   0.000000
   22       13.736241     13.736242   0.000000   0.000000
   23       14.444648     14.444646   0.000000   0.000000
   24       15.281884     15.281897   0.000000   0.000000
   25       15.934021     15.934032   0.000000   0.000000
   26       16.824314     16.824310   0.000000   0.000000
   27       17.277057     17.277066   0.000000   0.000000
   28       17.581043     17.581046   0.000000   0.000000
   29       17.752178     17.752200   0.000000   0.000000
   30       18.580969     18.581025   0.000000   0.000000
   31       18.882443     18.882470   0.000000   0.000000
   32       19.940568     19.939536   0.000000   0.000000
 
  0.3750000E+00  0.1250000E+00  0.6402377E-17  0.1250000E-01
    1      -37.679205    -37.678915   1.000000   1.000000
    2      -37.663246    -37.662955   1.000000   1.000000
    3      -13.030248    -13.030269   1.000000   1.000000
    4      -11.068468    -11.068490   1.000000   1.000000
    5       -9.197699     -9.197725   1.000000   1.000000
    6       -9.067508     -9.067535   1.000000   1.000000
    7       -4.814419     -4.814438   1.000000   1.000000
    8       -2.143570     -2.143590   1.000000   1.000000
    9       -1.186316     -1.186335   1.000000   1.000000
   10       -0.920645     -0.920665   1.000000   1.000000
   11        1.544908      1.544898   1.000000   1.000000
   12        1.868234      1.868218   1.000000   1.000000
   13        2.572055      2.572043   1.000000   1.000000
   14        3.426157      3.426141   1.000000   1.000000
   15        3.865800      3.865787   1.000000   1.000000
   16        4.263203      4.263185   1.000000   1.000000
   17        4.875400      4.875383   1.000000   1.000000
   18        5.343333      5.343307   1.000000   1.000000
   19       11.826702     11.826707   0.000000   0.000000
   20       12.430829     12.430833   0.000000   0.000000
   21       12.682322     12.682331   0.000000   0.000000
   22       13.491483     13.491483   0.000000   0.000000
   23       14.454256     14.454254   0.000000   0.000000
   24       15.327534     15.327559   0.000000   0.000000
   25       16.011519     16.011541   0.000000   0.000000
   26       16.341640     16.341642   0.000000   0.000000
   27       16.655411     16.655418   0.000000   0.000000
   28       17.326555     17.326549   0.000000   0.000000
   29       17.751077     17.751102   0.000000   0.000000
   30       18.288626     18.288631   0.000000   0.000000
   31       19.088825     19.088991   0.000000   0.000000
   32       20.130761     20.135740   0.000000   0.000000
 
  0.5000000E+00  0.1250000E+00  0.1807416E-15  0.1250000E-01
    1      -37.678594    -37.678303   1.000000   1.000000
    2      -37.663846    -37.663555   1.000000   1.000000
    3      -12.957342    -12.957363   1.000000   1.000000
    4      -11.181253    -11.181274   1.000000   1.000000
    5       -9.203805     -9.203831   1.000000   1.000000
    6       -9.064617     -9.064643   1.000000   1.000000
    7       -4.767690     -4.767708   1.000000   1.000000
    8       -2.207264     -2.207285   1.000000   1.000000
    9       -1.212860     -1.212880   1.000000   1.000000
   10       -0.811596     -0.811615   1.000000   1.000000
   11        1.367608      1.367598   1.000000   1.000000
   12        1.902959      1.902945   1.000000   1.000000
   13        2.609971      2.609958   1.000000   1.000000
   14        3.647773      3.647753   1.000000   1.000000
   15        3.840082      3.840068   1.000000   1.000000
   16        4.152029      4.152016   1.000000   1.000000
   17        4.892069      4.892052   1.000000   1.000000
   18        5.408106      5.408079   1.000000   1.000000
   19       11.704267     11.704273   0.000000   0.000000
   20       12.552126     12.552127   0.000000   0.000000
   21       13.184238     13.184240   0.000000   0.000000
   22       13.460428     13.460427   0.000000   0.000000
   23       14.385115     14.385118   0.000000   0.000000
   24       15.160693     15.160728   0.000000   0.000000
   25       15.851370     15.851411   0.000000   0.000000
   26       16.184996     16.185014   0.000000   0.000000
   27       16.396432     16.396442   0.000000   0.000000
   28       17.513215     17.513209   0.000000   0.000000
   29       17.777469     17.777475   0.000000   0.000000
   30       18.218047     18.218070   0.000000   0.000000
   31       19.198896     19.198855   0.000000   0.000000
   32       19.875571     19.874232   0.000000   0.000000
 
 -0.3750000E+00  0.1250000E+00  0.2148534E-16  0.6250000E-02
    1      -37.681017    -37.680727   1.000000   1.000000
    2      -37.661463    -37.661172   1.000000   1.000000
    3      -13.216362    -13.216381   1.000000   1.000000
    4      -10.724995    -10.725018   1.000000   1.000000
    5       -9.194253     -9.194279   1.000000   1.000000
    6       -8.994822     -8.994849   1.000000   1.000000
    7       -5.117623     -5.117642   1.000000   1.000000
    8       -2.294030     -2.294047   1.000000   1.000000
    9       -1.426406     -1.426425   1.000000   1.000000
   10       -0.713225     -0.713245   1.000000   1.000000
   11        1.189407      1.189392   1.000000   1.000000
   12        2.312858      2.312845   1.000000   1.000000
   13        2.939462      2.939446   1.000000   1.000000
   14        3.514737      3.514728   1.000000   1.000000
   15        3.936311      3.936290   1.000000   1.000000
   16        4.135187      4.135172   1.000000   1.000000
   17        4.709313      4.709303   1.000000   1.000000
   18        5.217973      5.217949   1.000000   1.000000
   19       11.536021     11.536027   0.000000   0.000000
   20       12.205255     12.205265   0.000000   0.000000
   21       13.263849     13.263858   0.000000   0.000000
   22       13.635192     13.635194   0.000000   0.000000
   23       14.252881     14.252874   0.000000   0.000000
   24       15.324520     15.324543   0.000000   0.000000
   25       15.969886     15.969889   0.000000   0.000000
   26       16.474204     16.474204   0.000000   0.000000
   27       16.925857     16.925887   0.000000   0.000000
   28       17.330624     17.330636   0.000000   0.000000
   29       17.847633     17.847625   0.000000   0.000000
   30       18.445440     18.445459   0.000000   0.000000
   31       18.989895     18.990019   0.000000   0.000000
   32       20.016180     20.017779   0.000000   0.000000
 
 -0.2500000E+00  0.1250000E+00 -0.4169944E-16  0.6250000E-02
    1      -37.684076    -37.683786   1.000000   1.000000
    2      -37.658517    -37.658226   1.000000   1.000000
    3      -13.516557    -13.516575   1.000000   1.000000
    4      -10.051216    -10.051241   1.000000   1.000000
    5       -9.145583     -9.145610   1.000000   1.000000
    6       -8.910572     -8.910600   1.000000   1.000000
    7       -5.720835     -5.720854   1.000000   1.000000
    8       -2.283120     -2.283135   1.000000   1.000000
    9       -1.624924     -1.624942   1.000000   1.000000
   10       -0.803425     -0.803445   1.000000   1.000000
   11        1.133947      1.133930   1.000000   1.000000
   12        2.938393      2.938375   1.000000   1.000000
   13        3.012583      3.012565   1.000000   1.000000
   14        3.414447      3.414447   1.000000   1.000000
   15        4.034632      4.034608   1.000000   1.000000
   16        4.204456      4.204435   1.000000   1.000000
   17        4.540609      4.540601   1.000000   1.000000
   18        4.848388      4.848373   1.000000   1.000000
   19       10.468655     10.468671   0.000000   0.000000
   20       12.918158     12.918176   0.000000   0.000000
   21       13.449847     13.449847   0.000000   0.000000
   22       13.793539     13.793542   0.000000   0.000000
   23       14.307841     14.307839   0.000000   0.000000
   24       14.897064     14.897069   0.000000   0.000000
   25       16.153043     16.153048   0.000000   0.000000
   26       16.549150     16.549152   0.000000   0.000000
   27       17.462312     17.462315   0.000000   0.000000
   28       17.696597     17.696597   0.000000   0.000000
   29       17.941399     17.941422   0.000000   0.000000
   30       18.070871     18.070902   0.000000   0.000000
   31       19.123924     19.123968   0.000000   0.000000
   32       20.245622     20.257521   0.000000   0.000000
 
 -0.1250000E+00  0.1250000E+00  0.3651973E-17  0.3125000E-02
    1      -37.686150    -37.685860   1.000000   1.000000
    2      -37.656646    -37.656355   1.000000   1.000000
    3      -13.704381    -13.704399   1.000000   1.000000
    4       -9.497159     -9.497185   1.000000   1.000000
    5       -9.089283     -9.089310   1.000000   1.000000
    6       -8.832069     -8.832097   1.000000   1.000000
    7       -6.275987     -6.276006   1.000000   1.000000
    8       -2.148984     -2.149000   1.000000   1.000000
    9       -1.775271     -1.775289   1.000000   1.000000
   10       -0.997498     -0.997517   1.000000   1.000000
   11        1.270650      1.270629   1.000000   1.000000
   12        2.877661      2.877661   1.000000   1.000000
   13        2.882512      2.882496   1.000000   1.000000
   14        3.823364      3.823348   1.000000   1.000000
   15        4.049783      4.049763   1.000000   1.000000
   16        4.356397      4.356375   1.000000   1.000000
   17        4.444662      4.444650   1.000000   1.000000
   18        4.586894      4.586882   1.000000   1.000000
   19        9.757192      9.757212   0.000000   0.000000
   20       12.881509     12.881537   0.000000   0.000000
   21       13.997116     13.997118   0.000000   0.000000
   22       14.237377     14.237370   0.000000   0.000000
   23       14.451577     14.451566   0.000000   0.000000
   24       14.632966     14.632976   0.000000   0.000000
   25       16.216525     16.216531   0.000000   0.000000
   26       16.515546     16.515555   0.000000   0.000000
   27       16.884403     16.884419   0.000000   0.000000
   28       17.204104     17.204124   0.000000   0.000000
   29       18.375592     18.375579   0.000000   0.000000
   30       18.732761     18.732807   0.000000   0.000000
   31       19.409003     19.409036   0.000000   0.000000
   32       20.331992     20.365048   0.000000   0.000000
 
  0.2500000E+00  0.2500000E+00  0.6191353E-16  0.6250000E-02
    1      -37.679204    -37.678913   1.000000   1.000000
    2      -37.663250    -37.662959   1.000000   1.000000
    3      -13.040466    -13.040486   1.000000   1.000000
    4      -11.009917    -11.009940   1.000000   1.000000
    5       -9.271510     -9.271535   1.000000   1.000000
    6       -9.075660     -9.075687   1.000000   1.000000
    7       -4.713100     -4.713121   1.000000   1.000000
    8       -2.314015     -2.314033   1.000000   1.000000
    9       -1.171848     -1.171865   1.000000   1.000000
   10       -0.857327     -0.857348   1.000000   1.000000
   11        1.632493      1.632477   1.000000   1.000000
   12        1.732354      1.732349   1.000000   1.000000
   13        2.629094      2.629079   1.000000   1.000000
   14        3.533615      3.533600   1.000000   1.000000
   15        3.888659      3.888639   1.000000   1.000000
   16        4.417568      4.417548   1.000000   1.000000
   17        4.871184      4.871163   1.000000   1.000000
   18        5.109715      5.109696   1.000000   1.000000
   19       11.824816     11.824823   0.000000   0.000000
   20       12.263180     12.263192   0.000000   0.000000
   21       12.414379     12.414382   0.000000   0.000000
   22       13.578284     13.578278   0.000000   0.000000
   23       14.786688     14.786700   0.000000   0.000000
   24       15.017146     15.017164   0.000000   0.000000
   25       15.864862     15.864870   0.000000   0.000000
   26       16.942514     16.942536   0.000000   0.000000
   27       17.005366     17.005368   0.000000   0.000000
   28       17.133528     17.133532   0.000000   0.000000
   29       17.861075     17.861071   0.000000   0.000000
   30       18.076809     18.076840   0.000000   0.000000
   31       19.100210     19.100220   0.000000   0.000000
   32       19.722240     19.731367   0.000000   0.000000
 
  0.3750000E+00  0.2500000E+00  0.7585739E-16  0.6250000E-02
    1      -37.676484    -37.676193   1.000000   1.000000
    2      -37.665901    -37.665610   1.000000   1.000000
    3      -12.738760    -12.738781   1.000000   1.000000
    4      -11.440095    -11.440117   1.000000   1.000000
    5       -9.299126     -9.299150   1.000000   1.000000
    6       -9.134905     -9.134932   1.000000   1.000000
    7       -4.363921     -4.363941   1.000000   1.000000
    8       -2.567125     -2.567146   1.000000   1.000000
    9       -1.002482     -1.002499   1.000000   1.000000
   10       -0.795041     -0.795060   1.000000   1.000000
   11        1.353556      1.353552   1.000000   1.000000
   12        1.927060      1.927044   1.000000   1.000000
   13        2.441495      2.441483   1.000000   1.000000
   14        3.518896      3.518876   1.000000   1.000000
   15        4.143803      4.143784   1.000000   1.000000
   16        4.483300      4.483281   1.000000   1.000000
   17        4.866794      4.866775   1.000000   1.000000
   18        5.225405      5.225381   1.000000   1.000000
   19       11.731766     11.731769   0.000000   0.000000
   20       12.544708     12.544712   0.000000   0.000000
   21       12.934873     12.934879   0.000000   0.000000
   22       13.228722     13.228717   0.000000   0.000000
   23       14.867360     14.867364   0.000000   0.000000
   24       15.261451     15.261482   0.000000   0.000000
   25       15.698939     15.698950   0.000000   0.000000
   26       16.232747     16.232773   0.000000   0.000000
   27       16.500651     16.500663   0.000000   0.000000
   28       17.100882     17.100884   0.000000   0.000000
   29       17.615361     17.615376   0.000000   0.000000
   30       18.168212     18.168229   0.000000   0.000000
   31       19.140868     19.140857   0.000000   0.000000
   32       19.857152     19.860282   0.000000   0.000000
 
  0.5000000E+00  0.2500000E+00  0.4042819E-16  0.1250000E-01
    1      -37.676819    -37.676529   1.000000   1.000000
    2      -37.665528    -37.665238   1.000000   1.000000
    3      -12.773597    -12.773618   1.000000   1.000000
    4      -11.377826    -11.377848   1.000000   1.000000
    5       -9.280204     -9.280229   1.000000   1.000000
    6       -9.136696     -9.136722   1.000000   1.000000
    7       -4.431178     -4.431198   1.000000   1.000000
    8       -2.764613     -2.764632   1.000000   1.000000
    9       -1.030736     -1.030754   1.000000   1.000000
   10       -0.603476     -0.603495   1.000000   1.000000
   11        1.221849      1.221840   1.000000   1.000000
   12        1.933778      1.933768   1.000000   1.000000
   13        2.739172      2.739156   1.000000   1.000000
   14        3.460553      3.460531   1.000000   1.000000
   15        4.214009      4.213991   1.000000   1.000000
   16        4.421281      4.421261   1.000000   1.000000
   17        4.850527      4.850512   1.000000   1.000000
   18        5.229734      5.229709   1.000000   1.000000
   19       11.788947     11.788949   0.000000   0.000000
   20       12.348620     12.348625   0.000000   0.000000
   21       13.272947     13.272946   0.000000   0.000000
   22       13.573673     13.573670   0.000000   0.000000
   23       14.592882     14.592890   0.000000   0.000000
   24       15.130944     15.130984   0.000000   0.000000
   25       15.505214     15.505231   0.000000   0.000000
   26       15.961059     15.961058   0.000000   0.000000
   27       16.595492     16.595533   0.000000   0.000000
   28       16.998559     16.998567   0.000000   0.000000
   29       17.830329     17.830293   0.000000   0.000000
   30       18.536405     18.536354   0.000000   0.000000
   31       19.090871     19.091130   0.000000   0.000000
   32       19.931844     19.924699   0.000000   0.000000
 
 -0.3750000E+00  0.2500000E+00  0.1768156E-16  0.6250000E-02
    1      -37.679744    -37.679453   1.000000   1.000000
    2      -37.662660    -37.662369   1.000000   1.000000
    3      -13.089332    -13.089352   1.000000   1.000000
    4      -10.882524    -10.882547   1.000000   1.000000
    5       -9.238841     -9.238866   1.000000   1.000000
    6       -9.075420     -9.075447   1.000000   1.000000
    7       -4.879596     -4.879616   1.000000   1.000000
    8       -2.761550     -2.761565   1.000000   1.000000
    9       -1.175445     -1.175464   1.000000   1.000000
   10       -0.495218     -0.495239   1.000000   1.000000
   11        0.988432      0.988422   1.000000   1.000000
   12        2.380778      2.380766   1.000000   1.000000
   13        3.138783      3.138765   1.000000   1.000000
   14        3.383558      3.383540   1.000000   1.000000
   15        4.060904      4.060885   1.000000   1.000000
   16        4.205515      4.205498   1.000000   1.000000