       N       E                     dE             d eps       ncg     rms          rms(c)
DAV:   1     0.192200826195E+03    0.19220E+03   -0.17238E+04 21632   0.113E+03
DAV:   2    -0.423967215563E+02   -0.23460E+03   -0.22460E+03 25664   0.290E+02
DAV:   3    -0.593603582732E+02   -0.16964E+02   -0.16811E+02 34576   0.676E+01
DAV:   4    -0.603566708460E+02   -0.99631E+00   -0.99090E+00 31520   0.132E+01
DAV:   5    -0.603781557095E+02   -0.21485E-01   -0.21484E-01 30968   0.191E+00    0.296E+01
RMM:   6    -0.540171309532E+02    0.63610E+01   -0.14268E+01 22620   0.162E+01    0.126E+01
RMM:   7    -0.541598033584E+02   -0.14267E+00   -0.30097E+00 30625   0.849E+00    0.641E+00
RMM:   8    -0.542399083722E+02   -0.80105E-01   -0.29256E-01 32696   0.335E+00    0.348E+00
RMM:   9    -0.542528869414E+02   -0.12979E-01   -0.10820E-01 34050   0.200E+00    0.803E-01
RMM:  10    -0.542587485386E+02   -0.58616E-02   -0.52486E-02 37601   0.115E+00    0.266E-01
RMM:  11    -0.542608416930E+02   -0.20932E-02   -0.22123E-02 38162   0.650E-01    0.208E-01
RMM:  12    -0.542622894243E+02   -0.14477E-02   -0.96276E-03 40251   0.414E-01    0.130E-01
RMM:  13    -0.542627210041E+02   -0.43158E-03   -0.31008E-03 38347   0.252E-01    0.435E-02
RMM:  14    -0.542629259798E+02   -0.20498E-03   -0.15316E-03 39511   0.168E-01    0.222E-02
RMM:  15    -0.542630150092E+02   -0.89029E-04   -0.62351E-04 38409   0.106E-01    0.202E-02
RMM:  16    -0.542630419755E+02   -0.26966E-04   -0.26632E-04 36210   0.741E-02    0.139E-02
RMM:  17    -0.542630665747E+02   -0.24599E-04   -0.13818E-04 34612   0.542E-02    0.330E-03
RMM:  18    -0.542630732527E+02   -0.66780E-05   -0.48239E-05 27621   0.358E-02
   1 F= -.54263073E+02 E0= -.54263073E+02  d E =0.000000E+00  mag=    -0.0000
