 running on   48 total cores
 distrk:  each k-point on   48 cores,    1 groups
 distr:  one band on    6 cores,    8 groups
 using from now: INCAR     
 vasp.6.1.2 22Jul20 (build Mar 31 2021 18:09:49) complex                        
  
 POSCAR found type information on POSCAR LiP 
 POSCAR found :  2 types and      64 ions
 scaLAPACK will be used
 LDA part: xc-table for Pade appr. of Perdew
 -----------------------------------------------------------------------------
|                                                                             |
|           W    W    AA    RRRRR   N    N  II  N    N   GGGG   !!!           |
|           W    W   A  A   R    R  NN   N  II  NN   N  G    G  !!!           |
|           W    W  A    A  R    R  N N  N  II  N N  N  G       !!!           |
|           W WW W  AAAAAA  RRRRR   N  N N  II  N  N N  G  GGG   !            |
|           WW  WW  A    A  R   R   N   NN  II  N   NN  G    G                |
|           W    W  A    A  R    R  N    N  II  N    N   GGGG   !!!           |
|                                                                             |
|     The determination of the symmetry of your systems shows a strong        |
|     dependence on the tolerance parameter SYMPREC. This is often the        |
|     result of "noise" in the structural parameters (lattice vectors         |
|     and/or ionic positions). Set NWRITE=3 for more details.                 |
|                                                                             |
 -----------------------------------------------------------------------------

 generate k-points for:    3    3    3
 POSCAR, INCAR and KPOINTS ok, starting setup
 FFT: planning ...
 WAVECAR not read
 entering main loop
       N       E                     dE             d eps       ncg     rms          rms(c)
DAV:   1     0.157316123488E+04    0.15732E+04   -0.12026E+05  8456   0.128E+03
DAV:   2    -0.123636889871E+03   -0.16968E+04   -0.15901E+04  9912   0.246E+02
DAV:   3    -0.307225223102E+03   -0.18359E+03   -0.18067E+03 10568   0.835E+01
DAV:   4    -0.321251368395E+03   -0.14026E+02   -0.13958E+02 13712   0.202E+01
DAV:   5    -0.324279536146E+03   -0.30282E+01   -0.30260E+01 14784   0.566E+00    0.423E+01
DAV:   6    -0.324101147216E+03    0.17839E+00   -0.11497E+01 10128   0.616E+00    0.243E+01
DAV:   7    -0.326246818274E+03   -0.21457E+01   -0.54672E+00 10056   0.413E+00    0.138E+01
DAV:   8    -0.327362784300E+03   -0.11160E+01   -0.20044E+00  9512   0.284E+00    0.286E+00
DAV:   9    -0.327433434588E+03   -0.70650E-01   -0.26163E-01 10936   0.109E+00    0.158E+00
DAV:  10    -0.327447323888E+03   -0.13889E-01   -0.63940E-02 10504   0.494E-01    0.620E-01
DAV:  11    -0.327453951759E+03   -0.66279E-02   -0.10181E-02 10016   0.251E-01    0.228E-01
DAV:  12    -0.327456319363E+03   -0.23676E-02   -0.27947E-03 10944   0.116E-01    0.119E-01
DAV:  13    -0.327457377752E+03   -0.10584E-02   -0.73093E-04 10464   0.563E-02    0.554E-02
DAV:  14    -0.327457884227E+03   -0.50648E-03   -0.42817E-04  9584   0.390E-02    0.327E-02
DAV:  15    -0.327457998904E+03   -0.11468E-03   -0.11572E-04  9704   0.208E-02    0.183E-02
DAV:  16    -0.327458030287E+03   -0.31383E-04   -0.28684E-05  7824   0.119E-02    0.866E-03
DAV:  17    -0.327458038574E+03   -0.82866E-05   -0.90657E-06  6952   0.718E-03
   1 F= -.32745804E+03 E0= -.32745804E+03  d E =0.000000E+00  mag=     0.0004
