   26   26    1    2
  0.1087445E+02  0.5162587E-09  0.7095489E-09  0.8506735E-09  0.5000000E-15
  1.000000000000000E-004
  CAR 
 unknown system                          
    128     71     88
 
  0.0000000E+00  0.0000000E+00  0.0000000E+00  0.7142857E-02
    1      -41.502004    -41.502064   1.000000   1.000000
    2      -41.501194    -41.501255   1.000000   1.000000
    3      -41.337762    -41.337836   1.000000   1.000000
    4      -41.336283    -41.336357   1.000000   1.000000
    5      -41.295907    -41.295993   1.000000   1.000000
    6      -41.280601    -41.280689   1.000000   1.000000
    7      -41.241985    -41.242047   1.000000   1.000000
    8      -41.241919    -41.241981   1.000000   1.000000
    9      -20.055043    -20.055037   1.000000   1.000000
   10      -19.990338    -19.990333   1.000000   1.000000
   11      -18.751621    -18.751618   1.000000   1.000000
   12      -18.716548    -18.716544   1.000000   1.000000
   13      -17.418331    -17.418333   1.000000   1.000000
   14      -17.342643    -17.342646   1.000000   1.000000
   15      -16.791259    -16.791266   1.000000   1.000000
   16      -16.756879    -16.756887   1.000000   1.000000
   17      -16.583703    -16.583712   1.000000   1.000000
   18      -16.572618    -16.572627   1.000000   1.000000
   19      -16.516252    -16.516263   1.000000   1.000000
   20      -16.499006    -16.499017   1.000000   1.000000
   21      -16.446813    -16.446822   1.000000   1.000000
   22      -16.443083    -16.443093   1.000000   1.000000
   23       -8.399675     -8.399665   1.000000   1.000000
   24       -8.371653     -8.371642   1.000000   1.000000
   25       -5.775911     -5.775858   1.000000   1.000000
   26       -5.331194     -5.331160   1.000000   1.000000
   27       -4.838446     -4.838409   1.000000   1.000000
   28       -4.702191     -4.702164   1.000000   1.000000
   29       -4.425409     -4.425384   1.000000   1.000000
   30       -4.227296     -4.227272   1.000000   1.000000
   31       -4.093453     -4.093435   1.000000   1.000000
   32       -4.081197     -4.081182   1.000000   1.000000
   33       -3.645897     -3.645871   1.000000   1.000000
   34       -3.568649     -3.568619   1.000000   1.000000
   35       -3.507255     -3.507231   1.000000   1.000000
   36       -3.341700     -3.341679   1.000000   1.000000
   37       -2.971234     -2.971209   1.000000   1.000000
   38       -2.669215     -2.669196   1.000000   1.000000
   39       -2.284793     -2.284785   1.000000   1.000000
   40       -2.004528     -2.004526   1.000000   1.000000
   41       -1.999774     -1.999775   1.000000   1.000000
   42       -1.699269     -1.699258   1.000000   1.000000
   43       -1.658703     -1.658682   1.000000   1.000000
   44       -1.467087     -1.467079   1.000000   1.000000
   45       -1.341922     -1.341921   1.000000   1.000000
   46       -1.274460     -1.274460   1.000000   1.000000
   47       -1.220285     -1.220283   1.000000   1.000000
   48       -1.004139     -1.004137   1.000000   1.000000
   49       -0.868098     -0.868096   1.000000   1.000000
   50       -0.834301     -0.834297   1.000000   1.000000
   51       -0.793618     -0.793619   1.000000   1.000000
   52       -0.514559     -0.514560   1.000000   1.000000
   53       -0.396057     -0.396059   1.000000   1.000000
   54       -0.154524     -0.154520   1.000000   1.000000
   55       -0.036341     -0.036350   1.000000   1.000000
   56       -0.034167     -0.034176   1.000000   1.000000
   57        0.123235      0.123228   1.000000   1.000000
   58        0.182834      0.182861   1.000000   1.000000
   59        0.199627      0.199637   1.000000   1.000000
   60        0.329058      0.329064   1.000000   1.000000
   61        0.402183      0.402186   1.000000   1.000000
   62        0.469677      0.469669   1.000000   1.000000
   63        0.695666      0.695658   1.000000   1.000000
   64        0.712117      0.712115   1.000000   1.000000
   65        6.677733      6.677771   0.000002   0.000002
   66        9.015962      9.015968   0.000000   0.000000
   67        9.021506      9.021500   0.000000   0.000000
   68        9.329707      9.329738   0.000000   0.000000
   69        9.426574      9.426579   0.000000   0.000000
   70        9.564868      9.564901   0.000000   0.000000
   71        9.826823      9.826860   0.000000   0.000000
   72        9.943285      9.943297   0.000000   0.000000
   73       10.250085     10.250103   0.000000   0.000000
   74       10.369404     10.369423   0.000000   0.000000
   75       10.541566     10.541597   0.000000   0.000000
   76       10.842063     10.842113   0.000000   0.000000
   77       11.019199     11.019206   0.000000   0.000000
   78       11.035070     11.035096   0.000000   0.000000
   79       11.418408     11.418454   0.000000   0.000000
   80       11.457878     11.457909   0.000000   0.000000
   81       11.618645     11.618662   0.000000   0.000000
   82       11.699289     11.699304   0.000000   0.000000
   83       11.956262     11.956275   0.000000   0.000000
   84       12.079286     12.079308   0.000000   0.000000
   85       12.092367     12.092389   0.000000   0.000000
   86       12.389467     12.389278   0.000000   0.000000
   87       12.653098     12.653400   0.000000   0.000000
   88       12.679801     12.675355   0.000000   0.000000
 
  0.1428571E+00  0.1182963E-16  0.4912693E-14  0.1428571E-01
    1      -41.501987    -41.502048   1.000000   1.000000
    2      -41.501191    -41.501251   1.000000   1.000000
    3      -41.337680    -41.337754   1.000000   1.000000
    4      -41.336243    -41.336316   1.000000   1.000000
    5      -41.295878    -41.295964   1.000000   1.000000
    6      -41.280697    -41.280784   1.000000   1.000000
    7      -41.242025    -41.242087   1.000000   1.000000
    8      -41.241921    -41.241983   1.000000   1.000000
    9      -20.049529    -20.049524   1.000000   1.000000
   10      -19.990910    -19.990905   1.000000   1.000000
   11      -18.750015    -18.750012   1.000000   1.000000
   12      -18.718240    -18.718236   1.000000   1.000000
   13      -17.411629    -17.411631   1.000000   1.000000
   14      -17.343754    -17.343757   1.000000   1.000000
   15      -16.788517    -16.788524   1.000000   1.000000
   16      -16.756446    -16.756454   1.000000   1.000000
   17      -16.591969    -16.591978   1.000000   1.000000
   18      -16.579048    -16.579057   1.000000   1.000000
   19      -16.518677    -16.518687   1.000000   1.000000
   20      -16.502042    -16.502053   1.000000   1.000000
   21      -16.451247    -16.451256   1.000000   1.000000
   22      -16.446441    -16.446451   1.000000   1.000000
   23       -8.406829     -8.406818   1.000000   1.000000
   24       -8.376952     -8.376941   1.000000   1.000000
   25       -5.756617     -5.756566   1.000000   1.000000
   26       -5.330748     -5.330715   1.000000   1.000000
   27       -4.828790     -4.828755   1.000000   1.000000
   28       -4.688796     -4.688770   1.000000   1.000000
   29       -4.405350     -4.405324   1.000000   1.000000
   30       -4.220056     -4.220032   1.000000   1.000000
   31       -4.081753     -4.081737   1.000000   1.000000
   32       -4.037136     -4.037118   1.000000   1.000000
   33       -3.594787     -3.594758   1.000000   1.000000
   34       -3.566313     -3.566281   1.000000   1.000000
   35       -3.452744     -3.452721   1.000000   1.000000
   36       -3.315853     -3.315831   1.000000   1.000000
   37       -2.965211     -2.965185   1.000000   1.000000
   38       -2.627035     -2.627016   1.000000   1.000000
   39       -2.251485     -2.251477   1.000000   1.000000
   40       -2.048852     -2.048849   1.000000   1.000000
   41       -1.978598     -1.978597   1.000000   1.000000
   42       -1.762849     -1.762836   1.000000   1.000000
   43       -1.673923     -1.673906   1.000000   1.000000
   44       -1.445292     -1.445285   1.000000   1.000000
   45       -1.380149     -1.380144   1.000000   1.000000
   46       -1.247764     -1.247765   1.000000   1.000000
   47       -1.211179     -1.211176   1.000000   1.000000
   48       -1.027000     -1.026998   1.000000   1.000000
   49       -0.945589     -0.945586   1.000000   1.000000
   50       -0.906727     -0.906725   1.000000   1.000000
   51       -0.854403     -0.854399   1.000000   1.000000
   52       -0.556042     -0.556043   1.000000   1.000000
   53       -0.368842     -0.368843   1.000000   1.000000
   54       -0.174551     -0.174547   1.000000   1.000000
   55       -0.065303     -0.065314   1.000000   1.000000
   56       -0.038210     -0.038217   1.000000   1.000000
   57        0.087205      0.087199   1.000000   1.000000
   58        0.140680      0.140697   1.000000   1.000000
   59        0.236650      0.236659   1.000000   1.000000
   60        0.324361      0.324365   1.000000   1.000000
   61        0.419221      0.419226   1.000000   1.000000
   62        0.475239      0.475230   1.000000   1.000000
   63        0.688019      0.688011   1.000000   1.000000
   64        0.724156      0.724153   1.000000   1.000000
   65        6.878144      6.878179  -0.000000  -0.000000
   66        8.888758      8.888761   0.000000   0.000000
   67        9.034312      9.034309   0.000000   0.000000
   68        9.301211      9.301238   0.000000   0.000000
   69        9.364117      9.364130   0.000000   0.000000
   70        9.617525      9.617551   0.000000   0.000000
   71        9.782510      9.782531   0.000000   0.000000
   72       10.141480     10.141504   0.000000   0.000000
   73       10.234778     10.234798   0.000000   0.000000
   74       10.460174     10.460193   0.000000   0.000000
   75       10.574284     10.574313   0.000000   0.000000
   76       10.754361     10.754395   0.000000   0.000000
   77       10.885075     10.885101   0.000000   0.000000
   78       11.071317     11.071332   0.000000   0.000000
   79       11.129759     11.129774   0.000000   0.000000
   80       11.361388     11.361419   0.000000   0.000000
   81       11.511921     11.511941   0.000000   0.000000
   82       11.532029     11.532058   0.000000   0.000000
   83       11.715635     11.715665   0.000000   0.000000
   84       12.057226     12.057254   0.000000   0.000000
   85       12.229592     12.229623   0.000000   0.000000
   86       12.376554     12.376591   0.000000   0.000000
   87       12.524495     12.524442   0.000000   0.000000
   88       12.871361     12.874719   0.000000   0.000000
 
  0.2857143E+00  0.1943325E-16 -0.4362459E-14  0.1428571E-01
    1      -41.501941    -41.502001   1.000000   1.000000
    2      -41.501172    -41.501232   1.000000   1.000000
    3      -41.337501    -41.337575   1.000000   1.000000
    4      -41.336128    -41.336202   1.000000   1.000000
    5      -41.295788    -41.295875   1.000000   1.000000
    6      -41.280919    -41.281007   1.000000   1.000000
    7      -41.242087    -41.242149   1.000000   1.000000
    8      -41.241933    -41.241995   1.000000   1.000000
    9      -20.035490    -20.035485   1.000000   1.000000
   10      -19.993738    -19.993734   1.000000   1.000000
   11      -18.746080    -18.746077   1.000000   1.000000
   12      -18.722375    -18.722371   1.000000   1.000000
   13      -17.394599    -17.394601   1.000000   1.000000
   14      -17.348015    -17.348018   1.000000   1.000000
   15      -16.781497    -16.781504   1.000000   1.000000
   16      -16.755665    -16.755672   1.000000   1.000000
   17      -16.610153    -16.610161   1.000000   1.000000
   18      -16.594966    -16.594975   1.000000   1.000000
   19      -16.523313    -16.523323   1.000000   1.000000
   20      -16.509624    -16.509635   1.000000   1.000000
   21      -16.460596    -16.460606   1.000000   1.000000
   22      -16.454239    -16.454248   1.000000   1.000000
   23       -8.421969     -8.421959   1.000000   1.000000
   24       -8.389933     -8.389922   1.000000   1.000000
   25       -5.712223     -5.712179   1.000000   1.000000
   26       -5.332056     -5.332023   1.000000   1.000000
   27       -4.797876     -4.797847   1.000000   1.000000
   28       -4.670593     -4.670568   1.000000   1.000000
   29       -4.364161     -4.364133   1.000000   1.000000
   30       -4.208293     -4.208268   1.000000   1.000000
   31       -4.013307     -4.013292   1.000000   1.000000
   32       -3.956341     -3.956321   1.000000   1.000000
   33       -3.613643     -3.613605   1.000000   1.000000
   34       -3.417447     -3.417419   1.000000   1.000000
   35       -3.326171     -3.326143   1.000000   1.000000
   36       -3.233678     -3.233655   1.000000   1.000000
   37       -2.939731     -2.939701   1.000000   1.000000
   38       -2.545645     -2.545628   1.000000   1.000000
   39       -2.203413     -2.203407   1.000000   1.000000
   40       -2.064327     -2.064319   1.000000   1.000000
   41       -1.986714     -1.986709   1.000000   1.000000
   42       -1.839838     -1.839825   1.000000   1.000000
   43       -1.694028     -1.694015   1.000000   1.000000
   44       -1.502635     -1.502627   1.000000   1.000000
   45       -1.405241     -1.405233   1.000000   1.000000
   46       -1.290755     -1.290751   1.000000   1.000000
   47       -1.284082     -1.284079   1.000000   1.000000
   48       -1.137317     -1.137313   1.000000   1.000000
   49       -1.050883     -1.050875   1.000000   1.000000
   50       -1.006387     -1.006384   1.000000   1.000000
   51       -0.926472     -0.926467   1.000000   1.000000
   52       -0.649625     -0.649626   1.000000   1.000000
   53       -0.326784     -0.326783   1.000000   1.000000
   54       -0.220426     -0.220424   1.000000   1.000000
   55       -0.136608     -0.136619   1.000000   1.000000
   56       -0.064600     -0.064608   1.000000   1.000000
   57        0.038711      0.038708   1.000000   1.000000
   58        0.098324      0.098331   1.000000   1.000000
   59        0.251450      0.251453   1.000000   1.000000
   60        0.309303      0.309304   1.000000   1.000000
   61        0.465636      0.465635   1.000000   1.000000
   62        0.488623      0.488614   1.000000   1.000000
   63        0.689586      0.689578   1.000000   1.000000
   64        0.735740      0.735735   1.000000   1.000000
   65        7.390235      7.390261   0.000000   0.000000
   66        8.788697      8.788701   0.000000   0.000000
   67        9.001289      9.001289   0.000000   0.000000
   68        9.183695      9.183708   0.000000   0.000000
   69        9.420386      9.420398   0.000000   0.000000
   70        9.613812      9.613829   0.000000   0.000000
   71        9.904059      9.904069   0.000000   0.000000
   72       10.074049     10.074080   0.000000   0.000000
   73       10.178446     10.178478   0.000000   0.000000
   74       10.342967     10.342965   0.000000   0.000000
   75       10.482937     10.482965   0.000000   0.000000
   76       10.641729     10.641749   0.000000   0.000000
   77       10.726514     10.726538   0.000000   0.000000
   78       10.926630     10.926641   0.000000   0.000000
   79       11.003976     11.004010   0.000000   0.000000
   80       11.206666     11.206707   0.000000   0.000000
   81       11.300601     11.300620   0.000000   0.000000
   82       11.369971     11.369999   0.000000   0.000000
   83       11.650044     11.650090   0.000000   0.000000
   84       11.935287     11.935311   0.000000   0.000000
   85       12.189910     12.189940   0.000000   0.000000
   86       12.419818     12.419866   0.000000   0.000000
   87       12.728662     12.728715   0.000000   0.000000
   88       12.995327     12.995053   0.000000   0.000000
 
  0.4285714E+00  0.1095016E-15  0.5328869E-15  0.1428571E-01
    1      -41.501904    -41.501964   1.000000   1.000000
    2      -41.501162    -41.501223   1.000000   1.000000
    3      -41.337366    -41.337440   1.000000   1.000000
    4      -41.336029    -41.336103   1.000000   1.000000
    5      -41.295706    -41.295793   1.000000   1.000000
    6      -41.281125    -41.281213   1.000000   1.000000
    7      -41.242138    -41.242200   1.000000   1.000000
    8      -41.241949    -41.242011   1.000000   1.000000
    9      -20.019925    -20.019920   1.000000   1.000000
   10      -20.000308    -20.000303   1.000000   1.000000
   11      -18.742227    -18.742224   1.000000   1.000000
   12      -18.726408    -18.726404   1.000000   1.000000
   13      -17.374528    -17.374531   1.000000   1.000000
   14      -17.357587    -17.357591   1.000000   1.000000
   15      -16.774680    -16.774687   1.000000   1.000000
   16      -16.755285    -16.755293   1.000000   1.000000
   17      -16.624790    -16.624797   1.000000   1.000000
   18      -16.609088    -16.609096   1.000000   1.000000
   19      -16.524685    -16.524696   1.000000   1.000000
   20      -16.518212    -16.518222   1.000000   1.000000
   21      -16.468886    -16.468895   1.000000   1.000000
   22      -16.459310    -16.459318   1.000000   1.000000
   23       -8.433406     -8.433395   1.000000   1.000000
   24       -8.401235     -8.401224   1.000000   1.000000
   25       -5.674038     -5.674001   1.000000   1.000000
   26       -5.337911     -5.337877   1.000000   1.000000
   27       -4.762938     -4.762913   1.000000   1.000000
   28       -4.667929     -4.667905   1.000000   1.000000
   29       -4.335175     -4.335147   1.000000   1.000000
   30       -4.203373     -4.203347   1.000000   1.000000
   31       -3.920618     -3.920603   1.000000   1.000000
   32       -3.889187     -3.889165   1.000000   1.000000
   33       -3.651992     -3.651952   1.000000   1.000000
   34       -3.300814     -3.300785   1.000000   1.000000
   35       -3.220109     -3.220078   1.000000   1.000000
   36       -3.110805     -3.110783   1.000000   1.000000
   37       -2.903498     -2.903466   1.000000   1.000000
   38       -2.497978     -2.497962   1.000000   1.000000
   39       -2.204439     -2.204429   1.000000   1.000000
   40       -2.010671     -2.010666   1.000000   1.000000
   41       -1.963837     -1.963822   1.000000   1.000000
   42       -1.905314     -1.905301   1.000000   1.000000
   43       -1.713825     -1.713818   1.000000   1.000000
   44       -1.600039     -1.600029   1.000000   1.000000
   45       -1.507138     -1.507127   1.000000   1.000000
   46       -1.452940     -1.452930   1.000000   1.000000
   47       -1.352183     -1.352178   1.000000   1.000000
   48       -1.197127     -1.197120   1.000000   1.000000
   49       -1.079630     -1.079617   1.000000   1.000000
   50       -1.037611     -1.037603   1.000000   1.000000
   51       -0.909944     -0.909945   1.000000   1.000000
   52       -0.759424     -0.759425   1.000000   1.000000
   53       -0.317093     -0.317089   1.000000   1.000000
   54       -0.247282     -0.247287   1.000000   1.000000
   55       -0.194259     -0.194268   1.000000   1.000000
   56       -0.094789     -0.094797   1.000000   1.000000
   57        0.027966      0.027963   1.000000   1.000000
   58        0.057818      0.057819   1.000000   1.000000
   59        0.247871      0.247874   1.000000   1.000000
   60        0.314600      0.314595   1.000000   1.000000
   61        0.487567      0.487556   1.000000   1.000000
   62        0.499707      0.499701   1.000000   1.000000
   63        0.710776      0.710769   1.000000   1.000000
   64        0.732778      0.732771   1.000000   1.000000
   65        7.955945      7.955958   0.000000   0.000000
   66        8.719172      8.719192   0.000000   0.000000
   67        9.064930      9.064929   0.000000   0.000000
   68        9.243956      9.243954   0.000000   0.000000
   69        9.394554      9.394561   0.000000   0.000000
   70        9.566462      9.566466   0.000000   0.000000
   71        9.703305      9.703310   0.000000   0.000000
   72        9.940816      9.940823   0.000000   0.000000
   73        9.987925      9.987945   0.000000   0.000000
   74       10.123839     10.123880   0.000000   0.000000
   75       10.288707     10.288739   0.000000   0.000000
   76       10.402000     10.402025   0.000000   0.000000
   77       10.773194     10.773211   0.000000   0.000000
   78       10.987539     10.987553   0.000000   0.000000
   79       11.037206     11.037243   0.000000   0.000000
   80       11.134223     11.134256   0.000000   0.000000
   81       11.260169     11.260213   0.000000   0.000000
   82       11.417733     11.417750   0.000000   0.000000
   83       11.622239     11.622288   0.000000   0.000000
   84       11.848151     11.848168   0.000000   0.000000
   85       12.159914     12.159944   0.000000   0.000000
   86       12.510386     12.510463   0.000000   0.000000
   87       12.966058     12.967175   0.000000   0.000000
   88       13.196715     13.196486   0.000000   0.000000
 
  0.6772067E-21  0.2000000E+00  0.6149506E-14  0.1428571E-01
    1      -41.501929    -41.501989   1.000000   1.000000
    2      -41.501261    -41.501321   1.000000   1.000000
    3      -41.337741    -41.337816   1.000000   1.000000
    4      -41.336280    -41.336354   1.000000   1.000000
    5      -41.295900    -41.295987   1.000000   1.000000
    6      -41.280640    -41.280727   1.000000   1.000000
    7      -41.241984    -41.242046   1.000000   1.000000
    8      -41.241890    -41.241952   1.000000   1.000000
    9      -20.045637    -20.045631   1.000000   1.000000
   10      -19.994845    -19.994841   1.000000   1.000000
   11      -18.749671    -18.749666   1.000000   1.000000
   12      -18.735478    -18.735474   1.000000   1.000000
   13      -17.399286    -17.399288   1.000000   1.000000
   14      -17.352064    -17.352067   1.000000   1.000000
   15      -16.798694    -16.798701   1.000000   1.000000
   16      -16.741731    -16.741739   1.000000   1.000000
   17      -16.585223    -16.585232   1.000000   1.000000
   18      -16.575346    -16.575354   1.000000   1.000000
   19      -16.514388    -16.514398   1.000000   1.000000
   20      -16.499680    -16.499691   1.000000   1.000000
   21      -16.447410    -16.447420   1.000000   1.000000
   22      -16.440458    -16.440468   1.000000   1.000000
   23       -8.408694     -8.408681   1.000000   1.000000
   24       -8.393396     -8.393385   1.000000   1.000000
   25       -5.763299     -5.763247   1.000000   1.000000
   26       -5.309480     -5.309448   1.000000   1.000000
   27       -4.840643     -4.840605   1.000000   1.000000
   28       -4.691400     -4.691372   1.000000   1.000000
   29       -4.411456     -4.411431   1.000000   1.000000
   30       -4.194090     -4.194066   1.000000   1.000000
   31       -4.105957     -4.105939   1.000000   1.000000
   32       -4.093531     -4.093514   1.000000   1.000000
   33       -3.654465     -3.654435   1.000000   1.000000
   34       -3.634927     -3.634903   1.000000   1.000000
   35       -3.498918     -3.498896   1.000000   1.000000
   36       -3.302768     -3.302745   1.000000   1.000000
   37       -2.931811     -2.931786   1.000000   1.000000
   38       -2.697023     -2.697004   1.000000   1.000000
   39       -2.154783     -2.154775   1.000000   1.000000
   40       -2.012300     -2.012298   1.000000   1.000000
   41       -2.001778     -2.001776   1.000000   1.000000
   42       -1.872572     -1.872566   1.000000   1.000000
   43       -1.726131     -1.726109   1.000000   1.000000
   44       -1.427218     -1.427214   1.000000   1.000000
   45       -1.346727     -1.346721   1.000000   1.000000
   46       -1.203512     -1.203512   1.000000   1.000000
   47       -1.070470     -1.070466   1.000000   1.000000
   48       -1.036981     -1.036979   1.000000   1.000000
   49       -0.873691     -0.873691   1.000000   1.000000
   50       -0.845853     -0.845850   1.000000   1.000000
   51       -0.815999     -0.816000   1.000000   1.000000
   52       -0.603808     -0.603810   1.000000   1.000000
   53       -0.408367     -0.408367   1.000000   1.000000
   54       -0.161030     -0.161029   1.000000   1.000000
   55       -0.076037     -0.076044   1.000000   1.000000
   56       -0.022975     -0.022981   1.000000   1.000000
   57        0.110095      0.110093   1.000000   1.000000
   58        0.179849      0.179864   1.000000   1.000000
   59        0.237590      0.237605   1.000000   1.000000
   60        0.306304      0.306313   1.000000   1.000000
   61        0.408114      0.408114   1.000000   1.000000
   62        0.490032      0.490025   1.000000   1.000000
   63        0.675346      0.675341   1.000000   1.000000
   64        0.711126      0.711121   1.000000   1.000000
   65        6.913746      6.913780  -0.000000  -0.000000
   66        8.672652      8.672643   0.000000   0.000000
   67        8.970929      8.970944   0.000000   0.000000
   68        9.353347      9.353365   0.000000   0.000000
   69        9.471882      9.471911   0.000000   0.000000
   70        9.659222      9.659249   0.000000   0.000000
   71        9.838619      9.838640   0.000000   0.000000
   72        9.947177      9.947203   0.000000   0.000000
   73       10.278254     10.278265   0.000000   0.000000
   74       10.322720     10.322744   0.000000   0.000000
   75       10.526384     10.526412   0.000000   0.000000
   76       10.812294     10.812335   0.000000   0.000000
   77       10.906007     10.906023   0.000000   0.000000
   78       11.186805     11.186840   0.000000   0.000000
   79       11.267061     11.267070   0.000000   0.000000
   80       11.554011     11.554034   0.000000   0.000000
   81       11.688350     11.688398   0.000000   0.000000
   82       11.822805     11.822821   0.000000   0.000000
   83       11.868039     11.868066   0.000000   0.000000
   84       12.063104     12.063130   0.000000   0.000000
   85       12.243829     12.243854   0.000000   0.000000
   86       12.472994     12.472552   0.000000   0.000000
   87       12.533595     12.533811   0.000000   0.000000
   88       12.803346     12.759282   0.000000   0.000000
 
  0.1428571E+00  0.2000000E+00 -0.3172673E-14  0.1428571E-01
    1      -41.501906    -41.501966   1.000000   1.000000
    2      -41.501263    -41.501323   1.000000   1.000000
    3      -41.337656    -41.337731   1.000000   1.000000
    4      -41.336237    -41.336310   1.000000   1.000000
    5      -41.295841    -41.295928   1.000000   1.000000
    6      -41.280789    -41.280876   1.000000   1.000000
    7      -41.242016    -41.242078   1.000000   1.000000
    8      -41.241881    -41.241943   1.000000   1.000000
    9      -20.035564    -20.035559   1.000000   1.000000
   10      -19.997588    -19.997584   1.000000   1.000000
   11      -18.764449    -18.764444   1.000000   1.000000
   12      -18.728206    -18.728202   1.000000   1.000000
   13      -17.384100    -17.384102   1.000000   1.000000
   14      -17.358329    -17.358333   1.000000   1.000000
   15      -16.794973    -16.794979   1.000000   1.000000
   16      -16.738161    -16.738169   1.000000   1.000000
   17      -16.598110    -16.598119   1.000000   1.000000
   18      -16.578554    -16.578563   1.000000   1.000000
   19      -16.514112    -16.514123   1.000000   1.000000
   20      -16.505177    -16.505188   1.000000   1.000000
   21      -16.451778    -16.451788   1.000000   1.000000
   22      -16.443119    -16.443128   1.000000   1.000000
   23       -8.435256     -8.435243   1.000000   1.000000
   24       -8.394962     -8.394951   1.000000   1.000000
   25       -5.742327     -5.742279   1.000000   1.000000
   26       -5.288027     -5.287996   1.000000   1.000000
   27       -4.828082     -4.828047   1.000000   1.000000
   28       -4.676189     -4.676162   1.000000   1.000000
   29       -4.392554     -4.392527   1.000000   1.000000
   30       -4.178092     -4.178069   1.000000   1.000000
   31       -4.093186     -4.093164   1.000000   1.000000
   32       -4.083129     -4.083114   1.000000   1.000000
   33       -3.675698     -3.675667   1.000000   1.000000
   34       -3.549039     -3.549015   1.000000   1.000000
   35       -3.421803     -3.421781   1.000000   1.000000
   36       -3.303495     -3.303471   1.000000   1.000000
   37       -2.892463     -2.892437   1.000000   1.000000
   38       -2.649737     -2.649719   1.000000   1.000000
   39       -2.115227     -2.115222   1.000000   1.000000
   40       -2.049219     -2.049214   1.000000   1.000000
   41       -1.964215     -1.964210   1.000000   1.000000
   42       -1.896240     -1.896234   1.000000   1.000000
   43       -1.777058     -1.777036   1.000000   1.000000
   44       -1.462437     -1.462433   1.000000   1.000000
   45       -1.321972     -1.321964   1.000000   1.000000
   46       -1.226808     -1.226808   1.000000   1.000000
   47       -1.067236     -1.067233   1.000000   1.000000
   48       -1.040212     -1.040210   1.000000   1.000000
   49       -0.952706     -0.952705   1.000000   1.000000
   50       -0.936391     -0.936389   1.000000   1.000000
   51       -0.859650     -0.859648   1.000000   1.000000
   52       -0.684841     -0.684843   1.000000   1.000000
   53       -0.372512     -0.372509   1.000000   1.000000
   54       -0.192113     -0.192113   1.000000   1.000000
   55       -0.124392     -0.124400   1.000000   1.000000
   56       -0.022835     -0.022838   1.000000   1.000000
   57        0.083685      0.083683   1.000000   1.000000
   58        0.133996      0.134005   1.000000   1.000000
   59        0.260129      0.260136   1.000000   1.000000
   60        0.321937      0.321949   1.000000   1.000000
   61        0.443044      0.443043   1.000000   1.000000
   62        0.472041      0.472034   1.000000   1.000000
   63        0.660537      0.660531   1.000000   1.000000
   64        0.727226      0.727221   1.000000   1.000000
   65        7.239806      7.239835   0.000000   0.000000
   66        8.552875      8.552865   0.000000   0.000000
   67        8.771635      8.771648   0.000000   0.000000