       N       E                     dE             d eps       ncg     rms          rms(c)
DAV:   1     0.110595691209E+04    0.11060E+04   -0.62341E+04 24992   0.150E+03
DAV:   2    -0.661950523947E+02   -0.11722E+04   -0.10998E+04 29232   0.391E+02
DAV:   3    -0.174900484823E+03   -0.10871E+03   -0.10801E+03 32392   0.121E+02
DAV:   4    -0.184672947385E+03   -0.97725E+01   -0.97292E+01 47304   0.289E+01
DAV:   5    -0.186028661061E+03   -0.13557E+01   -0.13553E+01 34168   0.626E+00    0.528E+01
DAV:   6    -0.165644866008E+03    0.20384E+02   -0.84899E+01 31360   0.313E+01    0.262E+01
DAV:   7    -0.167610343499E+03   -0.19655E+01   -0.74392E+00 33240   0.883E+00    0.941E+00
DAV:   8    -0.167874502975E+03   -0.26416E+00   -0.81247E-01 33480   0.354E+00    0.463E+00
DAV:   9    -0.168005513141E+03   -0.13101E+00   -0.14706E-01 33992   0.163E+00    0.173E+00
DAV:  10    -0.168027229444E+03   -0.21716E-01   -0.48062E-02 30720   0.106E+00    0.533E-01
DAV:  11    -0.168038078735E+03   -0.10849E-01   -0.12065E-02 30808   0.456E-01    0.311E-01
DAV:  12    -0.168040504475E+03   -0.24257E-02   -0.17892E-03 32368   0.194E-01    0.158E-01
DAV:  13    -0.168041564421E+03   -0.10599E-02   -0.10069E-03 29248   0.123E-01    0.461E-02
DAV:  14    -0.168041715303E+03   -0.15088E-03   -0.13811E-04 34648   0.562E-02    0.229E-02
DAV:  15    -0.168041774720E+03   -0.59417E-04   -0.62588E-05 26232   0.342E-02    0.134E-02
DAV:  16    -0.168041781103E+03   -0.63834E-05   -0.69441E-06 21576   0.135E-02
   1 F= -.16804178E+03 E0= -.16804178E+03  d E =0.000000E+00  mag=    -0.0016
