   14   14    1    2
  0.1249035E+02  0.9024515E-09  0.8537600E-09  0.4819660E-09  0.5000000E-15
  1.000000000000000E-004
  CAR 
 unknown system                          
     80     64     56
 
  0.0000000E+00  0.0000000E+00  0.0000000E+00  0.2915452E-02
    1      -22.163061    -22.162958   1.000000   1.000000
    2      -21.401776    -21.401681   1.000000   1.000000
    3      -20.605380    -20.605279   1.000000   1.000000
    4      -19.172899    -19.172827   1.000000   1.000000
    5      -19.162733    -19.162661   1.000000   1.000000
    6      -19.074923    -19.074842   1.000000   1.000000
    7      -17.543685    -17.543609   1.000000   1.000000
    8      -17.102180    -17.102117   1.000000   1.000000
    9      -17.051204    -17.051144   1.000000   1.000000
   10      -17.042992    -17.042932   1.000000   1.000000
   11      -12.412024    -12.411911   1.000000   1.000000
   12      -10.744565    -10.744453   1.000000   1.000000
   13       -8.663743     -8.663635   1.000000   1.000000
   14       -7.472516     -7.472415   1.000000   1.000000
   15       -7.268852     -7.268752   1.000000   1.000000
   16       -7.031664     -7.031561   1.000000   1.000000
   17       -5.192663     -5.192573   1.000000   1.000000
   18       -5.055737     -5.055645   1.000000   1.000000
   19       -4.583252     -4.583143   1.000000   1.000000
   20       -3.747645     -3.747572   1.000000   1.000000
   21       -3.667140     -3.667053   1.000000   1.000000
   22       -3.516624     -3.516527   1.000000   1.000000
   23       -3.418986     -3.418908   1.000000   1.000000
   24       -3.414786     -3.414701   1.000000   1.000000
   25       -2.882253     -2.882183   1.000000   1.000000
   26       -2.736934     -2.736867   1.000000   1.000000
   27       -1.819369     -1.819306   1.000000   1.000000
   28       -1.533217     -1.533167   1.000000   1.000000
   29       -1.441760     -1.441718   1.000000   1.000000
   30       -1.249127     -1.249075   1.000000   1.000000
   31       -1.176223     -1.176177   1.000000   1.000000
   32       -0.800311     -0.800275   1.000000   1.000000
   33       -0.209735     -0.209687   1.000000   1.000000
   34       -0.197565     -0.197511   1.000000   1.000000
   35       -0.085293     -0.085252   1.000000   1.000000
   36        0.027132      0.027174   1.000000   1.000000
   37        0.063084      0.063129   1.000000   1.000000
   38        0.258700      0.258739   1.000000   1.000000
   39        0.260014      0.260045   1.000000   1.000000
   40        0.394299      0.394331   1.000000   1.000000
   41        6.648201      6.648316   0.000002   0.000001
   42        7.993430      7.993562   0.000000   0.000000
   43        8.507181      8.507390   0.000000   0.000000
   44        8.609834      8.609992   0.000000   0.000000
   45        8.987849      8.988028   0.000000   0.000000
   46        9.507220      9.507398   0.000000   0.000000
   47        9.816722      9.816925   0.000000   0.000000
   48       10.125506     10.125700   0.000000   0.000000
   49       10.143529     10.143602   0.000000   0.000000
   50       10.342571     10.342770   0.000000   0.000000
   51       11.019825     11.020012   0.000000   0.000000
   52       11.304582     11.304746   0.000000   0.000000
   53       11.474625     11.474744   0.000000   0.000000
   54       11.714501     11.714688   0.000000   0.000000
   55       13.032021     13.031838   0.000000   0.000000
   56       13.375200     13.372464   0.000000   0.000000
 
  0.1428571E+00 -0.1233994E-16  0.4582783E-14  0.2332362E-01
    1      -22.123460    -22.123357   1.000000   1.000000
    2      -21.385199    -21.385103   1.000000   1.000000
    3      -20.621398    -20.621298   1.000000   1.000000
    4      -19.278747    -19.278672   1.000000   1.000000
    5      -19.166673    -19.166600   1.000000   1.000000
    6      -19.086399    -19.086318   1.000000   1.000000
    7      -17.490680    -17.490607   1.000000   1.000000
    8      -17.107546    -17.107483   1.000000   1.000000
    9      -17.066765    -17.066704   1.000000   1.000000
   10      -17.046737    -17.046677   1.000000   1.000000
   11      -12.310464    -12.310352   1.000000   1.000000
   12      -10.675596    -10.675485   1.000000   1.000000
   13       -8.778852     -8.778744   1.000000   1.000000
   14       -7.548349     -7.548248   1.000000   1.000000
   15       -7.175561     -7.175461   1.000000   1.000000
   16       -7.005575     -7.005473   1.000000   1.000000
   17       -5.119507     -5.119417   1.000000   1.000000
   18       -4.987215     -4.987123   1.000000   1.000000
   19       -4.578657     -4.578549   1.000000   1.000000
   20       -3.890149     -3.890065   1.000000   1.000000
   21       -3.646469     -3.646387   1.000000   1.000000
   22       -3.562781     -3.562687   1.000000   1.000000
   23       -3.372445     -3.372365   1.000000   1.000000
   24       -3.336597     -3.336517   1.000000   1.000000
   25       -2.846848     -2.846777   1.000000   1.000000
   26       -2.795245     -2.795176   1.000000   1.000000
   27       -1.831916     -1.831855   1.000000   1.000000
   28       -1.605372     -1.605324   1.000000   1.000000
   29       -1.508247     -1.508199   1.000000   1.000000
   30       -1.352107     -1.352055   1.000000   1.000000
   31       -1.228412     -1.228365   1.000000   1.000000
   32       -0.853631     -0.853595   1.000000   1.000000
   33       -0.187548     -0.187497   1.000000   1.000000
   34       -0.159329     -0.159281   1.000000   1.000000
   35       -0.057907     -0.057866   1.000000   1.000000
   36        0.019883      0.019927   1.000000   1.000000
   37        0.086902      0.086945   1.000000   1.000000
   38        0.210745      0.210784   1.000000   1.000000
   39        0.270573      0.270605   1.000000   1.000000
   40        0.360861      0.360894   1.000000   1.000000
   41        6.895762      6.895880  -0.000000  -0.000000
   42        8.066257      8.066393   0.000000   0.000000
   43        8.630633      8.630836   0.000000   0.000000
   44        8.759413      8.759571   0.000000   0.000000
   45        9.074780      9.074958   0.000000   0.000000
   46        9.512856      9.513041   0.000000   0.000000
   47        9.816536      9.816734   0.000000   0.000000
   48        9.994659      9.994801   0.000000   0.000000
   49       10.197422     10.197578   0.000000   0.000000
   50       10.420005     10.420181   0.000000   0.000000
   51       10.906462     10.906642   0.000000   0.000000
   52       11.320436     11.320592   0.000000   0.000000
   53       11.525031     11.525168   0.000000   0.000000
   54       11.678810     11.678977   0.000000   0.000000
   55       12.908255     12.908112   0.000000   0.000000
   56       13.333265     13.332287   0.000000   0.000000
 
  0.2857143E+00 -0.6580575E-16 -0.5055197E-14  0.2332362E-01
    1      -22.027971    -22.027868   1.000000   1.000000
    2      -21.330756    -21.330659   1.000000   1.000000
    3      -20.687267    -20.687169   1.000000   1.000000
    4      -19.503370    -19.503288   1.000000   1.000000
    5      -19.167707    -19.167635   1.000000   1.000000
    6      -19.097889    -19.097809   1.000000   1.000000
    7      -17.404954    -17.404884   1.000000   1.000000
    8      -17.121868    -17.121806   1.000000   1.000000
    9      -17.095536    -17.095475   1.000000   1.000000
   10      -17.052898    -17.052838   1.000000   1.000000
   11      -12.079828    -12.079716   1.000000   1.000000
   12      -10.471226    -10.471116   1.000000   1.000000
   13       -9.078608     -9.078500   1.000000   1.000000
   14       -7.655027     -7.654925   1.000000   1.000000
   15       -7.057834     -7.057734   1.000000   1.000000
   16       -6.914811     -6.914710   1.000000   1.000000
   17       -4.939615     -4.939524   1.000000   1.000000
   18       -4.805215     -4.805122   1.000000   1.000000
   19       -4.561880     -4.561775   1.000000   1.000000
   20       -4.037217     -4.037126   1.000000   1.000000
   21       -3.829178     -3.829089   1.000000   1.000000
   22       -3.644523     -3.644433   1.000000   1.000000
   23       -3.299403     -3.299324   1.000000   1.000000
   24       -3.183162     -3.183086   1.000000   1.000000
   25       -2.984260     -2.984187   1.000000   1.000000
   26       -2.649931     -2.649864   1.000000   1.000000
   27       -1.952874     -1.952817   1.000000   1.000000
   28       -1.775596     -1.775542   1.000000   1.000000
   29       -1.658424     -1.658373   1.000000   1.000000
   30       -1.527098     -1.527047   1.000000   1.000000
   31       -1.324903     -1.324855   1.000000   1.000000
   32       -0.958448     -0.958412   1.000000   1.000000
   33       -0.153297     -0.153249   1.000000   1.000000
   34       -0.109877     -0.109828   1.000000   1.000000
   35       -0.016931     -0.016889   1.000000   1.000000
   36        0.021155      0.021199   1.000000   1.000000
   37        0.085170      0.085213   1.000000   1.000000
   38        0.210298      0.210338   1.000000   1.000000
   39        0.273938      0.273973   1.000000   1.000000
   40        0.322597      0.322631   1.000000   1.000000
   41        7.408979      7.409118   0.000000   0.000000
   42        8.304069      8.304202   0.000000   0.000000
   43        8.896720      8.896905   0.000000   0.000000
   44        9.024306      9.024486   0.000000   0.000000
   45        9.261808      9.261990   0.000000   0.000000
   46        9.563490      9.563679   0.000000   0.000000
   47        9.848701      9.848871   0.000000   0.000000
   48        9.921747      9.921915   0.000000   0.000000
   49       10.281682     10.281851   0.000000   0.000000
   50       10.564115     10.564282   0.000000   0.000000
   51       10.658044     10.658204   0.000000   0.000000
   52       11.279235     11.279363   0.000000   0.000000
   53       11.487307     11.487485   0.000000   0.000000
   54       11.645128     11.645230   0.000000   0.000000
   55       12.672752     12.672674   0.000000   0.000000
   56       13.131015     13.130187   0.000000   0.000000
 
  0.4285714E+00 -0.6443513E-16 -0.3887065E-15  0.2332362E-01
    1      -21.944774    -21.944672   1.000000   1.000000
    2      -21.245926    -21.245826   1.000000   1.000000
    3      -20.799614    -20.799520   1.000000   1.000000
    4      -19.653622    -19.653535   1.000000   1.000000
    5      -19.168454    -19.168382   1.000000   1.000000
    6      -19.105476    -19.105396   1.000000   1.000000
    7      -17.362893    -17.362824   1.000000   1.000000
    8      -17.147425    -17.147364   1.000000   1.000000
    9      -17.091157    -17.091096   1.000000   1.000000
   10      -17.063016    -17.062955   1.000000   1.000000
   11      -11.894508    -11.894395   1.000000   1.000000
   12      -10.184110    -10.184001   1.000000   1.000000
   13       -9.433196     -9.433089   1.000000   1.000000
   14       -7.721652     -7.721549   1.000000   1.000000
   15       -6.995117     -6.995018   1.000000   1.000000
   16       -6.824713     -6.824613   1.000000   1.000000
   17       -4.744763     -4.744668   1.000000   1.000000
   18       -4.660255     -4.660160   1.000000   1.000000
   19       -4.475176     -4.475081   1.000000   1.000000
   20       -4.189012     -4.188917   1.000000   1.000000
   21       -3.984621     -3.984527   1.000000   1.000000
   22       -3.760846     -3.760759   1.000000   1.000000
   23       -3.352332     -3.352252   1.000000   1.000000
   24       -3.167455     -3.167376   1.000000   1.000000
   25       -2.931417     -2.931346   1.000000   1.000000
   26       -2.437150     -2.437087   1.000000   1.000000
   27       -2.145897     -2.145839   1.000000   1.000000
   28       -1.942817     -1.942764   1.000000   1.000000
   29       -1.798475     -1.798421   1.000000   1.000000
   30       -1.555140     -1.555090   1.000000   1.000000
   31       -1.446240     -1.446191   1.000000   1.000000
   32       -1.018041     -1.018003   1.000000   1.000000
   33       -0.214073     -0.214025   1.000000   1.000000
   34       -0.067015     -0.066965   1.000000   1.000000
   35       -0.020480     -0.020440   1.000000   1.000000
   36        0.022378      0.022421   1.000000   1.000000
   37        0.141639      0.141682   1.000000   1.000000
   38        0.201913      0.201952   1.000000   1.000000
   39        0.301838      0.301874   1.000000   1.000000
   40        0.340943      0.340977   1.000000   1.000000
   41        7.718797      7.718956   0.000000   0.000000
   42        8.758009      8.758160   0.000000   0.000000
   43        9.015718      9.015905   0.000000   0.000000
   44        9.152613      9.152797   0.000000   0.000000
   45        9.320869      9.321060   0.000000   0.000000
   46        9.698435      9.698621   0.000000   0.000000
   47        9.829571      9.829725   0.000000   0.000000
   48       10.067885     10.068058   0.000000   0.000000
   49       10.391586     10.391727   0.000000   0.000000
   50       10.438456     10.438609   0.000000   0.000000
   51       10.693151     10.693316   0.000000   0.000000
   52       11.180541     11.180644   0.000000   0.000000
   53       11.317612     11.317764   0.000000   0.000000
   54       11.763479     11.763596   0.000000   0.000000
   55       12.335084     12.335075   0.000000   0.000000
   56       12.876769     12.876739   0.000000   0.000000
 
  0.1428571E+00  0.1428571E+00  0.5738679E-17  0.5830904E-02
    1      -22.140788    -22.140685   1.000000   1.000000
    2      -21.484000    -21.483903   1.000000   1.000000
    3      -20.494944    -20.494845   1.000000   1.000000
    4      -19.179714    -19.179640   1.000000   1.000000
    5      -19.163174    -19.163102   1.000000   1.000000
    6      -19.145861    -19.145781   1.000000   1.000000
    7      -17.506178    -17.506104   1.000000   1.000000
    8      -17.119418    -17.119355   1.000000   1.000000
    9      -17.046953    -17.046893   1.000000   1.000000
   10      -17.042557    -17.042497   1.000000   1.000000
   11      -12.349102    -12.348989   1.000000   1.000000
   12      -10.870803    -10.870691   1.000000   1.000000
   13       -8.556490     -8.556382   1.000000   1.000000
   14       -7.505264     -7.505163   1.000000   1.000000
   15       -7.257026     -7.256926   1.000000   1.000000
   16       -7.045987     -7.045885   1.000000   1.000000
   17       -5.201625     -5.201535   1.000000   1.000000
   18       -5.087524     -5.087431   1.000000   1.000000
   19       -4.541774     -4.541666   1.000000   1.000000
   20       -3.704803     -3.704731   1.000000   1.000000
   21       -3.679957     -3.679863   1.000000   1.000000
   22       -3.589871     -3.589783   1.000000   1.000000
   23       -3.410876     -3.410791   1.000000   1.000000
   24       -3.396068     -3.395987   1.000000   1.000000
   25       -2.835120     -2.835049   1.000000   1.000000
   26       -2.742747     -2.742679   1.000000   1.000000
   27       -1.827614     -1.827552   1.000000   1.000000
   28       -1.606564     -1.606515   1.000000   1.000000
   29       -1.374372     -1.374328   1.000000   1.000000
   30       -1.238840     -1.238788   1.000000   1.000000
   31       -1.170983     -1.170937   1.000000   1.000000
   32       -0.817192     -0.817156   1.000000   1.000000
   33       -0.225532     -0.225483   1.000000   1.000000
   34       -0.196603     -0.196550   1.000000   1.000000
   35       -0.100410     -0.100368   1.000000   1.000000
   36       -0.031813     -0.031768   1.000000   1.000000
   37        0.106316      0.106357   1.000000   1.000000
   38        0.256570      0.256603   1.000000   1.000000
   39        0.274308      0.274344   1.000000   1.000000
   40        0.392001      0.392034   1.000000   1.000000
   41        6.742424      6.742537   0.000000   0.000000
   42        8.032450      8.032587   0.000000   0.000000
   43        8.490656      8.490818   0.000000   0.000000
   44        8.550796      8.550988   0.000000   0.000000
   45        9.042087      9.042261   0.000000   0.000000
   46        9.438194      9.438366   0.000000   0.000000
   47        9.804882      9.805087   0.000000   0.000000
   48       10.008292     10.008425   0.000000   0.000000
   49       10.127956     10.128148   0.000000   0.000000
   50       10.492973     10.493130   0.000000   0.000000
   51       10.944832     10.945013   0.000000   0.000000
   52       11.297140     11.297269   0.000000   0.000000
   53       11.384948     11.385118   0.000000   0.000000
   54       11.706586     11.706765   0.000000   0.000000
   55       13.130471     13.130302   0.000000   0.000000
   56       13.529018     13.526733   0.000000   0.000000
 
  0.2857143E+00  0.1428571E+00  0.1050458E-14  0.2332362E-01
    1      -22.079901    -22.079799   1.000000   1.000000
    2      -21.528580    -21.528482   1.000000   1.000000
    3      -20.426733    -20.426636   1.000000   1.000000
    4      -19.370009    -19.369928   1.000000   1.000000
    5      -19.166861    -19.166789   1.000000   1.000000
    6      -19.127805    -19.127728   1.000000   1.000000
    7      -17.433831    -17.433760   1.000000   1.000000
    8      -17.138343    -17.138280   1.000000   1.000000
    9      -17.060973    -17.060913   1.000000   1.000000
   10      -17.044250    -17.044190   1.000000   1.000000
   11      -12.189398    -12.189286   1.000000   1.000000
   12      -10.914291    -10.914180   1.000000   1.000000
   13       -8.578976     -8.578869   1.000000   1.000000
   14       -7.617806     -7.617703   1.000000   1.000000
   15       -7.165354     -7.165255   1.000000   1.000000
   16       -7.012711     -7.012610   1.000000   1.000000
   17       -5.134890     -5.134799   1.000000   1.000000
   18       -5.039157     -5.039065   1.000000   1.000000
   19       -4.501950     -4.501843   1.000000   1.000000
   20       -3.876123     -3.876032   1.000000   1.000000
   21       -3.712031     -3.711944   1.000000   1.000000
   22       -3.565202     -3.565121   1.000000   1.000000
   23       -3.360006     -3.359926   1.000000   1.000000
   24       -3.325893     -3.325815   1.000000   1.000000
   25       -2.848410     -2.848338   1.000000   1.000000
   26       -2.718841     -2.718773   1.000000   1.000000
   27       -1.866531     -1.866471   1.000000   1.000000
   28       -1.713372     -1.713320   1.000000   1.000000
   29       -1.414885     -1.414838   1.000000   1.000000
   30       -1.324156     -1.324106   1.000000   1.000000
   31       -1.219412     -1.219365   1.000000   1.000000
   32       -0.888208     -0.888172   1.000000   1.000000
   33       -0.203839     -0.203790   1.000000   1.000000
   34       -0.169533     -0.169482   1.000000   1.000000
   35       -0.076300     -0.076256   1.000000   1.000000
   36       -0.044426     -0.044381   1.000000   1.000000
   37        0.133595      0.133635   1.000000   1.000000
   38        0.224863      0.224901   1.000000   1.000000
   39        0.274637      0.274670   1.000000   1.000000
   40        0.358776      0.358809   1.000000   1.000000
   41        7.065484      7.065600   0.000000   0.000000
   42        8.127756      8.127900   0.000000   0.000000
   43        8.550281      8.550427   0.000000   0.000000
   44        8.710124      8.710320   0.000000   0.000000
   45        9.178819      9.178988   0.000000   0.000000
   46        9.423235      9.423414   0.000000   0.000000
   47        9.775391      9.775591   0.000000   0.000000
   48        9.860670      9.860826   0.000000   0.000000
   49       10.174334     10.174517   0.000000   0.000000
   50       10.573549     10.573702   0.000000   0.000000
   51       10.797983     10.798155   0.000000   0.000000
   52       11.206901     11.207046   0.000000   0.000000
   53       11.431594     11.431756   0.000000   0.000000
   54       11.676291     11.676456   0.000000   0.000000
   55       13.074153     13.074041   0.000000   0.000000
   56       13.625725     13.616157   0.000000   0.000000
 
  0.4285714E+00  0.1428571E+00 -0.4950252E-14  0.2332362E-01
    1      -21.975571    -21.975468   1.000000   1.000000
    2      -21.498755    -21.498656   1.000000   1.000000
    3      -20.471381    -20.471287   1.000000   1.000000
    4      -19.607244    -19.607158   1.000000   1.000000
    5      -19.167735    -19.167663   1.000000   1.000000
    6      -19.119973    -19.119894   1.000000   1.000000
    7      -17.361484    -17.361416   1.000000   1.000000
    8      -17.148852    -17.148789   1.000000   1.000000
    9      -17.093824    -17.093763   1.000000   1.000000
   10      -17.048917    -17.048857   1.000000   1.000000
   11      -11.942068    -11.941956   1.000000   1.000000
   12      -10.773484    -10.773374   1.000000   1.000000
   13       -8.832632     -8.832526   1.000000   1.000000
   14       -7.731518     -7.731415   1.000000   1.000000
   15       -7.073122     -7.073023   1.000000   1.000000
   16       -6.888668     -6.888567   1.000000   1.000000
   17       -4.964360     -4.964267   1.000000   1.000000
   18       -4.850480     -4.850388   1.000000   1.000000
   19       -4.460943     -4.460839   1.000000   1.000000
   20       -4.049923     -4.049827   1.000000   1.000000
   21       -3.892355     -3.892266   1.000000   1.000000
   22       -3.612351     -3.612267   1.000000   1.000000
   23       -3.312999     -3.312921   1.000000   1.000000
   24       -3.235397     -3.235319   1.000000   1.000000
   25       -2.894596     -2.894525   1.000000   1.000000
   26       -2.584112     -2.584046   1.000000   1.000000
   27       -2.073875     -2.073816   1.000000   1.000000
   28       -1.788260     -1.788204   1.000000   1.000000
   29       -1.630317     -1.630267   1.000000   1.000000
   30       -1.495381     -1.495331   1.000000   1.000000
   31       -1.304657     -1.304609   1.000000   1.000000
   32       -0.985355     -0.985318   1.000000   1.000000
   33       -0.191432     -0.191385   1.000000   1.000000
   34       -0.111083     -0.111032   1.000000   1.000000
   35       -0.024686     -0.024642   1.000000   1.000000
   36        0.035755      0.035798   1.000000   1.000000
   37        0.078176      0.078218   1.000000   1.000000
   38        0.208123      0.208162   1.000000   1.000000
   39        0.275520      0.275556   1.000000   1.000000
   40        0.334361      0.334395   1.000000   1.000000
   41        7.576908      7.577048   0.000000   0.000000
   42        8.370568      8.370703   0.000000   0.000000
   43        8.822586      8.822746   0.000000   0.000000
   44        9.003010      9.003207   0.000000   0.000000
   45        9.326986      9.327176   0.000000   0.000000
   46        9.563181      9.563341   0.000000   0.000000
   47        9.695302      9.695478   0.000000   0.000000
   48        9.871132      9.871311   0.000000   0.000000
   49       10.268152     10.268321   0.000000   0.000000
   50       10.516077     10.516217   0.000000   0.000000
   51       10.669886     10.670056   0.000000   0.000000
   52       11.164103     11.164260   0.000000   0.000000
   53       11.387016     11.387158   0.000000   0.000000
   54       11.603703     11.603834   0.000000   0.000000
   55       12.779784     12.779731   0.000000   0.000000
   56       13.288196     13.288130   0.000000   0.000000
 
 -0.4285714E+00  0.1428571E+00 -0.4210434E-14  0.2332362E-01
    1      -21.922718    -21.922617   1.000000   1.000000
    2      -21.343658    -21.343558   1.000000   1.000000
    3      -20.687214    -20.687121   1.000000   1.000000
    4      -19.691286    -19.691198   1.000000   1.000000
    5      -19.168430    -19.168357   1.000000   1.000000
    6      -19.112511    -19.112431   1.000000   1.000000
    7      -17.349592    -17.349523   1.000000   1.000000
    8      -17.152140    -17.152079   1.000000   1.000000
    9      -17.096598    -17.096537   1.000000   1.000000
   10      -17.059621    -17.059561   1.000000   1.000000
   11      -11.839603    -11.839491   1.000000   1.000000
   12      -10.375152    -10.375043   1.000000   1.000000
   13       -9.267444     -9.267338   1.000000   1.000000
   14       -7.750406     -7.750303   1.000000   1.000000
   15       -7.003813     -7.003714   1.000000   1.000000
   16       -6.810845     -6.810745   1.000000   1.000000
   17       -4.771621     -4.771525   1.000000   1.000000
   18       -4.665839     -4.665747   1.000000   1.000000
   19       -4.399876     -4.399781   1.000000   1.000000
   20       -4.218439     -4.218343   1.000000   1.000000
   21       -4.018430     -4.018335   1.000000   1.000000
   22       -3.749376     -3.749292   1.000000   1.000000
   23       -3.353890     -3.353809   1.000000   1.000000
   24       -3.187503     -3.187424   1.000000   1.000000
   25       -2.886292     -2.886222   1.000000   1.000000
   26       -2.394321     -2.394260   1.000000   1.000000
   27       -2.237180     -2.237119   1.000000   1.000000
   28       -1.924884     -1.924829   1.000000   1.000000
   29       -1.776963     -1.776910   1.000000   1.000000
   30       -1.577867     -1.577819   1.000000   1.000000
   31       -1.424619     -1.424570   1.000000   1.000000
   32       -1.024519     -1.024482   1.000000   1.000000
   33       -0.232961     -0.232913   1.000000   1.000000
   34       -0.059732     -0.059682   1.000000   1.000000
   35       -0.008358     -0.008317   1.000000   1.000000
   36        0.026167      0.026209   1.000000   1.000000
   37        0.133245      0.133288   1.000000   1.000000
   38        0.182996      0.183036   1.000000   1.000000
   39        0.311766      0.311802   1.000000   1.000000
   40        0.345221      0.345256   1.000000   1.000000
   41        7.775654      7.775813   0.000000   0.000000
   42        8.834983      8.835140   0.000000   0.000000
   43        8.985822      8.986011   0.000000   0.000000
   44        9.202202      9.202380   0.000000   0.000000
   45        9.233638      9.233827   0.000000   0.000000
   46        9.613618      9.613800   0.000000   0.000000
   47        9.914219      9.914371   0.000000   0.000000
   48       10.082758     10.082935   0.000000   0.000000
   49       10.282241     10.282366   0.000000   0.000000
   50       10.433405     10.433554   0.000000   0.000000
   51       10.714392     10.714559   0.000000   0.000000
   52       11.126184     11.126340   0.000000   0.000000
   53       11.280851     11.280970   0.000000   0.000000
   54       11.680113     11.680220   0.000000   0.000000
   55       12.421669     12.421684   0.000000   0.000000
   56       12.921210     12.921134   0.000000   0.000000
 
 -0.2857143E+00  0.1428571E+00  0.4838117E-15  0.2332362E-01
    1      -21.960342    -21.960240   1.000000   1.000000
    2      -21.115698    -21.115599   1.000000   1.000000
    3      -20.940852    -20.940758   1.000000   1.000000
    4      -19.626492    -19.626407   1.000000   1.000000
    5      -19.168369    -19.168297   1.000000   1.000000
    6      -19.099450    -19.099370   1.000000   1.000000
    7      -17.372918    -17.372849   1.000000   1.000000
    8      -17.145631    -17.145569   1.000000   1.000000
    9      -17.081489    -17.081428   1.000000   1.000000
   10      -17.069639    -17.069579   1.000000   1.000000
   11      -11.934223    -11.934111   1.000000   1.000000
   12       -9.932329     -9.932221   1.000000   1.000000
   13       -9.667153     -9.667046   1.000000   1.000000
   14       -7.701600     -7.701497   1.000000   1.000000
   15       -6.981361     -6.981263   1.000000   1.000000
   16       -6.841314     -6.841213   1.000000   1.000000
   17       -4.719900     -4.719808   1.000000   1.000000
   18       -4.652973     -4.652873   1.000000   1.000000
   19       -4.523545     -4.523453   1.000000   1.000000
   20       -4.193066     -4.192972   1.000000   1.000000
   21       -3.915222     -3.915128   1.000000   1.000000
   22       -3.821605     -3.821518   1.000000   1.000000
   23       -3.282150     -3.282070   1.000000   1.000000
   24       -3.198363     -3.198284   1.000000   1.000000
   25       -2.969586     -2.969514   1.000000   1.000000
   26       -2.461207     -2.461144   1.000000   1.000000
   27       -2.099854     -2.099797   1.000000   1.000000
   28       -1.908305     -1.908251   1.000000   1.000000
   29       -1.842949     -1.842895   1.000000   1.000000
   30       -1.537176     -1.537126   1.000000   1.000000
   31       -1.467145     -1.467096   1.000000   1.000000
   32       -1.016100     -1.016062   1.000000   1.000000
   33       -0.189211     -0.189163   1.000000   1.000000
   34       -0.078845     -0.078797   1.000000   1.000000
   35       -0.035441     -0.035398   1.000000   1.000000
   36        0.017641      0.017684   1.000000   1.000000
   37        0.166151      0.166193   1.000000   1.000000
   38        0.202999      0.203040   1.000000   1.000000
   39        0.296634      0.296669   1.000000   1.000000
   40        0.335414      0.335449   1.000000   1.000000
   41        7.680431      7.680590   0.000000   0.000000
   42        8.716102      8.716248   0.000000   0.000000
   43        9.005343      9.005531   0.000000   0.000000
   44        9.188872      9.189056   0.000000   0.000000
   45        9.297916      9.298106   0.000000   0.000000
   46        9.603081      9.603276   0.000000   0.000000
   47        9.968134      9.968285   0.000000   0.000000
   48       10.137998     10.138173   0.000000   0.000000
   49       10.397598     10.397767   0.000000   0.000000
   50       10.485454     10.485587   0.000000   0.000000
   51       10.672813     10.672989   0.000000   0.000000
   52       11.092164     11.092269   0.000000   0.000000
   53       11.351835     11.351958   0.000000   0.000000
   54       11.987764     11.987882   0.000000   0.000000
   55       12.216598     12.216642   0.000000   0.000000
   56       12.753655     12.753584   0.000000   0.000000
 