 running on    8 total cores
 distrk:  each k-point on    8 cores,    1 groups
 distr:  one band on    1 cores,    8 groups
 using from now: INCAR     
 vasp.6.1.2 22Jul20 (build Mar 20 2021 11:25:07) complex                        
  
 POSCAR found type information on POSCAR LiP 
 POSCAR found :  2 types and      16 ions
 scaLAPACK will be used
 -----------------------------------------------------------------------------
|                                                                             |
|           W    W    AA    RRRRR   N    N  II  N    N   GGGG   !!!           |
|           W    W   A  A   R    R  NN   N  II  NN   N  G    G  !!!           |
|           W    W  A    A  R    R  N N  N  II  N N  N  G       !!!           |
|           W WW W  AAAAAA  RRRRR   N  N N  II  N  N N  G  GGG   !            |
|           WW  WW  A    A  R   R   N   NN  II  N   NN  G    G                |
|           W    W  A    A  R    R  N    N  II  N    N   GGGG   !!!           |
|                                                                             |
|     The value NCORE = 6 specified in the INCAR file was overwritten,        |
|     because it was not compatible with the 8 processes available:           |
|     NCORE = 1                                                               |
|     was used instead, please check that this makes sense for your           |
|     machine.                                                                |
|                                                                             |
 -----------------------------------------------------------------------------

 -----------------------------------------------------------------------------
|                                                                             |
|           W    W    AA    RRRRR   N    N  II  N    N   GGGG   !!!           |
|           W    W   A  A   R    R  NN   N  II  NN   N  G    G  !!!           |
|           W    W  A    A  R    R  N N  N  II  N N  N  G       !!!           |
|           W WW W  AAAAAA  RRRRR   N  N N  II  N  N N  G  GGG   !            |
|           WW  WW  A    A  R   R   N   NN  II  N   NN  G    G                |
|           W    W  A    A  R    R  N    N  II  N    N   GGGG   !!!           |
|                                                                             |
|     For optimal performance we recommend to set                             |
|       NCORE = 4 - approx SQRT(number of cores).                             |
|     NCORE specifies how many cores store one orbital (NPAR=cpu/NCORE).      |
|     This setting can greatly improve the performance of VASP for DFT.       |
|     The default, NCORE=1 might be grossly inefficient on modern             |
|     multi-core architectures or massively parallel machines. Do your        |
|     own testing!!!!                                                         |
|     Unfortunately you need to use the default for GW and RPA                |
|     calculations (for HF NCORE is supported but not extensively tested      |
|     yet).                                                                   |
|                                                                             |
 -----------------------------------------------------------------------------

 LDA part: xc-table for Pade appr. of Perdew
 generate k-points for:    6    6    3
 POSCAR, INCAR and KPOINTS ok, starting setup
 FFT: planning ...
 WAVECAR not read
 entering main loop
       N       E                     dE             d eps       ncg     rms          rms(c)
DAV:   1     0.390463832109E+03    0.39046E+03   -0.25541E+04  7680   0.130E+03
DAV:   2    -0.453899312635E+01   -0.39500E+03   -0.36185E+03  8576   0.311E+02
DAV:   3    -0.558743043442E+02   -0.51335E+02   -0.50708E+02 10920   0.875E+01
DAV:   4    -0.632768266567E+02   -0.74025E+01   -0.73261E+01 13904   0.325E+01
DAV:   5    -0.640557494413E+02   -0.77892E+00   -0.77865E+00 10896   0.738E+00    0.204E+01
DAV:   6    -0.653688463684E+02   -0.13131E+01   -0.26901E+00 10320   0.620E+00    0.108E+01
DAV:   7    -0.666465184817E+02   -0.12777E+01   -0.69035E-01  9400   0.396E+00    0.555E+00
DAV:   8    -0.669053110949E+02   -0.25879E+00   -0.61012E-01  9952   0.285E+00    0.123E+00
DAV:   9    -0.669345121625E+02   -0.29201E-01   -0.81311E-02 11528   0.109E+00    0.465E-01
DAV:  10    -0.669378707278E+02   -0.33586E-02   -0.66669E-03  9880   0.377E-01    0.201E-01
DAV:  11    -0.669392176205E+02   -0.13469E-02   -0.16785E-03  9728   0.199E-01    0.979E-02
DAV:  12    -0.669395230492E+02   -0.30543E-03   -0.60899E-04  9768   0.964E-02    0.410E-02
DAV:  13    -0.669395731637E+02   -0.50115E-04   -0.99747E-05  8752   0.519E-02    0.202E-02
DAV:  14    -0.669395889118E+02   -0.15748E-04   -0.35493E-05  7944   0.297E-02    0.581E-03
DAV:  15    -0.669395906549E+02   -0.17431E-05   -0.47248E-06  5608   0.133E-02
   1 F= -.66939591E+02 E0= -.66939591E+02  d E =0.000000E+00  mag=    -0.0003
