 running on   12 total cores
 distrk:  each k-point on   12 cores,    1 groups
 distr:  one band on    6 cores,    2 groups
 using from now: INCAR     
 vasp.6.1.2 22Jul20 (build Mar 20 2021 11:25:07) complex                        
  
 POSCAR found type information on POSCAR LiP O 
 POSCAR found :  3 types and      26 ions
 scaLAPACK will be used
 LDA part: xc-table for Pade appr. of Perdew
 generate k-points for:    7    5    4
 POSCAR, INCAR and KPOINTS ok, starting setup
 FFT: planning ...
 WAVECAR not read
 entering main loop
       N       E                     dE             d eps       ncg     rms          rms(c)
DAV:   1     0.111803641968E+04    0.11180E+04   -0.62020E+04 24424   0.152E+03
DAV:   2    -0.613729310163E+02   -0.11794E+04   -0.11080E+04 29352   0.394E+02
DAV:   3    -0.173290175023E+03   -0.11192E+03   -0.11119E+03 31518   0.124E+02
DAV:   4    -0.183039759664E+03   -0.97496E+01   -0.97073E+01 45968   0.296E+01
DAV:   5    -0.184606732891E+03   -0.15670E+01   -0.15665E+01 34312   0.688E+00    0.507E+01
DAV:   6    -0.164407744137E+03    0.20199E+02   -0.89644E+01 30518   0.321E+01    0.257E+01
DAV:   7    -0.166392922167E+03   -0.19852E+01   -0.73827E+00 31784   0.918E+00    0.890E+00
DAV:   8    -0.166674740408E+03   -0.28182E+00   -0.79881E-01 32720   0.357E+00    0.449E+00
DAV:   9    -0.166804345842E+03   -0.12961E+00   -0.14102E-01 33280   0.161E+00    0.185E+00
DAV:  10    -0.166832043022E+03   -0.27697E-01   -0.57576E-02 29920   0.115E+00    0.546E-01
DAV:  11    -0.166842308868E+03   -0.10266E-01   -0.11532E-02 30728   0.443E-01    0.299E-01
DAV:  12    -0.166845082402E+03   -0.27735E-02   -0.22098E-03 30888   0.211E-01    0.155E-01
DAV:  13    -0.166846333951E+03   -0.12515E-02   -0.10005E-03 28776   0.127E-01    0.509E-02
DAV:  14    -0.166846536514E+03   -0.20256E-03   -0.16775E-04 31992   0.584E-02    0.278E-02
DAV:  15    -0.166846595428E+03   -0.58914E-04   -0.51792E-05 25256   0.307E-02    0.177E-02
DAV:  16    -0.166846607887E+03   -0.12459E-04   -0.88206E-06 20272   0.131E-02    0.932E-03
DAV:  17    -0.166846611978E+03   -0.40908E-05   -0.55200E-06 17392   0.960E-03
   1 F= -.16684661E+03 E0= -.16684661E+03  d E =0.000000E+00  mag=    -0.0008
