       N       E                     dE             d eps       ncg     rms          rms(c)
DAV:   1     0.608648581421E+02    0.60865E+02   -0.64132E+03 12488   0.119E+03
DAV:   2    -0.856999466178E+01   -0.69435E+02   -0.64797E+02 16168   0.252E+02
DAV:   3    -0.179759039520E+02   -0.94059E+01   -0.93437E+01 20908   0.733E+01
DAV:   4    -0.186849937898E+02   -0.70909E+00   -0.70838E+00 18160   0.185E+01
DAV:   5    -0.186952100251E+02   -0.10216E-01   -0.10216E-01 18100   0.252E+00    0.142E+01
RMM:   6    -0.156274183470E+02    0.30678E+01   -0.86283E+00 14446   0.162E+01    0.652E+00
RMM:   7    -0.156626579492E+02   -0.35240E-01   -0.75083E-01 16614   0.918E+00    0.248E+00
RMM:   8    -0.156057645340E+02    0.56893E-01   -0.32311E-01 20223   0.391E+00    0.140E+00
RMM:   9    -0.156134124823E+02   -0.76479E-02   -0.14643E-01 19272   0.304E+00    0.488E-01
RMM:  10    -0.156187645148E+02   -0.53520E-02   -0.57815E-02 21680   0.174E+00    0.271E-01
RMM:  11    -0.156217862101E+02   -0.30217E-02   -0.23828E-02 21875   0.919E-01    0.138E-01
RMM:  12    -0.156229895683E+02   -0.12034E-02   -0.92592E-03 21821   0.671E-01    0.540E-02
RMM:  13    -0.156236014757E+02   -0.61191E-03   -0.46927E-03 22115   0.406E-01    0.476E-02
RMM:  14    -0.156238094860E+02   -0.20801E-03   -0.18731E-03 21038   0.249E-01    0.194E-02
RMM:  15    -0.156239087263E+02   -0.99240E-04   -0.89984E-04 20190   0.164E-01    0.445E-03
RMM:  16    -0.156239581437E+02   -0.49417E-04   -0.39969E-04 18678   0.109E-01    0.622E-03
RMM:  17    -0.156239800389E+02   -0.21895E-04   -0.18965E-04 17559   0.759E-02    0.591E-03
RMM:  18    -0.156239902783E+02   -0.10239E-04   -0.89493E-05 16462   0.571E-02    0.696E-03
RMM:  19    -0.156239953461E+02   -0.50678E-05   -0.44932E-05 15622   0.463E-02
   1 F= -.15623995E+02 E0= -.15623995E+02  d E =0.000000E+00  mag=    -0.0000
