    9    9    1    2
  0.1129649E+02  0.5055094E-09  0.4984434E-09  0.5115461E-09  0.5000000E-15
  1.000000000000000E-004
  CAR 
 unknown system                          
     51    197     34
 
  0.0000000E+00  0.0000000E+00  0.0000000E+00  0.2551020E-02
    1      -44.356099    -44.355823   1.000000   1.000000
    2      -25.478003    -25.477980   1.000000   1.000000
    3      -24.402049    -24.402347   1.000000   1.000000
    4      -24.201390    -24.201195   1.000000   1.000000
    5      -23.631486    -23.629524   1.000000   1.000000
    6      -14.749701    -14.749594   1.000000   1.000000
    7      -13.966866    -13.966482   1.000000   1.000000
    8      -13.786095    -13.784221   1.000000   1.000000
    9      -12.966287    -12.965987   1.000000   1.000000
   10       -8.063301     -8.063279   1.000000   1.000000
   11       -7.630142     -7.629692   1.000000   1.000000
   12       -7.560627     -7.560490   1.000000   1.000000
   13       -7.023800     -7.023731   1.000000   1.000000
   14       -6.410188     -6.409676   1.000000   1.000000
   15       -6.164089     -6.162718   1.000000   1.000000
   16       -5.946089     -5.945484   1.000000   1.000000
   17       -5.878372     -5.878012   1.000000   1.000000
   18       -3.883875     -3.883145   1.000000   1.000000
   19       -3.735977     -3.734266   1.000000   1.000000
   20       -3.565035     -3.563973   1.000000   1.000000
   21       -3.411056     -3.411125   1.000000   1.000000
   22       -1.730700     -1.730630   1.000000   1.000000
   23       -1.587463     -1.586415   1.000000   1.000000
   24       -0.998235     -0.998300   1.000000   1.000000
   25       -0.187308     -0.185338   1.000000   1.000000
   26        1.463430      1.466375   0.000000   0.000000
   27        1.607781      1.608547   0.000000   0.000000
   28        1.659201      1.659521   0.000000   0.000000
   29        1.932689      1.932467   0.000000   0.000000
   30        7.024334      7.023597   0.000000   0.000000
   31        7.233881      7.236006   0.000000   0.000000
   32        8.579382      8.578473   0.000000   0.000000
   33        8.815392      8.815999   0.000000   0.000000
   34        8.930805      8.931402   0.000000   0.000000
 
  0.1250000E+00 -0.1571846E-16  0.1539327E-14  0.5102041E-02
    1      -44.356093    -44.355817   1.000000   1.000000
    2      -25.475546    -25.475523   1.000000   1.000000
    3      -24.403781    -24.404085   1.000000   1.000000
    4      -24.202592    -24.202387   1.000000   1.000000
    5      -23.631958    -23.629999   1.000000   1.000000
    6      -14.798998    -14.798862   1.000000   1.000000
    7      -13.937310    -13.936921   1.000000   1.000000
    8      -13.765992    -13.764159   1.000000   1.000000
    9      -12.963700    -12.963390   1.000000   1.000000
   10       -8.032786     -8.032776   1.000000   1.000000
   11       -7.642153     -7.641645   1.000000   1.000000
   12       -7.481887     -7.481816   1.000000   1.000000
   13       -7.026401     -7.026304   1.000000   1.000000
   14       -6.452556     -6.452211   1.000000   1.000000
   15       -6.251721     -6.250374   1.000000   1.000000
   16       -5.914981     -5.914351   1.000000   1.000000
   17       -5.878237     -5.877721   1.000000   1.000000
   18       -3.882734     -3.881985   1.000000   1.000000
   19       -3.732957     -3.731272   1.000000   1.000000
   20       -3.563933     -3.562879   1.000000   1.000000
   21       -3.408368     -3.408425   1.000000   1.000000
   22       -1.726627     -1.726559   1.000000   1.000000
   23       -1.561216     -1.560180   1.000000   1.000000
   24       -1.003878     -1.003923   1.000000   1.000000
   25       -0.219312     -0.217363   1.000000   1.000000
   26        1.459357      1.462306   0.000000   0.000000
   27        1.602224      1.603016   0.000000   0.000000
   28        1.660425      1.660738   0.000000   0.000000
   29        1.928629      1.928400   0.000000   0.000000
   30        7.237323      7.236842   0.000000   0.000000
   31        7.327909      7.330049   0.000000   0.000000
   32        7.646888      7.646572   0.000000   0.000000
   33        8.867981      8.868138   0.000000   0.000000
   34        9.629886      9.631908   0.000000   0.000000
 
  0.2500000E+00 -0.3143692E-16  0.3078655E-14  0.5102041E-02
    1      -44.356045    -44.355769   1.000000   1.000000
    2      -25.469414    -25.469391   1.000000   1.000000
    3      -24.407946    -24.408264   1.000000   1.000000
    4      -24.205379    -24.205150   1.000000   1.000000
    5      -23.633046    -23.631098   1.000000   1.000000
    6      -14.913755    -14.913568   1.000000   1.000000
    7      -13.863152    -13.862777   1.000000   1.000000
    8      -13.714474    -13.712677   1.000000   1.000000
    9      -12.961899    -12.961584   1.000000   1.000000
   10       -7.995110     -7.995114   1.000000   1.000000
   11       -7.676421     -7.675907   1.000000   1.000000
   12       -7.257361     -7.257389   1.000000   1.000000
   13       -7.006243     -7.006034   1.000000   1.000000
   14       -6.572137     -6.572094   1.000000   1.000000
   15       -6.400674     -6.399279   1.000000   1.000000
   16       -5.913116     -5.912317   1.000000   1.000000
   17       -5.874055     -5.873466   1.000000   1.000000
   18       -3.879475     -3.878680   1.000000   1.000000
   19       -3.725710     -3.724091   1.000000   1.000000
   20       -3.561132     -3.560093   1.000000   1.000000
   21       -3.401947     -3.401975   1.000000   1.000000
   22       -1.710914     -1.710841   1.000000   1.000000
   23       -1.485336     -1.484353   1.000000   1.000000
   24       -1.014505     -1.014500   1.000000   1.000000
   25       -0.294853     -0.292940   1.000000   1.000000
   26        1.450720      1.453692   0.000000   0.000000
   27        1.591574      1.592400   0.000000   0.000000
   28        1.660679      1.660990   0.000000   0.000000
   29        1.918769      1.918521   0.000000   0.000000
   30        6.433584      6.434080   0.000000   0.000000
   31        7.709300      7.710680   0.000000   0.000000
   32        7.797201      7.796505   0.000000   0.000000
   33        9.072379      9.072873   0.000000   0.000000
   34        9.922504      9.923991   0.000000   0.000000
 
  0.3750000E+00 -0.2463438E-18  0.4623306E-14  0.5102041E-02
    1      -44.355998    -44.355722   1.000000   1.000000
    2      -25.463311    -25.463289   1.000000   1.000000
    3      -24.412016    -24.412348   1.000000   1.000000
    4      -24.208084    -24.207831   1.000000   1.000000
    5      -23.634116    -23.632179   1.000000   1.000000
    6      -15.023244    -15.023023   1.000000   1.000000
    7      -13.784623    -13.784351   1.000000   1.000000
    8      -13.657805    -13.655899   1.000000   1.000000
    9      -12.967830    -12.967548   1.000000   1.000000
   10       -7.978194     -7.978205   1.000000   1.000000
   11       -7.702774     -7.702271   1.000000   1.000000
   12       -7.117071     -7.117130   1.000000   1.000000
   13       -6.860468     -6.860257   1.000000   1.000000
   14       -6.711751     -6.711859   1.000000   1.000000
   15       -6.520909     -6.519442   1.000000   1.000000
   16       -5.926051     -5.925456   1.000000   1.000000
   17       -5.894317     -5.893401   1.000000   1.000000
   18       -3.875658     -3.874814   1.000000   1.000000
   19       -3.718458     -3.716912   1.000000   1.000000
   20       -3.558142     -3.557109   1.000000   1.000000
   21       -3.395582     -3.395582   1.000000   1.000000
   22       -1.688224     -1.688134   1.000000   1.000000
   23       -1.394280     -1.393385   1.000000   1.000000
   24       -1.021118     -1.021064   1.000000   1.000000
   25       -0.367789     -0.365884   1.000000   1.000000
   26        1.444017      1.447035   0.000000   0.000000
   27        1.582803      1.583607   0.000000   0.000000
   28        1.658724      1.659067   0.000000   0.000000
   29        1.908855      1.908580   0.000000   0.000000
   30        5.592319      5.592708   0.000000   0.000000
   31        8.145882      8.147540   0.000000   0.000000
   32        8.323132      8.322215   0.000000   0.000000
   33        9.100620      9.101085   0.000000   0.000000
   34        9.952116      9.948044   0.000000   0.000000
 
  0.5000000E+00 -0.6287383E-16  0.6157310E-14  0.2551020E-02
    1      -44.356001    -44.355725   1.000000   1.000000
    2      -25.460913    -25.460890   1.000000   1.000000
    3      -24.413863    -24.414201   1.000000   1.000000
    4      -24.209242    -24.208978   1.000000   1.000000
    5      -23.634716    -23.632783   1.000000   1.000000
    6      -15.067241    -15.067008   1.000000   1.000000
    7      -13.750887    -13.750709   1.000000   1.000000
    8      -13.632467    -13.630444   1.000000   1.000000
    9      -12.973358    -12.973107   1.000000   1.000000
   10       -7.972627     -7.972641   1.000000   1.000000
   11       -7.710150     -7.709654   1.000000   1.000000
   12       -7.098626     -7.098634   1.000000   1.000000
   13       -6.798021     -6.798079   1.000000   1.000000
   14       -6.730249     -6.730271   1.000000   1.000000
   15       -6.566134     -6.564555   1.000000   1.000000
   16       -5.942462     -5.942072   1.000000   1.000000
   17       -5.899376     -5.898228   1.000000   1.000000
   18       -3.873965     -3.873099   1.000000   1.000000
   19       -3.715438     -3.713925   1.000000   1.000000
   20       -3.556853     -3.555820   1.000000   1.000000
   21       -3.392959     -3.392948   1.000000   1.000000
   22       -1.677120     -1.677021   1.000000   1.000000
   23       -1.352852     -1.352005   1.000000   1.000000
   24       -1.022902     -1.022826   1.000000   1.000000
   25       -0.397156     -0.395246   1.000000   1.000000
   26        1.441871      1.444918   0.000000   0.000000
   27        1.579354      1.580131   0.000000   0.000000
   28        1.657497      1.657863   0.000000   0.000000
   29        1.904645      1.904357   0.000000   0.000000
   30        5.280403      5.280773   0.000000   0.000000
   31        8.421951      8.423511   0.000000   0.000000
   32        8.544148      8.543664   0.000000   0.000000
   33        8.940616      8.940760   0.000000   0.000000
   34        9.979118      9.980814   0.000000   0.000000
 
 -0.1691893E-19  0.1428571E+00 -0.6635748E-15  0.5102041E-02
    1      -44.356098    -44.355822   1.000000   1.000000
    2      -25.461623    -25.461600   1.000000   1.000000
    3      -24.402314    -24.402789   1.000000   1.000000
    4      -24.213291    -24.212899   1.000000   1.000000
    5      -23.643787    -23.641846   1.000000   1.000000
    6      -14.730942    -14.730865   1.000000   1.000000
    7      -13.962183    -13.961914   1.000000   1.000000
    8      -13.807017    -13.804962   1.000000   1.000000
    9      -12.981197    -12.980936   1.000000   1.000000
   10       -8.018314     -8.018288   1.000000   1.000000
   11       -7.593506     -7.593040   1.000000   1.000000
   12       -7.493831     -7.493777   1.000000   1.000000
   13       -6.937698     -6.937613   1.000000   1.000000
   14       -6.444804     -6.444146   1.000000   1.000000
   15       -6.183384     -6.182208   1.000000   1.000000
   16       -5.929597     -5.928986   1.000000   1.000000
   17       -5.916547     -5.916178   1.000000   1.000000
   18       -3.931714     -3.930088   1.000000   1.000000
   19       -3.787358     -3.786463   1.000000   1.000000
   20       -3.646791     -3.645923   1.000000   1.000000
   21       -3.482543     -3.482418   1.000000   1.000000
   22       -1.666380     -1.666204   1.000000   1.000000
   23       -1.515511     -1.514663   1.000000   1.000000
   24       -0.911804     -0.911841   1.000000   1.000000
   25       -0.247140     -0.245242   1.000000   1.000000
   26        1.411292      1.414664   0.000000   0.000000
   27        1.524218      1.525088   0.000000   0.000000
   28        1.646604      1.646431   0.000000   0.000000
   29        1.875817      1.875706   0.000000   0.000000
   30        7.065233      7.064621   0.000000   0.000000
   31        7.213155      7.215180   0.000000   0.000000
   32        8.357912      8.357538   0.000000   0.000000
   33        8.751657      8.751743   0.000000   0.000000
   34        9.295559      9.296118   0.000000   0.000000
 
  0.1250000E+00  0.1428571E+00  0.8718196E-15  0.5102041E-02
    1      -44.356080    -44.355804   1.000000   1.000000
    2      -25.460776    -25.460753   1.000000   1.000000
    3      -24.403073    -24.403538   1.000000   1.000000
    4      -24.212523    -24.212142   1.000000   1.000000
    5      -23.644717    -23.642776   1.000000   1.000000
    6      -14.743396    -14.743296   1.000000   1.000000
    7      -13.948564    -13.948898   1.000000   1.000000
    8      -13.818332    -13.815690   1.000000   1.000000
    9      -12.971685    -12.971427   1.000000   1.000000
   10       -8.005289     -8.005274   1.000000   1.000000
   11       -7.590071     -7.589604   1.000000   1.000000
   12       -7.475210     -7.475147   1.000000   1.000000
   13       -6.968463     -6.968356   1.000000   1.000000
   14       -6.434769     -6.434090   1.000000   1.000000
   15       -6.187903     -6.186720   1.000000   1.000000
   16       -5.949275     -5.948979   1.000000   1.000000
   17       -5.901408     -5.900786   1.000000   1.000000
   18       -3.925330     -3.923636   1.000000   1.000000
   19       -3.789760     -3.788981   1.000000   1.000000
   20       -3.649339     -3.648412   1.000000   1.000000
   21       -3.481843     -3.481722   1.000000   1.000000
   22       -1.654543     -1.654369   1.000000   1.000000
   23       -1.506093     -1.505227   1.000000   1.000000
   24       -0.920488     -0.920508   1.000000   1.000000
   25       -0.252984     -0.251061   1.000000   1.000000
   26        1.410286      1.413555   0.000000   0.000000
   27        1.515326      1.516151   0.000000   0.000000
   28        1.652388      1.652267   0.000000   0.000000
   29        1.873649      1.873545   0.000000   0.000000
   30        7.007755      7.007246   0.000000   0.000000
   31        7.290407      7.292350   0.000000   0.000000
   32        8.103347      8.103208   0.000000   0.000000
   33        8.855650      8.855841   0.000000   0.000000
   34        9.455419      9.456094   0.000000   0.000000
 
  0.2500000E+00  0.1428571E+00  0.2408949E-14  0.5102041E-02
    1      -44.356046    -44.355770   1.000000   1.000000
    2      -25.455930    -25.455907   1.000000   1.000000
    3      -24.406324    -24.406793   1.000000   1.000000
    4      -24.214337    -24.213944   1.000000   1.000000
    5      -23.646158    -23.644225   1.000000   1.000000
    6      -14.836512    -14.836352   1.000000   1.000000
    7      -13.894881    -13.895694   1.000000   1.000000
    8      -13.780146    -13.777072   1.000000   1.000000
    9      -12.964444    -12.964190   1.000000   1.000000
   10       -7.950607     -7.950616   1.000000   1.000000
   11       -7.614716     -7.614259   1.000000   1.000000
   12       -7.306811     -7.306769   1.000000   1.000000
   13       -6.993256     -6.993049   1.000000   1.000000
   14       -6.508235     -6.507854   1.000000   1.000000
   15       -6.302419     -6.301202   1.000000   1.000000
   16       -5.950181     -5.949749   1.000000   1.000000
   17       -5.892102     -5.891410   1.000000   1.000000
   18       -3.919207     -3.917416   1.000000   1.000000
   19       -3.790223     -3.789610   1.000000   1.000000
   20       -3.644824     -3.643832   1.000000   1.000000
   21       -3.476513     -3.476387   1.000000   1.000000
   22       -1.630342     -1.630207   1.000000   1.000000
   23       -1.455358     -1.454486   1.000000   1.000000
   24       -0.932621     -0.932589   1.000000   1.000000
   25       -0.312017     -0.310100   1.000000   1.000000
   26        1.403051      1.406192   0.000000   0.000000
   27        1.503817      1.504728   0.000000   0.000000
   28        1.653643      1.653531   0.000000   0.000000
   29        1.865724      1.865619   0.000000   0.000000
   30        6.915829      6.916424   0.000000   0.000000
   31        7.266275      7.266139   0.000000   0.000000
   32        7.718327      7.719257   0.000000   0.000000
   33        9.032990      9.032883   0.000000   0.000000
   34       10.007446     10.007896   0.000000   0.000000
 
  0.3750000E+00  0.1428571E+00  0.3952673E-14  0.5102041E-02
    1      -44.356016    -44.355740   1.000000   1.000000
    2      -25.449801    -25.449777   1.000000   1.000000
    3      -24.410124    -24.410609   1.000000   1.000000
    4      -24.217520    -24.217100   1.000000   1.000000
    5      -23.647207    -23.645286   1.000000   1.000000
    6      -14.951692    -14.951489   1.000000   1.000000
    7      -13.824874    -13.825752   1.000000   1.000000
    8      -13.713705    -13.710565   1.000000   1.000000
    9      -12.969713    -12.969495   1.000000   1.000000
   10       -7.921024     -7.921041   1.000000   1.000000
   11       -7.649204     -7.648758   1.000000   1.000000
   12       -7.117828     -7.117864   1.000000   1.000000
   13       -6.908200     -6.907868   1.000000   1.000000
   14       -6.638741     -6.638646   1.000000   1.000000
   15       -6.430046     -6.428808   1.000000   1.000000
   16       -5.956547     -5.955671   1.000000   1.000000
   17       -5.913508     -5.913029   1.000000   1.000000
   18       -3.916602     -3.914750   1.000000   1.000000
   19       -3.787905     -3.787401   1.000000   1.000000
   20       -3.636067     -3.635044   1.000000   1.000000
   21       -3.469830     -3.469690   1.000000   1.000000
   22       -1.604054     -1.603928   1.000000   1.000000
   23       -1.375725     -1.374927   1.000000   1.000000
   24       -0.935877     -0.935793   1.000000   1.000000
   25       -0.388397     -0.386479   1.000000   1.000000
   26        1.397284      1.400403   0.000000   0.000000
   27        1.493849      1.494858   0.000000   0.000000
   28        1.649322      1.649179   0.000000   0.000000
   29        1.855120      1.854999   0.000000   0.000000
   30        5.943804      5.944208   0.000000   0.000000
   31        7.736681      7.736919   0.000000   0.000000
   32        8.212671      8.213413   0.000000   0.000000
   33        9.120899      9.122615   0.000000   0.000000
   34       10.106526     10.154102   0.000000   0.000000
 
  0.5000000E+00  0.1428571E+00  0.5490385E-14  0.5102041E-02
    1      -44.355988    -44.355712   1.000000   1.000000
    2      -25.446110    -25.446086   1.000000   1.000000
    3      -24.412315    -24.412820   1.000000   1.000000
    4      -24.220142    -24.219695   1.000000   1.000000
    5      -23.647355    -23.645441   1.000000   1.000000
    6      -15.022744    -15.022525   1.000000   1.000000
    7      -13.774232    -13.774815   1.000000   1.000000
    8      -13.664955    -13.662086   1.000000   1.000000
    9      -12.982208    -12.982029   1.000000   1.000000
   10       -7.914909     -7.914927   1.000000   1.000000
   11       -7.675096     -7.674656   1.000000   1.000000
   12       -7.058368     -7.058333   1.000000   1.000000
   13       -6.781501     -6.781446   1.000000   1.000000
   14       -6.703493     -6.703368   1.000000   1.000000
   15       -6.523063     -6.521762   1.000000   1.000000
   16       -5.978558     -5.977590   1.000000   1.000000
   17       -5.912922     -5.912413   1.000000   1.000000
   18       -3.918481     -3.916640   1.000000   1.000000
   19       -3.784502     -3.783989   1.000000   1.000000
   20       -3.628670     -3.627663   1.000000   1.000000
   21       -3.466016     -3.465863   1.000000   1.000000
   22       -1.592947     -1.592817   1.000000   1.000000
   23       -1.318700     -1.317991   1.000000   1.000000
   24       -0.928892     -0.928783   1.000000   1.000000
   25       -0.438210     -0.436276   1.000000   1.000000
   26        1.398922      1.402250   0.000000   0.000000
   27        1.487928      1.488872   0.000000   0.000000
   28        1.641750      1.641547   0.000000   0.000000
   29        1.846644      1.846502   0.000000   0.000000
   30        5.411692      5.412066   0.000000   0.000000
   31        8.280335      8.280569   0.000000   0.000000
   32        8.451081      8.452063   0.000000   0.000000
   33        8.969009      8.969110   0.000000   0.000000
   34       10.159135     10.158098   0.000000   0.000000
 
 -0.3750000E+00  0.1428571E+00  0.9175849E-15  0.5102041E-02
    1      -44.355994    -44.355718   1.000000   1.000000
    2      -25.446908    -25.446885   1.000000   1.000000
    3      -24.411463    -24.411978   1.000000   1.000000
    4      -24.220889    -24.220431   1.000000   1.000000
    5      -23.646314    -23.644400   1.000000   1.000000
    6      -15.011905    -15.011696   1.000000   1.000000
    7      -13.785566    -13.785388   1.000000   1.000000
    8      -13.659093    -13.657013   1.000000   1.000000
    9      -12.987159    -12.986949   1.000000   1.000000
   10       -7.926070     -7.926077   1.000000   1.000000
   11       -7.684539     -7.684101   1.000000   1.000000
   12       -7.027958     -7.027993   1.000000   1.000000
   13       -6.788697     -6.788613   1.000000   1.000000
   14       -6.717057     -6.716950   1.000000   1.000000
   15       -6.535638     -6.534318   1.000000   1.000000
   16       -5.981295     -5.980230   1.000000   1.000000
   17       -5.889916     -5.889462   1.000000   1.000000
   18       -3.924000     -3.922228   1.000000   1.000000
   19       -3.782471     -3.781847   1.000000   1.000000
   20       -3.626843     -3.625890   1.000000   1.000000
   21       -3.467173     -3.467014   1.000000   1.000000
   22       -1.607231     -1.607112   1.000000   1.000000
   23       -1.331068     -1.330356   1.000000   1.000000
   24       -0.920675     -0.920579   1.000000   1.000000
   25       -0.434103     -0.432189   1.000000   1.000000
   26        1.403134      1.406715   0.000000   0.000000
   27        1.492674      1.493502   0.000000   0.000000
   28        1.635816      1.635550   0.000000   0.000000
   29        1.847116      1.846967   0.000000   0.000000
   30        5.474248      5.474634   0.000000   0.000000
   31        8.150979      8.152251   0.000000   0.000000
   32        8.567824      8.567151   0.000000   0.000000
   33        9.042136      9.041883   0.000000   0.000000
   34       10.151293     10.155476   0.000000   0.000000
 
 -0.2500000E+00  0.1428571E+00 -0.5009085E-14  0.5102041E-02
    1      -44.356043    -44.355767   1.000000   1.000000
    2      -25.451811    -25.451788   1.000000   1.000000
    3      -24.408224    -24.408735   1.000000   1.000000
    4      -24.219194    -24.218748   1.000000   1.000000
    5      -23.644931    -23.643009   1.000000   1.000000
    6      -14.924541    -14.924367   1.000000   1.000000
    7      -13.853262    -13.852596   1.000000   1.000000
    8      -13.695538    -13.693975   1.000000   1.000000
    9      -12.985591    -12.985325   1.000000   1.000000
   10       -7.945049     -7.945043   1.000000   1.000000
   11       -7.668205     -7.667759   1.000000   1.000000
   12       -7.113683     -7.113780   1.000000   1.000000
   13       -6.887844     -6.887560   1.000000   1.000000
   14       -6.646804     -6.646730   1.000000   1.000000
   15       -6.454086     -6.452809   1.000000   1.000000
   16       -5.962627     -5.961587   1.000000   1.000000
   17       -5.865130     -5.864722   1.000000   1.000000
   18       -3.930566     -3.928883   1.000000   1.000000
   19       -3.782707     -3.781931   1.000000   1.000000
   20       -3.631151     -3.630260   1.000000   1.000000
   21       -3.472275     -3.472122   1.000000   1.000000
   22       -1.636761     -1.636651   1.000000   1.000000
   23       -1.404411     -1.403623   1.000000   1.000000
   24       -0.915690     -0.915641   1.000000   1.000000
   25       -0.377081     -0.375212   1.000000   1.000000
   26        1.405508      1.409096   0.000000   0.000000
   27        1.508032      1.508912   0.000000   0.000000
   28        1.634923      1.634634   0.000000   0.000000
   29        1.857480      1.857341   0.000000   0.000000
   30        6.108725      6.109175   0.000000   0.000000
   31        7.693862      7.695019   0.000000   0.000000
   32        8.268280      8.267598   0.000000   0.000000
   33        9.083427      9.085718   0.000000   0.000000
   34       10.107045     10.112364   0.000000   0.000000
 
 -0.1250000E+00  0.1428571E+00 -0.3483874E-14  0.5102041E-02
    1      -44.356088    -44.355812   1.000000   1.000000
    2      -25.457906    -25.457883   1.000000   1.000000
    3      -24.404462    -24.404956   1.000000   1.000000
    4      -24.216077    -24.215658   1.000000   1.000000
    5      -23.643865    -23.641933   1.000000   1.000000
    6      -14.807672    -14.807554   1.000000   1.000000
    7      -13.925855    -13.925213   1.000000   1.000000
    8      -13.756424    -13.754797   1.000000   1.000000
    9      -12.984774    -12.984499   1.000000   1.000000
   10       -7.975481     -7.975465   1.000000   1.000000
   11       -7.628272     -7.627815   1.000000   1.000000
   12       -7.354170     -7.354140   1.000000   1.000000
   13       -6.922002     -6.921869   1.000000   1.000000
   14       -6.525441     -6.525082   1.000000   1.000000
   15       -6.309817     -6.308591   1.000000   1.000000
   16       -5.939673     -5.938938   1.000000   1.000000
   17       -5.873872     -5.873381   1.000000   1.000000
   18       -3.934034     -3.932411   1.000000   1.000000
   19       -3.784648     -3.783758   1.000000   1.000000
   20       -3.639182     -3.638328   1.000000   1.000000
   21       -3.478503     -3.478364   1.000000   1.000000
   22       -1.660637     -1.660504   1.000000   1.000000
   23       -1.480963     -1.480121   1.000000   1.000000
   24       -0.912021     -0.912027   1.000000   1.000000
   25       -0.299018     -0.297155   1.000000   1.000000
   26        1.408149      1.411627   0.000000   0.000000
   27        1.522004      1.522931   0.000000   0.000000
   28        1.639408      1.639160   0.000000   0.000000
   29        1.869752      1.869629   0.000000   0.000000
   30        7.088425      7.089714   0.000000   0.000000
   31        7.325881      7.326069   0.000000   0.000000
   32        7.716049      7.715724   0.000000   0.000000
   33        8.876126      8.876324   0.000000   0.000000
   34        9.937827      9.939310   0.000000   0.000000
 
  0.4738837E-17  0.2857143E+00 -0.1350103E-14  0.5102041E-02
    1      -44.356096    -44.355820   1.000000   1.000000
    2      -25.422528    -25.422502   1.000000   1.000000
    3      -24.410939    -24.411841   1.000000   1.000000
    4      -24.233166    -24.232300   1.000000   1.000000
    5      -23.672258    -23.670367   1.000000   1.000000
    6      -14.684397    -14.684407   1.000000   1.000000
    7      -13.964883    -13.964853   1.000000   1.000000
    8      -13.844059    -13.841590   1.000000   1.000000
    9      -13.015905    -13.015739   1.000000   1.000000
   10       -7.910905     -7.910869   1.000000   1.000000
   11       -7.533520     -7.533217   1.000000   1.000000
   12       -7.280251     -7.280198   1.000000   1.000000
   13       -6.770603     -6.770350   1.000000   1.000000
   14       -6.529921     -6.529059   1.000000   1.000000
   15       -6.231822     -6.231174   1.000000   1.000000
   16       -5.964887     -5.964864   1.000000   1.000000
   17       -5.859065     -5.858025   1.000000   1.000000
   18       -4.251518     -4.249462   1.000000   1.000000
   19       -3.971744     -3.971006   1.000000   1.000000
   20       -3.729668     -3.729439   1.000000   1.000000
   21       -3.538066     -3.537354   1.000000   1.000000
   22       -1.569356     -1.568944   1.000000   1.000000
   23       -1.234450     -1.234127   1.000000   1.000000
   24       -0.773314     -0.772998   1.000000   1.000000
   25       -0.318511     -0.317073   1.000000   1.000000
   26        1.069258      1.071767  -0.035540  -0.037298
   27        1.436096      1.437921   0.000000   0.000000
   28        1.623156      1.623158   0.000000   0.000000
   29        1.789669      1.789715   0.000000   0.000000
   30        7.130390      7.131653   0.000000   0.000000
   31        7.201796      7.202050   0.000000   0.000000
   32        8.071664      8.071190   0.000000   0.000000
   33        8.726647      8.726643   0.000000   0.000000
   34        9.851374      9.851961   0.000000   0.000000
 
  0.1250000E+00  0.2857143E+00  0.1705126E-15  0.5102041E-02
    1      -44.356073    -44.355797   1.000000   1.000000
    2      -25.422800    -25.422774   1.000000   1.000000
    3      -24.410409    -24.411293   1.000000   1.000000
    4      -24.231939    -24.231093   1.000000   1.000000
    5      -23.673494    -23.671602   1.000000   1.000000
    6      -14.671353    -14.671350   1.000000   1.000000
    7      -13.989754    -13.990222   1.000000   1.000000
    8      -13.846422    -13.843451   1.000000   1.000000
    9      -13.003114    -13.002959   1.000000   1.000000
   10       -7.928305     -7.928278   1.000000   1.000000
   11       -7.525915     -7.525613   1.000000   1.000000
   12       -7.284924     -7.284847   1.000000   1.000000
   13       -6.819780     -6.819580   1.000000   1.000000
   14       -6.487356     -6.486179   1.000000   1.000000
   15       -6.176399     -6.175997   1.000000   1.000000
   16       -5.960026     -5.960358   1.000000   1.000000
   17       -5.885572     -5.884230   1.000000   1.000000
   18       -4.261667     -4.259607   1.000000   1.000000
   19       -3.962562     -3.961836   1.000000   1.000000
   20       -3.728041     -3.727791   1.000000   1.000000
   21       -3.542194     -3.541476   1.000000   1.000000