 running on   12 total cores
 distrk:  each k-point on   12 cores,    1 groups
 distr:  one band on    6 cores,    2 groups
 using from now: INCAR     
 vasp.6.1.2 22Jul20 (build Mar 20 2021 11:25:07) complex                        
  
 POSCAR found type information on POSCAR LiO 
 POSCAR found :  2 types and       9 ions
 scaLAPACK will be used
 LDA part: xc-table for Pade appr. of Perdew
 generate k-points for:    8    7    7
 POSCAR, INCAR and KPOINTS ok, starting setup
 FFT: planning ...
 WAVECAR not read
 entering main loop
       N       E                     dE             d eps       ncg     rms          rms(c)
DAV:   1     0.360875617088E+03    0.36088E+03   -0.28011E+04 26792   0.147E+03
DAV:   2    -0.178672005741E+02   -0.37874E+03   -0.36529E+03 35054   0.349E+02
DAV:   3    -0.432229275621E+02   -0.25356E+02   -0.25050E+02 39624   0.908E+01
DAV:   4    -0.441300531195E+02   -0.90713E+00   -0.90319E+00 44056   0.126E+01
DAV:   5    -0.442030047141E+02   -0.72952E-01   -0.72948E-01 35810   0.176E+00    0.145E+01
RMM:   6    -0.445104251159E+02   -0.30742E+00   -0.29910E+00 30745   0.890E+00    0.102E+01
RMM:   7    -0.441044077689E+02    0.40602E+00   -0.10859E+00 29766   0.567E+00    0.571E+00
RMM:   8    -0.439082747581E+02    0.19613E+00   -0.48026E-01 30629   0.395E+00    0.388E+00
RMM:   9    -0.438459823191E+02    0.62292E-01   -0.18204E-01 31809   0.241E+00    0.255E+00
RMM:  10    -0.438303129068E+02    0.15669E-01   -0.65369E-02 32570   0.145E+00    0.112E+00
RMM:  11    -0.438262368087E+02    0.40761E-02   -0.15461E-02 35597   0.729E-01    0.644E-01
RMM:  12    -0.438256031492E+02    0.63366E-03   -0.62303E-03 36882   0.480E-01    0.325E-01
RMM:  13    -0.438253809682E+02    0.22218E-03   -0.29934E-03 38727   0.333E-01    0.974E-02
RMM:  14    -0.438256716431E+02   -0.29067E-03   -0.11457E-03 46181   0.174E-01    0.417E-02
WARNING in EDDRMM: call to ZHEGV failed, returncode =   8  4      3
RMM:  15    -0.438257903558E+02   -0.11871E-03   -0.52525E-04 46151   0.111E-01    0.217E-02
WARNING in EDDRMM: call to ZHEGV failed, returncode =   8  4      2
WARNING in EDDRMM: call to ZHEGV failed, returncode =   6  3      2
WARNING in EDDRMM: call to ZHEGV failed, returncode =   6  3      7
WARNING in EDDRMM: call to ZHEGV failed, returncode =   6  3     15
RMM:  16    -0.438258231199E+02   -0.32764E-04   -0.26458E-04 44811   0.735E-02    0.123E-02
WARNING in EDDRMM: call to ZHEGV failed, returncode =   8  4     16
RMM:  17    -0.438258350732E+02   -0.11953E-04   -0.11131E-04 35800   0.489E-02    0.779E-03
RMM:  18    -0.438258422448E+02   -0.71716E-05   -0.48462E-05 32435   0.414E-02
   1 F= -.43825842E+02 E0= -.43825842E+02  d E =0.000000E+00  mag=     0.0023
 -----------------------------------------------------------------------------
|                                                                             |
|           W    W    AA    RRRRR   N    N  II  N    N   GGGG   !!!           |
|           W    W   A  A   R    R  NN   N  II  NN   N  G    G  !!!           |
|           W    W  A    A  R    R  N N  N  II  N N  N  G       !!!           |
|           W WW W  AAAAAA  RRRRR   N  N N  II  N  N N  G  GGG   !            |
|           WW  WW  A    A  R   R   N   NN  II  N   NN  G    G                |
|           W    W  A    A  R    R  N    N  II  N    N   GGGG   !!!           |
|                                                                             |
|     Tetrahedron method does not include variations of the Fermi             |
|     occupations, so forces and stress will be inaccurate. We suggest        |
|     using a different smearing scheme ISMEAR = 1 or 2 for metals in         |
|     relaxations.                                                            |
|                                                                             |
 -----------------------------------------------------------------------------

