 running on   12 total cores
 distrk:  each k-point on   12 cores,    1 groups
 distr:  one band on    6 cores,    2 groups
 using from now: INCAR     
 vasp.6.1.2 22Jul20 (build Mar 20 2021 11:25:07) complex                        
  
 POSCAR found type information on POSCAR LiP 
 POSCAR found :  2 types and      40 ions
 scaLAPACK will be used
 LDA part: xc-table for Pade appr. of Perdew
 generate k-points for:    4    3    3
 POSCAR, INCAR and KPOINTS ok, starting setup
 FFT: planning ...
 WAVECAR not read
 entering main loop
       N       E                     dE             d eps       ncg     rms          rms(c)
DAV:   1     0.103749686934E+04    0.10375E+04   -0.67624E+04  5856   0.131E+03
DAV:   2    -0.264775517236E+02   -0.10640E+04   -0.98452E+03  6872   0.280E+02
DAV:   3    -0.163870373250E+03   -0.13739E+03   -0.13555E+03  7950   0.958E+01
DAV:   4    -0.179456271999E+03   -0.15586E+02   -0.15488E+02 10272   0.290E+01
DAV:   5    -0.182975349448E+03   -0.35191E+01   -0.35170E+01  9888   0.875E+00    0.312E+01
DAV:   6    -0.183481882207E+03   -0.50653E+00   -0.90887E+00  7576   0.730E+00    0.170E+01
DAV:   7    -0.185596690585E+03   -0.21148E+01   -0.32540E+00  7600   0.435E+00    0.100E+01
DAV:   8    -0.186459362599E+03   -0.86267E+00   -0.13538E+00  7328   0.302E+00    0.255E+00
DAV:   9    -0.186563419412E+03   -0.10406E+00   -0.22653E-01  8200   0.142E+00    0.104E+00
DAV:  10    -0.186581236127E+03   -0.17817E-01   -0.37793E-02  8328   0.522E-01    0.400E-01
DAV:  11    -0.186586617186E+03   -0.53811E-02   -0.62216E-03  7104   0.242E-01    0.214E-01
DAV:  12    -0.186589679786E+03   -0.30626E-02   -0.27662E-03  7440   0.147E-01    0.102E-01
DAV:  13    -0.186590899847E+03   -0.12201E-02   -0.99142E-04  7192   0.815E-02    0.418E-02
DAV:  14    -0.186591231030E+03   -0.33118E-03   -0.30220E-04  6984   0.435E-02    0.254E-02
DAV:  15    -0.186591347438E+03   -0.11641E-03   -0.13480E-04  6256   0.304E-02    0.114E-02
DAV:  16    -0.186591372047E+03   -0.24609E-04   -0.30513E-05  5952   0.166E-02    0.540E-03
DAV:  17    -0.186591377603E+03   -0.55556E-05   -0.72970E-06  4608   0.925E-03
   1 F= -.18659138E+03 E0= -.18659138E+03  d E =0.000000E+00  mag=    -0.0004
