 running on   12 total cores
 distrk:  each k-point on   12 cores,    1 groups
 distr:  one band on    6 cores,    2 groups
 using from now: INCAR     
 vasp.6.1.2 22Jul20 (build Mar 20 2021 11:25:07) complex                        
  
 POSCAR found type information on POSCAR LiP O 
 POSCAR found :  3 types and      26 ions
 scaLAPACK will be used
 LDA part: xc-table for Pade appr. of Perdew
 generate k-points for:    6    5    4
 POSCAR, INCAR and KPOINTS ok, starting setup
 FFT: planning ...
 WAVECAR not read
 entering main loop
       N       E                     dE             d eps       ncg     rms          rms(c)
DAV:   1     0.111759517229E+04    0.11176E+04   -0.61901E+04 21328   0.152E+03
DAV:   2    -0.617652607809E+02   -0.11794E+04   -0.11090E+04 25662   0.394E+02
DAV:   3    -0.173330072226E+03   -0.11156E+03   -0.11084E+03 27500   0.124E+02
DAV:   4    -0.182945155348E+03   -0.96151E+01   -0.95709E+01 40080   0.295E+01
DAV:   5    -0.184502141947E+03   -0.15570E+01   -0.15565E+01 29992   0.681E+00    0.507E+01
DAV:   6    -0.164349639570E+03    0.20153E+02   -0.89654E+01 26764   0.322E+01    0.265E+01
DAV:   7    -0.166424467572E+03   -0.20748E+01   -0.75879E+00 28162   0.929E+00    0.873E+00
DAV:   8    -0.166701516298E+03   -0.27705E+00   -0.81171E-01 28946   0.360E+00    0.445E+00
DAV:   9    -0.166831711743E+03   -0.13020E+00   -0.14271E-01 28688   0.169E+00    0.192E+00
DAV:  10    -0.166862122729E+03   -0.30411E-01   -0.59613E-02 25752   0.120E+00    0.523E-01
DAV:  11    -0.166872701920E+03   -0.10579E-01   -0.12598E-02 26864   0.478E-01    0.293E-01
DAV:  12    -0.166875664821E+03   -0.29629E-02   -0.22326E-03 27680   0.216E-01    0.158E-01
DAV:  13    -0.166877057394E+03   -0.13926E-02   -0.11096E-03 24752   0.128E-01    0.529E-02
DAV:  14    -0.166877258449E+03   -0.20106E-03   -0.14309E-04 26512   0.575E-02    0.251E-02
DAV:  15    -0.166877324978E+03   -0.66529E-04   -0.66079E-05 22680   0.354E-02    0.157E-02
DAV:  16    -0.166877335134E+03   -0.10155E-04   -0.77971E-06 18072   0.138E-02    0.883E-03
DAV:  17    -0.166877339084E+03   -0.39506E-05   -0.66172E-06 15376   0.105E-02
   1 F= -.16687734E+03 E0= -.16687734E+03  d E =0.000000E+00  mag=    -0.0007
