    4    4    1    2
  0.1211829E+02  0.3942745E-09  0.3650690E-09  0.3888635E-09  0.5000000E-15
  1.000000000000000E-004
  CAR 
 unknown system                          
     14    230     12
 
  0.0000000E+00  0.0000000E+00  0.0000000E+00  0.1388889E-02
    1      -43.836520    -43.836230   1.000000   1.000000
    2      -43.591745    -43.591448   1.000000   1.000000
    3      -43.009761    -43.009567   1.000000   1.000000
    4      -10.362467    -10.362469   1.000000   1.000000
    5       -0.292363     -0.292361   1.000000   1.000000
    6        0.667979      0.668060   1.000000   1.000000
    7        0.902456      0.902433   1.000000   1.000000
    8        1.860390      1.860327   0.000000   0.000000
    9        7.435915      7.435792   0.000000   0.000000
   10        8.110236      8.109476   0.000000   0.000000
   11        8.869702      8.869667   0.000000   0.000000
   12       12.054569     12.111359   0.000000   0.000000
 
  0.1111111E+00  0.6710151E-17  0.0000000E+00  0.2777778E-02
    1      -43.831160    -43.830869   1.000000   1.000000
    2      -43.596907    -43.596610   1.000000   1.000000
    3      -43.009724    -43.009530   1.000000   1.000000
    4      -10.352405    -10.352408   1.000000   1.000000
    5       -0.232836     -0.232834   1.000000   1.000000
    6        0.222588      0.222554   1.000000   1.000000
    7        0.798193      0.798168   1.000000   1.000000
    8        2.320521      2.320466   0.000000   0.000000
    9        7.483089      7.483493   0.000000   0.000000
   10        8.367343      8.367607   0.000000   0.000000
   11        8.743296      8.743264   0.000000   0.000000
   12       11.739708     11.739572   0.000000   0.000000
 
  0.2222222E+00  0.9328436E-17  0.0000000E+00  0.2777778E-02
    1      -43.816450    -43.816159   1.000000   1.000000
    2      -43.611210    -43.610914   1.000000   1.000000
    3      -43.009685    -43.009491   1.000000   1.000000
    4      -10.326769    -10.326774   1.000000   1.000000
    5       -0.449989     -0.449999   1.000000   1.000000
    6       -0.074549     -0.074546   1.000000   1.000000
    7        0.564044      0.564020   1.000000   1.000000
    8        3.080955      3.080882   0.000000   0.000000
    9        7.316652      7.316627   0.000000   0.000000
   10        8.415438      8.415401   0.000000   0.000000
   11        9.030815      9.031763   0.000000   0.000000
   12       11.573157     11.572717   0.000000   0.000000
 
  0.3333333E+00  0.2766756E-17  0.0000000E+00  0.2777778E-02
    1      -43.796722    -43.796430   1.000000   1.000000
    2      -43.630493    -43.630197   1.000000   1.000000
    3      -43.009635    -43.009441   1.000000   1.000000
    4      -10.297266    -10.297270   1.000000   1.000000
    5       -0.979464     -0.979468   1.000000   1.000000
    6        0.120790      0.120807   1.000000   1.000000
    7        0.328626      0.328604   1.000000   1.000000
    8        3.894606      3.894518   0.000000   0.000000
    9        6.648545      6.648502   0.000000   0.000000
   10        8.022242      8.022257   0.000000   0.000000
   11        9.722132      9.722318   0.000000   0.000000
   12       12.044241     12.321195   0.000000   0.000000
 
  0.4444444E+00  0.1865687E-16  0.0000000E+00  0.2777778E-02
    1      -43.780881    -43.780589   1.000000   1.000000
    2      -43.646134    -43.645839   1.000000   1.000000
    3      -43.009645    -43.009451   1.000000   1.000000
    4      -10.277816    -10.277819   1.000000   1.000000
    5       -1.263978     -1.263978   1.000000   1.000000
    6        0.188536      0.188515   1.000000   1.000000
    7        0.258912      0.258917   1.000000   1.000000
    8        4.764360      4.764304   0.000000   0.000000
    9        5.731323      5.731305   0.000000   0.000000
   10        7.749793      7.749748   0.000000   0.000000
   11       10.071601     10.071529   0.000000   0.000000
   12       12.136413     12.136241   0.000000   0.000000
 
  0.6877164E-17  0.1000000E+00  0.0000000E+00  0.2777778E-02
    1      -43.830471    -43.830180   1.000000   1.000000
    2      -43.597550    -43.597253   1.000000   1.000000
    3      -43.009708    -43.009514   1.000000   1.000000
    4      -10.348472    -10.348476   1.000000   1.000000
    5       -0.233141     -0.233140   1.000000   1.000000
    6        0.443642      0.443626   1.000000   1.000000
    7        0.604126      0.604117   1.000000   1.000000
    8        2.229778      2.229717   0.000000   0.000000
    9        7.692688      7.693063   0.000000   0.000000
   10        8.093988      8.094114   0.000000   0.000000
   11        8.789716      8.789679   0.000000   0.000000
   12       12.001614     12.002083   0.000000   0.000000
 
  0.1111111E+00  0.1000000E+00  0.0000000E+00  0.2777778E-02
    1      -43.819989    -43.819698   1.000000   1.000000
    2      -43.607717    -43.607421   1.000000   1.000000
    3      -43.009660    -43.009467   1.000000   1.000000
    4      -10.329221    -10.329225   1.000000   1.000000
    5       -0.159852     -0.159863   1.000000   1.000000
    6       -0.123467     -0.123465   1.000000   1.000000
    7        0.515173      0.515156   1.000000   1.000000
    8        2.784854      2.784787   0.000000   0.000000
    9        7.619374      7.619510   0.000000   0.000000
   10        8.531353      8.531371   0.000000   0.000000
   11        8.585300      8.585263   0.000000   0.000000
   12       11.666532     11.666704   0.000000   0.000000
 
  0.2222222E+00  0.1000000E+00  0.0000000E+00  0.2777778E-02
    1      -43.802024    -43.801732   1.000000   1.000000
    2      -43.625328    -43.625032   1.000000   1.000000
    3      -43.009658    -43.009464   1.000000   1.000000
    4      -10.301054    -10.301061   1.000000   1.000000
    5       -0.741073     -0.741078   1.000000   1.000000
    6        0.056334      0.056337   1.000000   1.000000
    7        0.292090      0.292070   1.000000   1.000000
    8        3.543071      3.542977   0.000000   0.000000
    9        7.171484      7.171436   0.000000   0.000000
   10        8.253752      8.253715   0.000000   0.000000
   11        9.053007      9.052619   0.000000   0.000000
   12       11.902790     11.910356   0.000000   0.000000
 
  0.3333333E+00  0.1000000E+00  0.0000000E+00  0.2777778E-02
    1      -43.782767    -43.782475   1.000000   1.000000
    2      -43.644148    -43.643853   1.000000   1.000000
    3      -43.009598    -43.009405   1.000000   1.000000
    4      -10.276937    -10.276941   1.000000   1.000000
    5       -1.131413     -1.131413   1.000000   1.000000
    6        0.097274      0.097258   1.000000   1.000000
    7        0.228151      0.228153   1.000000   1.000000
    8        4.396406      4.396337   0.000000   0.000000
    9        6.349051      6.349013   0.000000   0.000000
   10        7.948024      7.947976   0.000000   0.000000
   11        9.384088      9.385154   0.000000   0.000000
   12       11.919508     11.917502   0.000000   0.000000
 
  0.4444444E+00  0.1000000E+00  0.0000000E+00  0.2777778E-02
    1      -43.773900    -43.773608   1.000000   1.000000
    2      -43.652894    -43.652599   1.000000   1.000000
    3      -43.009605    -43.009411   1.000000   1.000000
    4      -10.268640    -10.268649   1.000000   1.000000
    5       -1.266788     -1.266787   1.000000   1.000000
    6        0.016268      0.016250   1.000000   1.000000
    7        0.300407      0.300411   1.000000   1.000000
    8        5.322743      5.322702   0.000000   0.000000
    9        5.418237      5.418040   0.000000   0.000000
   10        7.822260      7.822217   0.000000   0.000000
   11        9.504288      9.504699   0.000000   0.000000
   12       11.572037     11.571976   0.000000   0.000000
 
 -0.4444444E+00  0.1000000E+00  0.0000000E+00  0.2777778E-02
    1      -43.783568    -43.783275   1.000000   1.000000
    2      -43.643372    -43.643076   1.000000   1.000000
    3      -43.009613    -43.009420   1.000000   1.000000
    4      -10.280051    -10.280056   1.000000   1.000000
    5       -1.132882     -1.132884   1.000000   1.000000
    6        0.079285      0.079267   1.000000   1.000000
    7        0.229050      0.229055   1.000000   1.000000
    8        4.510456      4.510382   0.000000   0.000000
    9        6.288259      6.288204   0.000000   0.000000
   10        7.942765      7.942728   0.000000   0.000000
   11        9.443600      9.443707   0.000000   0.000000
   12       11.796793     11.797971   0.000000   0.000000
 
 -0.3333333E+00  0.1000000E+00  0.0000000E+00  0.2777778E-02
    1      -43.802972    -43.802681   1.000000   1.000000
    2      -43.624357    -43.624061   1.000000   1.000000
    3      -43.009654    -43.009460   1.000000   1.000000
    4      -10.305599    -10.305605   1.000000   1.000000
    5       -0.756124     -0.756130   1.000000   1.000000
    6        0.057724      0.057727   1.000000   1.000000
    7        0.271401      0.271382   1.000000   1.000000
    8        3.673117      3.673022   0.000000   0.000000
    9        7.114155      7.114115   0.000000   0.000000
   10        8.234854      8.234815   0.000000   0.000000
   11        9.177048      9.177028   0.000000   0.000000
   12       11.872920     11.900627   0.000000   0.000000
 
 -0.2222222E+00  0.1000000E+00  0.0000000E+00  0.2777778E-02
    1      -43.820696    -43.820405   1.000000   1.000000
    2      -43.607049    -43.606752   1.000000   1.000000
    3      -43.009698    -43.009504   1.000000   1.000000
    4      -10.333154    -10.333158   1.000000   1.000000
    5       -0.210902     -0.210913   1.000000   1.000000
    6       -0.122255     -0.122253   1.000000   1.000000
    7        0.525566      0.525546   1.000000   1.000000
    8        2.898626      2.898575   0.000000   0.000000
    9        7.508180      7.508213   0.000000   0.000000
   10        8.556580      8.556541   0.000000   0.000000
   11        8.724653      8.724683   0.000000   0.000000
   12       11.587619     11.591133   0.000000   0.000000
 
 -0.1111111E+00  0.1000000E+00  0.0000000E+00  0.2777778E-02
    1      -43.830665    -43.830374   1.000000   1.000000
    2      -43.597296    -43.597000   1.000000   1.000000
    3      -43.009681    -43.009487   1.000000   1.000000
    4      -10.349961    -10.349964   1.000000   1.000000
    5       -0.232662     -0.232660   1.000000   1.000000
    6        0.340517      0.340505   1.000000   1.000000
    7        0.687434      0.687413   1.000000   1.000000
    8        2.277801      2.277742   0.000000   0.000000
    9        7.575552      7.575767   0.000000   0.000000
   10        8.244492      8.244758   0.000000   0.000000
   11        8.774944      8.774905   0.000000   0.000000
   12       11.949195     11.950318   0.000000   0.000000
 
  0.1375433E-16  0.2000000E+00  0.0000000E+00  0.2777778E-02
    1      -43.812957    -43.812666   1.000000   1.000000
    2      -43.614467    -43.614171   1.000000   1.000000
    3      -43.009601    -43.009407   1.000000   1.000000
    4      -10.311697    -10.311700   1.000000   1.000000
    5       -0.147387     -0.147399   1.000000   1.000000
    6       -0.071738     -0.071736   1.000000   1.000000
    7        0.261399      0.261397   1.000000   1.000000
    8        2.852017      2.851961   0.000000   0.000000
    9        7.751154      7.751234   0.000000   0.000000
   10        8.436882      8.437181   0.000000   0.000000
   11        8.602658      8.602625   0.000000   0.000000
   12       11.967994     12.026727   0.000000   0.000000
 
  0.1111111E+00  0.2000000E+00  0.0000000E+00  0.2777778E-02
    1      -43.798363    -43.798071   1.000000   1.000000
    2      -43.628694    -43.628398   1.000000   1.000000
    3      -43.009554    -43.009360   1.000000   1.000000
    4      -10.289143    -10.289149   1.000000   1.000000
    5       -0.574640     -0.574646   1.000000   1.000000
    6        0.063104      0.063106   1.000000   1.000000
    7        0.079543      0.079524   1.000000   1.000000
    8        3.416196      3.416128   0.000000   0.000000
    9        7.455869      7.455886   0.000000   0.000000
   10        8.420369      8.420335   0.000000   0.000000
   11        8.722431      8.722257   0.000000   0.000000
   12       11.969334     11.965299   0.000000   0.000000
 
  0.2222222E+00  0.2000000E+00  0.0000000E+00  0.2777778E-02
    1      -43.778812    -43.778519   1.000000   1.000000
    2      -43.647936    -43.647641   1.000000   1.000000
    3      -43.009556    -43.009362   1.000000   1.000000
    4      -10.265725    -10.265733   1.000000   1.000000
    5       -0.945813     -0.945815   1.000000   1.000000
    6       -0.150013     -0.150025   1.000000   1.000000
    7        0.226445      0.226449   1.000000   1.000000
    8        4.202792      4.202704   0.000000   0.000000
    9        6.984173      6.984122   0.000000   0.000000
   10        8.242195      8.242161   0.000000   0.000000
   11        8.563923      8.563117   0.000000   0.000000
   12       11.505230     11.505049   0.000000   0.000000
 
  0.3333333E+00  0.2000000E+00  0.0000000E+00  0.2777778E-02
    1      -43.762899    -43.762606   1.000000   1.000000
    2      -43.663515    -43.663220   1.000000   1.000000
    3      -43.009513    -43.009319   1.000000   1.000000
    4      -10.252486    -10.252495   1.000000   1.000000
    5       -1.144152     -1.144152   1.000000   1.000000
    6       -0.309947     -0.309956   1.000000   1.000000
    7        0.339464      0.339468   1.000000   1.000000
    8        5.103591      5.103426   0.000000   0.000000
    9        6.229747      6.229740   0.000000   0.000000
   10        8.161176      8.161136   0.000000   0.000000
   11        8.413541      8.413620   0.000000   0.000000
   12       10.720949     10.720918   0.000000   0.000000
 
  0.4444444E+00  0.2000000E+00  0.0000000E+00  0.2777778E-02
    1      -43.764293    -43.764001   1.000000   1.000000
    2      -43.662191    -43.661895   1.000000   1.000000
    3      -43.009550    -43.009356   1.000000   1.000000
    4      -10.255801    -10.255809   1.000000   1.000000
    5       -1.142112     -1.142113   1.000000   1.000000
    6       -0.323601     -0.323610   1.000000   1.000000
    7        0.339276      0.339278   1.000000   1.000000
    8        5.277346      5.277179   0.000000   0.000000
    9        6.125157      6.125157   0.000000   0.000000
   10        8.161665      8.161618   0.000000   0.000000
   11        8.401191      8.401582   0.000000   0.000000
   12       10.632269     10.628213   0.000000   0.000000
 
 -0.4444444E+00  0.2000000E+00  0.0000000E+00  0.2777778E-02
    1      -43.781361    -43.781069   1.000000   1.000000
    2      -43.645365    -43.645070   1.000000   1.000000
    3      -43.009553    -43.009359   1.000000   1.000000
    4      -10.273856    -10.273864   1.000000   1.000000
    5       -0.959150     -0.959154   1.000000   1.000000
    6       -0.167385     -0.167396   1.000000   1.000000
    7        0.226219      0.226223   1.000000   1.000000
    8        4.428478      4.428390   0.000000   0.000000
    9        6.912529      6.912491   0.000000   0.000000
   10        8.216629      8.216587   0.000000   0.000000
   11        8.565911      8.566218   0.000000   0.000000
   12       11.263062     11.263141   0.000000   0.000000
 
 -0.3333333E+00  0.2000000E+00  0.0000000E+00  0.2777778E-02
    1      -43.800630    -43.800338   1.000000   1.000000
    2      -43.626457    -43.626161   1.000000   1.000000
    3      -43.009579    -43.009385   1.000000   1.000000
    4      -10.298120    -10.298126   1.000000   1.000000
    5       -0.646232     -0.646241   1.000000   1.000000
    6        0.063203      0.063206   1.000000   1.000000
    7        0.115477      0.115465   1.000000   1.000000
    8        3.626204      3.626161   0.000000   0.000000
    9        7.322787      7.322767   0.000000   0.000000
   10        8.355121      8.355076   0.000000   0.000000
   11        8.890578      8.890204   0.000000   0.000000
   12       11.925289     11.883107   0.000000   0.000000
 
 -0.2222222E+00  0.2000000E+00  0.0000000E+00  0.2777778E-02
    1      -43.814187    -43.813895   1.000000   1.000000
    2      -43.613224    -43.612928   1.000000   1.000000
    3      -43.009602    -43.009408   1.000000   1.000000
    4      -10.317417    -10.317422   1.000000   1.000000
    5       -0.282568     -0.282577   1.000000   1.000000
    6       -0.071516     -0.071514   1.000000   1.000000
    7        0.378593      0.378578   1.000000   1.000000
    8        2.973476      2.973414   0.000000   0.000000
    9        7.517730      7.517962   0.000000   0.000000
   10        8.540621      8.540585   0.000000   0.000000
   11        8.751133      8.751339   0.000000   0.000000
   12       11.804934     11.805247   0.000000   0.000000
 
 -0.1111111E+00  0.2000000E+00  0.0000000E+00  0.2777778E-02
    1      -43.818637    -43.818346   1.000000   1.000000
    2      -43.608933    -43.608637   1.000000   1.000000
    3      -43.009618    -43.009424   1.000000   1.000000
    4      -10.322803    -10.322807   1.000000   1.000000
    5       -0.122851     -0.122850   1.000000   1.000000
    6       -0.017066     -0.017079   1.000000   1.000000
    7        0.401450      0.401428   1.000000   1.000000
    8        2.667434      2.667368   0.000000   0.000000
    9        7.826171      7.826252   0.000000   0.000000
   10        8.242987      8.244250   0.000000   0.000000
   11        8.655583      8.655549   0.000000   0.000000
   12       12.168418     12.165224   0.000000   0.000000
 
  0.6960993E-17  0.3000000E+00  0.0000000E+00  0.2777778E-02
    1      -43.786015    -43.785723   1.000000   1.000000
    2      -43.640714    -43.640418   1.000000   1.000000
    3      -43.009507    -43.009313   1.000000   1.000000
    4      -10.265703    -10.265710   1.000000   1.000000
    5       -0.686195     -0.686199   1.000000   1.000000
    6       -0.072754     -0.072762   1.000000   1.000000
    7        0.142198      0.142201   1.000000   1.000000
    8        3.538976      3.538907   0.000000   0.000000
    9        7.142395      7.142410   0.000000   0.000000
   10        8.415575      8.415545   0.000000   0.000000
   11        9.037696      9.037635   0.000000   0.000000
   12       12.230952     12.224222   0.000000   0.000000
 
  0.1111111E+00  0.3000000E+00  0.0000000E+00  0.2777778E-02
    1      -43.768701    -43.768408   1.000000   1.000000
    2      -43.657668    -43.657373   1.000000   1.000000
    3      -43.009453    -43.009260   1.000000   1.000000
    4      -10.247076    -10.247086   1.000000   1.000000
    5       -0.909949     -0.909950   1.000000   1.000000
    6       -0.286447     -0.286468   1.000000   1.000000
    7        0.263350      0.263353   1.000000   1.000000
    8        4.127796      4.127723   0.000000   0.000000
    9        6.787300      6.787309   0.000000   0.000000
   10        8.353631      8.353602   0.000000   0.000000
   11        8.854311      8.854362   0.000000   0.000000
   12       11.524817     11.524741   0.000000   0.000000
 
  0.2222222E+00  0.3000000E+00  0.0000000E+00  0.2777778E-02
    1      -43.749270    -43.748977   1.000000   1.000000
    2      -43.676809    -43.676514   1.000000   1.000000
    3      -43.009425    -43.009231   1.000000   1.000000
    4      -10.233981    -10.233990   1.000000   1.000000
    5       -1.017122     -1.017121   1.000000   1.000000
    6       -0.551741     -0.551747   1.000000   1.000000
    7        0.371947      0.371950   1.000000   1.000000
    8        4.959995      4.959952   0.000000   0.000000
    9        6.513187      6.513225   0.000000   0.000000
   10        8.080371      8.080248   0.000000   0.000000
   11        8.475260      8.475221   0.000000   0.000000
   12       10.324244     10.324186   0.000000   0.000000
 
  0.3333333E+00  0.3000000E+00  0.0000000E+00  0.2777778E-02
    1      -43.741214    -43.740921   1.000000   1.000000
    2      -43.684882    -43.684588   1.000000   1.000000
    3      -43.009477    -43.009283   1.000000   1.000000
    4      -10.232562    -10.232572   1.000000   1.000000
    5       -1.008782     -1.008782   1.000000   1.000000
    6       -0.705758     -0.705761   1.000000   1.000000
    7        0.413357      0.413362   1.000000   1.000000
    8        5.718217      5.718022   0.000000   0.000000
    9        6.253902      6.253815   0.000000   0.000000
   10        7.505647      7.505922   0.000000   0.000000
   11        8.708013      8.707980   0.000000   0.000000
   12        9.624792      9.624779   0.000000   0.000000
 
  0.4444444E+00  0.3000000E+00  0.0000000E+00  0.2777778E-02
    1      -43.755129    -43.754836   1.000000   1.000000
    2      -43.671139    -43.670844   1.000000   1.000000
    3      -43.009500    -43.009306   1.000000   1.000000
    4      -10.243189    -10.243198   1.000000   1.000000
    5       -1.022239     -1.022241   1.000000   1.000000
    6       -0.552316     -0.552322   1.000000   1.000000
    7        0.366153      0.366157   1.000000   1.000000
    8        5.245923      5.245795   0.000000   0.000000
    9        6.499153      6.499080   0.000000   0.000000
   10        7.877609      7.877298   0.000000   0.000000
   11        8.458486      8.458442   0.000000   0.000000
   12       10.144488     10.144455   0.000000   0.000000
 
 -0.4444444E+00  0.3000000E+00  0.0000000E+00  0.2777778E-02
    1      -43.774660    -43.774367   1.000000   1.000000
    2      -43.651841    -43.651545   1.000000   1.000000
    3      -43.009503    -43.009310   1.000000   1.000000
    4      -10.260797    -10.260802   1.000000   1.000000
    5       -0.974778     -0.974781   1.000000   1.000000
    6       -0.220585     -0.220599   1.000000   1.000000
    7        0.255632      0.255636   1.000000   1.000000
    8        4.423325      4.423257   0.000000   0.000000
    9        6.665348      6.665442   0.000000   0.000000
   10        8.249469      8.249437   0.000000   0.000000
   11        8.829237      8.829534   0.000000   0.000000
   12       11.281074     11.280714   0.000000   0.000000
 
 -0.3333333E+00  0.3000000E+00  0.0000000E+00  0.2777778E-02
    1      -43.790052    -43.789760   1.000000   1.000000
    2      -43.636725    -43.636430   1.000000   1.000000
    3      -43.009512    -43.009318   1.000000   1.000000
    4      -10.277415    -10.277422   1.000000   1.000000
    5       -0.815088     -0.815092   1.000000   1.000000
    6        0.077446      0.077425   1.000000   1.000000
    7        0.136401      0.136403   1.000000   1.000000
    8        3.731620      3.731544   0.000000   0.000000
    9        6.910802      6.910748   0.000000   0.000000
   10        8.273959      8.273922   0.000000   0.000000
   11        9.338571      9.338815   0.000000   0.000000
   12       12.056915     12.060419   0.000000   0.000000
 
 -0.2222222E+00  0.3000000E+00  0.0000000E+00  0.2777778E-02
    1      -43.797751    -43.797460   1.000000   1.000000
    2      -43.629201    -43.628905   1.000000   1.000000
    3      -43.009523    -43.009329   1.000000   1.000000
    4      -10.285407    -10.285414   1.000000   1.000000
    5       -0.604767     -0.604773   1.000000   1.000000
    6        0.062210      0.062213   1.000000   1.000000
    7        0.160386      0.160393   1.000000   1.000000
    8        3.336020      3.335938   0.000000   0.000000
    9        7.322262      7.322227   0.000000   0.000000
   10        8.412972      8.412934   0.000000   0.000000
   11        8.838814      8.840796   0.000000   0.000000
   12       12.176713     12.197056   0.000000   0.000000
 
 -0.1111111E+00  0.3000000E+00  0.0000000E+00  0.2777778E-02
    1      -43.796336    -43.796044   1.000000   1.000000
    2      -43.630591    -43.630295   1.000000   1.000000
    3      -43.009510    -43.009316   1.000000   1.000000
    4      -10.280845    -10.280848   1.000000   1.000000
    5       -0.514621     -0.514629   1.000000   1.000000
    6        0.052069      0.052072   1.000000   1.000000
    7        0.064278      0.064281   1.000000   1.000000
    8        3.276852      3.276773   0.000000   0.000000
    9        7.538435      7.538408   0.000000   0.000000
   10        8.483279      8.483247   0.000000   0.000000
   11        8.569242      8.571525   0.000000   0.000000
   12       12.290879     12.308173   0.000000   0.000000
 
  0.2761663E-16  0.4000000E+00  0.0000000E+00  0.2777778E-02
    1      -43.752948    -43.752655   1.000000   1.000000
    2      -43.673161    -43.672866   1.000000   1.000000
    3      -43.009431    -43.009237   1.000000   1.000000
    4      -10.227964    -10.227977   1.000000   1.000000
    5       -1.045253     -1.045250   1.000000   1.000000
    6       -0.308800     -0.308807   1.000000   1.000000
    7        0.329086      0.329091   1.000000   1.000000
    8        4.277810      4.277737   0.000000   0.000000
    9        6.306586      6.306651   0.000000   0.000000
   10        8.305471      8.305440   0.000000   0.000000
   11        9.315435      9.315367   0.000000   0.000000
   12       11.610400     11.611411   0.000000   0.000000
 
  0.1111111E+00  0.4000000E+00  0.0000000E+00  0.2777778E-02
    1      -43.734958    -43.734664   1.000000   1.000000
    2      -43.690922    -43.690628   1.000000   1.000000
    3      -43.009383    -43.009190   1.000000   1.000000
    4      -10.219123    -10.219138   1.000000   1.000000
    5       -1.102400     -1.102397   1.000000   1.000000
    6       -0.476706     -0.476716   1.000000   1.000000
    7        0.395345      0.395347   1.000000   1.000000
    8        4.859085      4.859016   0.000000   0.000000
    9        5.968065      5.967399   0.000000   0.000000
   10        8.383429      8.383409   0.000000   0.000000
   11        8.883690      8.883151   0.000000   0.000000
   12       10.787431     10.787014   0.000000   0.000000
 
  0.2222222E+00  0.4000000E+00  0.0000000E+00  0.2777778E-02
    1      -43.716832    -43.716538   1.000000   1.000000
    2      -43.708977    -43.708683   1.000000   1.000000
    3      -43.009385    -43.009191   1.000000   1.000000
    4      -10.217868    -10.217879   1.000000   1.000000
    5       -1.010396     -1.010393   1.000000   1.000000
    6       -0.724776     -0.724780   1.000000   1.000000
    7        0.431451      0.431455   1.000000   1.000000
    8        5.551553      5.551496   0.000000   0.000000
    9        5.917176      5.916501   0.000000   0.000000
   10        7.960302      7.961213   0.000000   0.000000
   11        8.744562      8.744549   0.000000   0.000000
   12        9.772776      9.772700   0.000000   0.000000
 
  0.3333333E+00  0.4000000E+00  0.0000000E+00  0.2777778E-02
    1      -43.732929    -43.732636   1.000000   1.000000
    2      -43.693045    -43.692751   1.000000   1.000000
    3      -43.009446    -43.009252   1.000000   1.000000
    4      -10.224399    -10.224409   1.000000   1.000000
    5       -1.013351     -1.013351   1.000000   1.000000
    6       -0.707055     -0.707058   1.000000   1.000000
    7        0.421864      0.421868   1.000000   1.000000
    8        5.669766      5.669606   0.000000   0.000000
    9        6.040297      6.040255   0.000000   0.000000
   10        7.717199      7.717805   0.000000   0.000000
   11        8.726547      8.726512   0.000000   0.000000
   12        9.698556      9.698520   0.000000   0.000000
 
  0.4444444E+00  0.4000000E+00  0.0000000E+00  0.2777778E-02
    1      -43.751143    -43.750850   1.000000   1.000000
    2      -43.674993    -43.674698   1.000000   1.000000
    3      -43.009454    -43.009260   1.000000   1.000000
    4      -10.235396    -10.235404   1.000000   1.000000
    5       -1.139683     -1.139682   1.000000   1.000000
    6       -0.388278     -0.388288   1.000000   1.000000
    7        0.372386      0.372390   1.000000   1.000000
    8        5.274522      5.274464   0.000000   0.000000
    9        5.778654      5.778579   0.000000   0.000000
   10        8.254538      8.254513   0.000000   0.000000
   11        8.699214      8.701330   0.000000   0.000000
   12       10.685134     10.685301   0.000000   0.000000
 
 -0.4444444E+00  0.4000000E+00  0.0000000E+00  0.2777778E-02
    1      -43.764966    -43.764674   1.000000   1.000000
    2      -43.661339    -43.661044   1.000000   1.000000
    3      -43.009452    -43.009258   1.000000   1.000000
    4      -10.246015    -10.246028   1.000000   1.000000
    5       -1.142991     -1.142991   1.000000   1.000000
    6       -0.120855     -0.120872   1.000000   1.000000
    7        0.305144      0.305150   1.000000   1.000000
    8        4.544573      4.544519   0.000000   0.000000
    9        6.034869      6.034956   0.000000   0.000000
   10        8.081482      8.081446   0.000000   0.000000
   11        9.576272      9.576431   0.000000   0.000000
   12       11.689975     11.692064   0.000000   0.000000
 
 -0.3333333E+00  0.4000000E+00  0.0000000E+00  0.2777778E-02
    1      -43.772565    -43.772272   1.000000   1.000000
    2      -43.653834    -43.653539   1.000000   1.000000
    3      -43.009451    -43.009257   1.000000   1.000000
    4      -10.251694    -10.251700   1.000000   1.000000
    5       -1.029714     -1.029715   1.000000   1.000000
    6       -0.062286     -0.062297   1.000000   1.000000
    7        0.250266      0.250271   1.000000   1.000000
    8        4.118408      4.118344   0.000000   0.000000
    9        6.494171      6.494147   0.000000   0.000000
   10        8.174721      8.174689   0.000000   0.000000
   11        9.300347      9.301981   0.000000   0.000000
   12       11.995868     11.992665   0.000000   0.000000
 
 -0.2222222E+00  0.4000000E+00  0.0000000E+00  0.2777778E-02
    1      -43.773034    -43.772742   1.000000   1.000000
    2      -43.653345    -43.653050   1.000000   1.000000