       N       E                     dE             d eps       ncg     rms          rms(c)
DAV:   1     0.590465833882E+02    0.59047E+02   -0.63483E+03 11048   0.117E+03
DAV:   2    -0.836006318767E+01   -0.67407E+02   -0.63063E+02 14392   0.247E+02
DAV:   3    -0.176561423717E+02   -0.92961E+01   -0.92370E+01 18384   0.723E+01
DAV:   4    -0.184113713253E+02   -0.75523E+00   -0.75437E+00 16448   0.187E+01
DAV:   5    -0.184227225701E+02   -0.11351E-01   -0.11351E-01 15992   0.268E+00    0.141E+01
RMM:   6    -0.155477797643E+02    0.28749E+01   -0.88338E+00 12767   0.161E+01    0.672E+00
RMM:   7    -0.155395089130E+02    0.82709E-02   -0.76953E-01 14384   0.933E+00    0.236E+00
RMM:   8    -0.154763246670E+02    0.63184E-01   -0.33418E-01 18132   0.406E+00    0.131E+00
RMM:   9    -0.154908568941E+02   -0.14532E-01   -0.13819E-01 17328   0.298E+00    0.518E-01
RMM:  10    -0.154952439213E+02   -0.43870E-02   -0.53903E-02 19482   0.168E+00    0.260E-01
RMM:  11    -0.154978275310E+02   -0.25836E-02   -0.22137E-02 19580   0.915E-01    0.123E-01
RMM:  12    -0.154992169664E+02   -0.13894E-02   -0.96501E-03 19583   0.698E-01    0.533E-02
RMM:  13    -0.154998431442E+02   -0.62618E-03   -0.50828E-03 19862   0.423E-01    0.465E-02
RMM:  14    -0.155000893934E+02   -0.24625E-03   -0.23117E-03 18863   0.275E-01    0.171E-02
RMM:  15    -0.155002231835E+02   -0.13379E-03   -0.12055E-03 17919   0.189E-01    0.632E-03
RMM:  16    -0.155002946047E+02   -0.71421E-04   -0.63074E-04 17053   0.133E-01    0.749E-03
RMM:  17    -0.155003328597E+02   -0.38255E-04   -0.34992E-04 16058   0.967E-02    0.723E-03
RMM:  18    -0.155003555390E+02   -0.22679E-04   -0.20362E-04 15407   0.750E-02    0.129E-02
RMM:  19    -0.155003672352E+02   -0.11696E-04   -0.11574E-04 14454   0.598E-02    0.898E-03
RMM:  20    -0.155003741118E+02   -0.68766E-05   -0.75455E-05 14343   0.516E-02
   1 F= -.15500374E+02 E0= -.15500374E+02  d E =0.000000E+00  mag=     0.0000
