 running on   12 total cores
 distrk:  each k-point on   12 cores,    1 groups
 distr:  one band on    6 cores,    2 groups
 using from now: INCAR     
 vasp.6.1.2 22Jul20 (build Mar 20 2021 11:25:07) complex                        
  
 POSCAR found type information on POSCAR P N O 
 POSCAR found :  3 types and       6 ions
 scaLAPACK will be used
 -----------------------------------------------------------------------------
|                                                                             |
|               ----> ADVICE to this user running VASP <----                  |
|                                                                             |
|     You have a (more or less) 'small supercell' and for smaller cells       |
|     it is recommended to use the reciprocal-space projection scheme!        |
|     The real-space optimization is not efficient for small cells and it     |
|     is also less accurate ...                                               |
|     Therefore, set LREAL=.FALSE. in the INCAR file.                         |
|                                                                             |
 -----------------------------------------------------------------------------

 LDA part: xc-table for Pade appr. of Perdew
 generate k-points for:    8    8   10
 POSCAR, INCAR and KPOINTS ok, starting setup
 FFT: planning ...
 WAVECAR not read
 entering main loop
       N       E                     dE             d eps       ncg     rms          rms(c)
DAV:   1     0.186578293366E+03    0.18658E+03   -0.16796E+04 28512   0.132E+03
DAV:   2    -0.387847484501E+02   -0.22536E+03   -0.21752E+03 39030   0.306E+02
DAV:   3    -0.500075603897E+02   -0.11223E+02   -0.11169E+02 36240   0.741E+01
DAV:   4    -0.501446186669E+02   -0.13706E+00   -0.13686E+00 35538   0.902E+00
DAV:   5    -0.501473885655E+02   -0.27699E-02   -0.27692E-02 35730   0.123E+00    0.291E+01
RMM:   6    -0.438363965285E+02    0.63110E+01   -0.20033E+01 28856   0.261E+01    0.129E+01
RMM:   7    -0.440637003710E+02   -0.22730E+00   -0.53216E+00 32783   0.140E+01    0.529E+00
RMM:   8    -0.440427560935E+02    0.20944E-01   -0.43458E-01 33284   0.490E+00    0.319E+00
RMM:   9    -0.440442074770E+02   -0.14514E-02   -0.13421E-01 33651   0.265E+00    0.867E-01
RMM:  10    -0.440445850242E+02   -0.37755E-03   -0.26045E-02 36385   0.112E+00    0.261E-01
RMM:  11    -0.440448467534E+02   -0.26173E-03   -0.14073E-02 35088   0.708E-01    0.234E-01
RMM:  12    -0.440448929786E+02   -0.46225E-04   -0.15115E-03 35465   0.293E-01    0.120E-01
RMM:  13    -0.440448789994E+02    0.13979E-04   -0.56203E-04 34905   0.171E-01    0.311E-02
RMM:  14    -0.440448920818E+02   -0.13082E-04   -0.10291E-04 36117   0.714E-02    0.173E-02
RMM:  15    -0.440448907183E+02    0.13635E-05   -0.20393E-05 25567   0.310E-02
   1 F= -.44044891E+02 E0= -.44044891E+02  d E =0.000000E+00  mag=    -0.0001
