   16   16    1    2
  0.1205649E+02  0.4975717E-09  0.4975717E-09  0.9116485E-09  0.5000000E-15
  1.000000000000000E-004
  CAR 
 unknown system                          
     80     60     56
 
  0.0000000E+00  0.0000000E+00  0.0000000E+00  0.5102041E-02
    1      -16.404173    -16.404174   1.000000   1.000000
    2      -15.677988    -15.677993   1.000000   1.000000
    3      -14.493433    -14.493432   1.000000   1.000000
    4      -12.312348    -12.312355   1.000000   1.000000
    5      -12.116312    -12.116325   1.000000   1.000000
    6      -11.900262    -11.900279   1.000000   1.000000
    7      -11.886472    -11.886488   1.000000   1.000000
    8      -11.711963    -11.711969   1.000000   1.000000
    9      -11.630616    -11.630624   1.000000   1.000000
   10      -11.164490    -11.164513   1.000000   1.000000
   11       -8.512915     -8.512908   1.000000   1.000000
   12       -8.288427     -8.288415   1.000000   1.000000
   13       -8.281148     -8.281143   1.000000   1.000000
   14       -5.570492     -5.570487   1.000000   1.000000
   15       -5.414252     -5.414252   1.000000   1.000000
   16       -4.707070     -4.707072   1.000000   1.000000
   17       -4.135793     -4.135799   1.000000   1.000000
   18       -3.535516     -3.535519   1.000000   1.000000
   19       -3.027993     -3.027990   1.000000   1.000000
   20       -2.985820     -2.985817   1.000000   1.000000
   21       -2.140646     -2.140652   1.000000   1.000000
   22       -2.107909     -2.107897   1.000000   1.000000
   23       -2.072755     -2.072753   1.000000   1.000000
   24       -1.555447     -1.555453   1.000000   1.000000
   25        0.294323      0.294323   1.000000   1.000000
   26        0.792857      0.792845   1.000000   1.000000
   27        0.903429      0.903414   1.000000   1.000000
   28        0.931368      0.931359   1.000000   1.000000
   29        0.946159      0.946144   1.000000   1.000000
   30        1.533197      1.533179   1.000000   1.000000
   31        1.569948      1.569941   1.000000   1.000000
   32        1.746643      1.746630   1.000000   1.000000
   33        1.747606      1.747606   1.000000   1.000000
   34        2.349665      2.349663   1.000000   1.000000
   35        2.481640      2.481635   1.000000   1.000000
   36        2.993587      2.993568   1.000000   1.000000
   37        3.143283      3.143270   1.000000   1.000000
   38        3.478513      3.478507   1.000000   1.000000
   39        3.969420      3.969405   1.000000   1.000000
   40        4.348834      4.348823   1.000000   1.000000
   41        8.894022      8.894038   0.000000   0.000000
   42        9.087520      9.087553   0.000000   0.000000
   43        9.656629      9.656636   0.000000   0.000000
   44        9.743331      9.743335   0.000000   0.000000
   45       10.005004     10.005071   0.000000   0.000000
   46       10.020185     10.020197   0.000000   0.000000
   47       10.635943     10.635959   0.000000   0.000000
   48       10.958305     10.958334   0.000000   0.000000
   49       11.082460     11.082490   0.000000   0.000000
   50       11.100421     11.100391   0.000000   0.000000
   51       11.279240     11.279271   0.000000   0.000000
   52       12.108064     12.108086   0.000000   0.000000
   53       12.329278     12.329270   0.000000   0.000000
   54       12.721917     12.721916   0.000000   0.000000
   55       12.815765     12.815771   0.000000   0.000000
   56       12.998286     12.997910   0.000000   0.000000
 
  0.1428571E+00 -0.2089522E-17 -0.1712479E-16  0.2040816E-01
    1      -16.342518    -16.342520   1.000000   1.000000
    2      -15.669641    -15.669646   1.000000   1.000000
    3      -14.442913    -14.442912   1.000000   1.000000
    4      -12.721170    -12.721174   1.000000   1.000000
    5      -12.378338    -12.378349   1.000000   1.000000
    6      -11.961935    -11.961949   1.000000   1.000000
    7      -11.835333    -11.835348   1.000000   1.000000
    8      -11.597708    -11.597719   1.000000   1.000000
    9      -11.300086    -11.300098   1.000000   1.000000
   10      -11.147111    -11.147134   1.000000   1.000000
   11       -9.006333     -9.006321   1.000000   1.000000
   12       -8.097264     -8.097260   1.000000   1.000000
   13       -7.607380     -7.607372   1.000000   1.000000
   14       -5.818751     -5.818747   1.000000   1.000000
   15       -5.243588     -5.243587   1.000000   1.000000
   16       -4.690349     -4.690351   1.000000   1.000000
   17       -4.139289     -4.139294   1.000000   1.000000
   18       -3.676487     -3.676490   1.000000   1.000000
   19       -3.060585     -3.060581   1.000000   1.000000
   20       -2.796804     -2.796802   1.000000   1.000000
   21       -2.329215     -2.329210   1.000000   1.000000
   22       -2.121284     -2.121288   1.000000   1.000000
   23       -1.927602     -1.927593   1.000000   1.000000
   24       -1.559188     -1.559195   1.000000   1.000000
   25        0.154328      0.154328   1.000000   1.000000
   26        0.532179      0.532168   1.000000   1.000000
   27        0.794369      0.794355   1.000000   1.000000
   28        1.034435      1.034424   1.000000   1.000000
   29        1.271970      1.271956   1.000000   1.000000
   30        1.474025      1.474009   1.000000   1.000000
   31        1.596962      1.596956   1.000000   1.000000
   32        1.719451      1.719447   1.000000   1.000000
   33        1.836848      1.836841   1.000000   1.000000
   34        2.285138      2.285137   1.000000   1.000000
   35        2.607420      2.607412   1.000000   1.000000
   36        2.924179      2.924163   1.000000   1.000000
   37        3.079036      3.079023   1.000000   1.000000
   38        3.410139      3.410135   1.000000   1.000000
   39        3.905963      3.905947   1.000000   1.000000
   40        4.213904      4.213895   1.000000   1.000000
   41        8.990877      8.990905   0.000000   0.000000
   42        9.102680      9.102701   0.000000   0.000000
   43        9.322985      9.323011   0.000000   0.000000
   44        9.924722      9.924738   0.000000   0.000000
   45        9.994608      9.994647   0.000000   0.000000
   46       10.227556     10.227567   0.000000   0.000000
   47       10.518352     10.518367   0.000000   0.000000
   48       10.711248     10.711265   0.000000   0.000000
   49       11.004398     11.004407   0.000000   0.000000
   50       11.435678     11.435675   0.000000   0.000000
   51       11.698525     11.698541   0.000000   0.000000
   52       11.843855     11.843870   0.000000   0.000000
   53       12.074314     12.074325   0.000000   0.000000
   54       12.724889     12.724906   0.000000   0.000000
   55       13.088434     13.088404   0.000000   0.000000
   56       13.267723     13.271242   0.000000   0.000000
 
  0.2857143E+00 -0.3319934E-16 -0.2575227E-16  0.2040816E-01
    1      -16.173342    -16.173344   1.000000   1.000000
    2      -15.668009    -15.668013   1.000000   1.000000
    3      -14.331727    -14.331727   1.000000   1.000000
    4      -13.219889    -13.219892   1.000000   1.000000
    5      -12.765084    -12.765091   1.000000   1.000000
    6      -12.093584    -12.093597   1.000000   1.000000
    7      -11.815700    -11.815713   1.000000   1.000000
    8      -11.493312    -11.493328   1.000000   1.000000
    9      -11.128380    -11.128403   1.000000   1.000000
   10      -11.039920    -11.039937   1.000000   1.000000
   11       -9.121663     -9.121647   1.000000   1.000000
   12       -7.685506     -7.685502   1.000000   1.000000
   13       -7.034079     -7.034072   1.000000   1.000000
   14       -5.993787     -5.993784   1.000000   1.000000
   15       -5.079874     -5.079874   1.000000   1.000000
   16       -4.745267     -4.745269   1.000000   1.000000
   17       -4.147103     -4.147106   1.000000   1.000000
   18       -3.852246     -3.852248   1.000000   1.000000
   19       -3.047811     -3.047808   1.000000   1.000000
   20       -2.664190     -2.664189   1.000000   1.000000
   21       -2.361795     -2.361792   1.000000   1.000000
   22       -2.161821     -2.161823   1.000000   1.000000
   23       -1.829637     -1.829628   1.000000   1.000000
   24       -1.630031     -1.630040   1.000000   1.000000
   25        0.025722      0.025724   1.000000   1.000000
   26        0.208422      0.208410   1.000000   1.000000
   27        0.617727      0.617707   1.000000   1.000000
   28        0.950794      0.950786   1.000000   1.000000
   29        1.367824      1.367811   1.000000   1.000000
   30        1.591574      1.591563   1.000000   1.000000
   31        1.643199      1.643192   1.000000   1.000000
   32        1.823071      1.823062   1.000000   1.000000
   33        2.063027      2.063022   1.000000   1.000000
   34        2.262240      2.262238   1.000000   1.000000
   35        2.623272      2.623264   1.000000   1.000000
   36        2.825080      2.825066   1.000000   1.000000
   37        2.920669      2.920655   1.000000   1.000000
   38        3.278809      3.278807   1.000000   1.000000
   39        3.762453      3.762439   1.000000   1.000000
   40        4.048322      4.048313   1.000000   1.000000
   41        8.617632      8.617678   0.000000   0.000000
   42        9.170261      9.170286   0.000000   0.000000
   43        9.498663      9.498686   0.000000   0.000000
   44        9.762519      9.762547   0.000000   0.000000
   45       10.135718     10.135740   0.000000   0.000000
   46       10.438885     10.438898   0.000000   0.000000
   47       10.569089     10.569097   0.000000   0.000000
   48       10.988650     10.988642   0.000000   0.000000
   49       11.317825     11.317849   0.000000   0.000000
   50       11.519031     11.519035   0.000000   0.000000
   51       11.734521     11.734525   0.000000   0.000000
   52       11.915474     11.915476   0.000000   0.000000
   53       12.086148     12.086174   0.000000   0.000000
   54       12.484373     12.484393   0.000000   0.000000
   55       13.119436     13.119128   0.000000   0.000000
   56       13.182491     13.181993   0.000000   0.000000
 
  0.4285714E+00 -0.3907732E-16 -0.2899927E-16  0.2040816E-01
    1      -15.956361    -15.956364   1.000000   1.000000
    2      -15.732899    -15.732903   1.000000   1.000000
    3      -14.265668    -14.265669   1.000000   1.000000
    4      -13.459840    -13.459843   1.000000   1.000000
    5      -13.034010    -13.034012   1.000000   1.000000
    6      -12.236243    -12.236255   1.000000   1.000000
    7      -11.810909    -11.810921   1.000000   1.000000
    8      -11.383748    -11.383767   1.000000   1.000000
    9      -11.146312    -11.146335   1.000000   1.000000
   10      -11.070441    -11.070458   1.000000   1.000000
   11       -8.865178     -8.865163   1.000000   1.000000
   12       -7.355582     -7.355578   1.000000   1.000000
   13       -7.111156     -7.111149   1.000000   1.000000
   14       -5.598883     -5.598882   1.000000   1.000000
   15       -5.127017     -5.127020   1.000000   1.000000
   16       -4.853210     -4.853210   1.000000   1.000000
   17       -4.189360     -4.189361   1.000000   1.000000
   18       -3.919647     -3.919649   1.000000   1.000000
   19       -2.903740     -2.903739   1.000000   1.000000
   20       -2.699527     -2.699525   1.000000   1.000000
   21       -2.337908     -2.337914   1.000000   1.000000
   22       -2.122957     -2.122950   1.000000   1.000000
   23       -1.808480     -1.808477   1.000000   1.000000
   24       -1.773682     -1.773686   1.000000   1.000000
   25       -0.022012     -0.022019   1.000000   1.000000
   26        0.029196      0.029196   1.000000   1.000000
   27        0.325026      0.325008   1.000000   1.000000
   28        0.965041      0.965028   1.000000   1.000000
   29        1.334288      1.334277   1.000000   1.000000
   30        1.625185      1.625184   1.000000   1.000000
   31        1.810796      1.810785   1.000000   1.000000
   32        1.882002      1.881987   1.000000   1.000000
   33        2.194565      2.194556   1.000000   1.000000
   34        2.312685      2.312681   1.000000   1.000000
   35        2.418888      2.418882   1.000000   1.000000
   36        2.688560      2.688551   1.000000   1.000000
   37        2.929256      2.929240   1.000000   1.000000
   38        3.210886      3.210885   1.000000   1.000000
   39        3.622599      3.622588   1.000000   1.000000
   40        4.077793      4.077781   1.000000   1.000000
   41        8.150146      8.150199   0.000000   0.000000
   42        9.213507      9.213535   0.000000   0.000000
   43        9.696581      9.696607   0.000000   0.000000
   44       10.012763     10.012774   0.000000   0.000000
   45       10.213243     10.213258   0.000000   0.000000
   46       10.658173     10.658173   0.000000   0.000000
   47       10.950224     10.950247   0.000000   0.000000
   48       11.125110     11.125154   0.000000   0.000000
   49       11.457699     11.457698   0.000000   0.000000
   50       11.623592     11.623610   0.000000   0.000000
   51       11.683433     11.683438   0.000000   0.000000
   52       11.765036     11.765045   0.000000   0.000000
   53       12.140426     12.140407   0.000000   0.000000
   54       12.193424     12.193426   0.000000   0.000000
   55       12.726138     12.726151   0.000000   0.000000
   56       13.306599     13.311341   0.000000   0.000000
 
  0.1428571E+00  0.1428571E+00 -0.3424957E-16  0.1020408E-01
    1      -16.284785    -16.284787   1.000000   1.000000
    2      -15.688982    -15.688987   1.000000   1.000000
    3      -14.329918    -14.329919   1.000000   1.000000
    4      -12.817178    -12.817185   1.000000   1.000000
    5      -12.449676    -12.449684   1.000000   1.000000
    6      -12.416519    -12.416525   1.000000   1.000000
    7      -11.710835    -11.710854   1.000000   1.000000
    8      -11.472824    -11.472837   1.000000   1.000000
    9      -11.361438    -11.361451   1.000000   1.000000
   10      -11.168808    -11.168831   1.000000   1.000000
   11       -8.294437     -8.294429   1.000000   1.000000
   12       -8.003356     -8.003346   1.000000   1.000000
   13       -8.001909     -8.001905   1.000000   1.000000
   14       -6.054804     -6.054800   1.000000   1.000000
   15       -4.905647     -4.905647   1.000000   1.000000
   16       -4.655473     -4.655474   1.000000   1.000000
   17       -4.087586     -4.087592   1.000000   1.000000
   18       -3.614130     -3.614132   1.000000   1.000000
   19       -3.142829     -3.142825   1.000000   1.000000
   20       -2.904834     -2.904836   1.000000   1.000000
   21       -2.268965     -2.268961   1.000000   1.000000
   22       -2.122189     -2.122178   1.000000   1.000000
   23       -2.003207     -2.003210   1.000000   1.000000
   24       -1.579680     -1.579686   1.000000   1.000000
   25        0.070616      0.070619   1.000000   1.000000
   26        0.477945      0.477927   1.000000   1.000000
   27        0.580900      0.580886   1.000000   1.000000
   28        1.059878      1.059870   1.000000   1.000000
   29        1.254257      1.254245   1.000000   1.000000
   30        1.548299      1.548288   1.000000   1.000000
   31        1.609176      1.609169   1.000000   1.000000
   32        1.853848      1.853843   1.000000   1.000000
   33        1.860989      1.860979   1.000000   1.000000
   34        2.327958      2.327953   1.000000   1.000000
   35        2.642049      2.642041   1.000000   1.000000
   36        2.883766      2.883750   1.000000   1.000000
   37        3.032427      3.032415   1.000000   1.000000
   38        3.358149      3.358141   1.000000   1.000000
   39        3.792713      3.792700   1.000000   1.000000
   40        4.114568      4.114560   1.000000   1.000000
   41        8.930573      8.930602   0.000000   0.000000
   42        9.248840      9.248876   0.000000   0.000000
   43        9.314927      9.314959   0.000000   0.000000
   44        9.531655      9.531675   0.000000   0.000000
   45       10.237908     10.237943   0.000000   0.000000
   46       10.247370     10.247370   0.000000   0.000000
   47       10.528517     10.528506   0.000000   0.000000
   48       10.820653     10.820682   0.000000   0.000000
   49       11.025639     11.025650   0.000000   0.000000
   50       11.165072     11.165044   0.000000   0.000000
   51       11.782148     11.782184   0.000000   0.000000
   52       12.098674     12.098689   0.000000   0.000000
   53       12.380784     12.380807   0.000000   0.000000
   54       12.584939     12.584951   0.000000   0.000000
   55       13.058868     13.058871   0.000000   0.000000
   56       13.541171     13.538325   0.000000   0.000000
 
  0.2857143E+00  0.1428571E+00 -0.4976425E-18  0.2040816E-01
    1      -16.115087    -16.115090   1.000000   1.000000
    2      -15.690773    -15.690777   1.000000   1.000000
    3      -14.179382    -14.179383   1.000000   1.000000
    4      -13.253106    -13.253110   1.000000   1.000000
    5      -12.883620    -12.883624   1.000000   1.000000
    6      -12.486356    -12.486363   1.000000   1.000000
    7      -11.678721    -11.678739   1.000000   1.000000
    8      -11.445344    -11.445359   1.000000   1.000000
    9      -11.219132    -11.219149   1.000000   1.000000
   10      -11.145379    -11.145399   1.000000   1.000000
   11       -8.333537     -8.333526   1.000000   1.000000
   12       -7.690668     -7.690664   1.000000   1.000000
   13       -7.419723     -7.419717   1.000000   1.000000
   14       -6.180069     -6.180065   1.000000   1.000000
   15       -4.743191     -4.743196   1.000000   1.000000
   16       -4.635144     -4.635144   1.000000   1.000000
   17       -4.069948     -4.069953   1.000000   1.000000
   18       -3.738578     -3.738580   1.000000   1.000000
   19       -3.217752     -3.217749   1.000000   1.000000
   20       -2.852713     -2.852716   1.000000   1.000000
   21       -2.334205     -2.334200   1.000000   1.000000
   22       -2.036882     -2.036875   1.000000   1.000000
   23       -2.026254     -2.026254   1.000000   1.000000
   24       -1.609036     -1.609041   1.000000   1.000000
   25       -0.035645     -0.035642   1.000000   1.000000
   26        0.336023      0.336008   1.000000   1.000000
   27        0.419456      0.419439   1.000000   1.000000
   28        0.885575      0.885568   1.000000   1.000000
   29        1.277732      1.277722   1.000000   1.000000
   30        1.478988      1.478979   1.000000   1.000000
   31        1.659902      1.659891   1.000000   1.000000
   32        1.988842      1.988833   1.000000   1.000000
   33        2.118756      2.118750   1.000000   1.000000
   34        2.320520      2.320515   1.000000   1.000000
   35        2.665747      2.665737   1.000000   1.000000
   36        2.788551      2.788540   1.000000   1.000000
   37        2.940615      2.940603   1.000000   1.000000
   38        3.228715      3.228709   1.000000   1.000000
   39        3.651706      3.651693   1.000000   1.000000
   40        3.932486      3.932478   1.000000   1.000000
   41        8.657166      8.657212   0.000000   0.000000
   42        9.217076      9.217106   0.000000   0.000000
   43        9.421039      9.421065   0.000000   0.000000
   44        9.853462      9.853477   0.000000   0.000000
   45       10.005689     10.005711   0.000000   0.000000
   46       10.372850     10.372867   0.000000   0.000000
   47       10.523369     10.523377   0.000000   0.000000
   48       10.990774     10.990758   0.000000   0.000000
   49       11.167447     11.167465   0.000000   0.000000
   50       11.287010     11.286991   0.000000   0.000000
   51       12.001035     12.001042   0.000000   0.000000
   52       12.250585     12.250610   0.000000   0.000000
   53       12.372528     12.372547   0.000000   0.000000
   54       12.604818     12.604840   0.000000   0.000000
   55       13.079630     13.079566   0.000000   0.000000
   56       13.195328     13.195341   0.000000   0.000000
 
  0.4285714E+00  0.1428571E+00 -0.8701137E-16  0.2040816E-01
    1      -15.890107    -15.890111   1.000000   1.000000
    2      -15.727189    -15.727193   1.000000   1.000000
    3      -14.151331    -14.151333   1.000000   1.000000
    4      -13.579508    -13.579511   1.000000   1.000000
    5      -13.126313    -13.126315   1.000000   1.000000
    6      -12.458634    -12.458640   1.000000   1.000000
    7      -11.693329    -11.693345   1.000000   1.000000
    8      -11.400482    -11.400498   1.000000   1.000000
    9      -11.223227    -11.223243   1.000000   1.000000
   10      -11.144135    -11.144158   1.000000   1.000000
   11       -8.348983     -8.348972   1.000000   1.000000
   12       -7.378097     -7.378093   1.000000   1.000000
   13       -7.179730     -7.179725   1.000000   1.000000
   14       -5.738647     -5.738645   1.000000   1.000000
   15       -5.083261     -5.083265   1.000000   1.000000
   16       -4.633062     -4.633062   1.000000   1.000000
   17       -4.035612     -4.035613   1.000000   1.000000
   18       -3.964691     -3.964693   1.000000   1.000000
   19       -3.090415     -3.090415   1.000000   1.000000
   20       -2.767091     -2.767089   1.000000   1.000000
   21       -2.417314     -2.417318   1.000000   1.000000
   22       -2.117947     -2.117946   1.000000   1.000000
   23       -1.851065     -1.851058   1.000000   1.000000
   24       -1.661772     -1.661774   1.000000   1.000000
   25       -0.069173     -0.069179   1.000000   1.000000
   26        0.182315      0.182311   1.000000   1.000000
   27        0.308234      0.308215   1.000000   1.000000
   28        0.744996      0.744989   1.000000   1.000000
   29        1.386083      1.386070   1.000000   1.000000
   30        1.569091      1.569081   1.000000   1.000000
   31        1.670756      1.670749   1.000000   1.000000
   32        1.918101      1.918092   1.000000   1.000000
   33        2.193565      2.193560   1.000000   1.000000
   34        2.327320      2.327314   1.000000   1.000000
   35        2.402624      2.402616   1.000000   1.000000
   36        2.728282      2.728273   1.000000   1.000000
   37        2.964632      2.964618   1.000000   1.000000
   38        3.225189      3.225185   1.000000   1.000000
   39        3.543701      3.543688   1.000000   1.000000
   40        3.956245      3.956234   1.000000   1.000000
   41        8.230775      8.230827   0.000000   0.000000
   42        9.485282      9.485317   0.000000   0.000000
   43        9.662105      9.662119   0.000000   0.000000
   44        9.757349      9.757367   0.000000   0.000000
   45       10.204419     10.204434   0.000000   0.000000
   46       10.426427     10.426449   0.000000   0.000000
   47       10.480500     10.480511   0.000000   0.000000
   48       11.225516     11.225527   0.000000   0.000000
   49       11.446315     11.446322   0.000000   0.000000
   50       11.611000     11.610988   0.000000   0.000000
   51       11.892151     11.892157   0.000000   0.000000
   52       12.178382     12.178367   0.000000   0.000000
   53       12.253746     12.253754   0.000000   0.000000
   54       12.576403     12.576428   0.000000   0.000000
   55       12.839508     12.839528   0.000000   0.000000
   56       13.118408     13.118906   0.000000   0.000000
 
 -0.4285714E+00  0.1428571E+00 -0.8825423E-16  0.2040816E-01
    1      -15.911948    -15.911951   1.000000   1.000000
    2      -15.652120    -15.652125   1.000000   1.000000
    3      -14.249194    -14.249195   1.000000   1.000000
    4      -13.692459    -13.692461   1.000000   1.000000
    5      -13.110636    -13.110640   1.000000   1.000000
    6      -12.191008    -12.191016   1.000000   1.000000
    7      -11.717670    -11.717686   1.000000   1.000000
    8      -11.380639    -11.380657   1.000000   1.000000
    9      -11.291256    -11.291271   1.000000   1.000000
   10      -11.131437    -11.131459   1.000000   1.000000
   11       -8.772668     -8.772655   1.000000   1.000000
   12       -7.105774     -7.105771   1.000000   1.000000
   13       -6.884805     -6.884798   1.000000   1.000000
   14       -5.588674     -5.588676   1.000000   1.000000
   15       -5.216331     -5.216329   1.000000   1.000000
   16       -4.873534     -4.873534   1.000000   1.000000
   17       -4.182143     -4.182146   1.000000   1.000000
   18       -4.060966     -4.060967   1.000000   1.000000
   19       -2.898768     -2.898767   1.000000   1.000000
   20       -2.815522     -2.815520   1.000000   1.000000
   21       -2.410970     -2.410973   1.000000   1.000000
   22       -2.047749     -2.047751   1.000000   1.000000
   23       -1.835832     -1.835830   1.000000   1.000000
   24       -1.599248     -1.599245   1.000000   1.000000
   25       -0.066993     -0.067009   1.000000   1.000000
   26        0.192889      0.192895   1.000000   1.000000
   27        0.325284      0.325265   1.000000   1.000000
   28        0.905157      0.905145   1.000000   1.000000
   29        1.351971      1.351959   1.000000   1.000000
   30        1.591593      1.591587   1.000000   1.000000
   31        1.673079      1.673063   1.000000   1.000000
   32        1.772351      1.772350   1.000000   1.000000
   33        2.056469      2.056463   1.000000   1.000000
   34        2.359427      2.359420   1.000000   1.000000
   35        2.430833      2.430830   1.000000   1.000000
   36        2.750039      2.750026   1.000000   1.000000
   37        2.878656      2.878641   1.000000   1.000000
   38        3.221396      3.221394   1.000000   1.000000
   39        3.586002      3.585990   1.000000   1.000000
   40        4.006000      4.005987   1.000000   1.000000
   41        8.238952      8.239005   0.000000   0.000000
   42        9.258082      9.258108   0.000000   0.000000
   43        9.740705      9.740735   0.000000   0.000000
   44       10.098418     10.098425   0.000000   0.000000
   45       10.170949     10.170965   0.000000   0.000000
   46       10.321348     10.321382   0.000000   0.000000
   47       10.571294     10.571301   0.000000   0.000000
   48       11.315711     11.315718   0.000000   0.000000
   49       11.393153     11.393184   0.000000   0.000000
   50       11.642719     11.642720   0.000000   0.000000
   51       11.937697     11.937709   0.000000   0.000000
   52       12.161941     12.161911   0.000000   0.000000
   53       12.283435     12.283441   0.000000   0.000000
   54       12.479396     12.479394   0.000000   0.000000
   55       12.785884     12.785900   0.000000   0.000000
   56       12.898285     12.898274   0.000000   0.000000
 
 -0.2857143E+00  0.1428571E+00 -0.4837577E-16  0.2040816E-01
    1      -16.113099    -16.113102   1.000000   1.000000
    2      -15.586825    -15.586831   1.000000   1.000000
    3      -14.369847    -14.369846   1.000000   1.000000
    4      -13.499336    -13.499338   1.000000   1.000000
    5      -12.894319    -12.894326   1.000000   1.000000
    6      -11.863708    -11.863720   1.000000   1.000000
    7      -11.747460    -11.747476   1.000000   1.000000
    8      -11.553270    -11.553285   1.000000   1.000000
    9      -11.128976    -11.128999   1.000000   1.000000
   10      -11.065317    -11.065334   1.000000   1.000000
   11       -9.396718     -9.396700   1.000000   1.000000
   12       -7.305002     -7.304999   1.000000   1.000000
   13       -6.436078     -6.436072   1.000000   1.000000
   14       -5.972407     -5.972407   1.000000   1.000000
   15       -5.514122     -5.514119   1.000000   1.000000
   16       -4.681337     -4.681341   1.000000   1.000000
   17       -4.227595     -4.227597   1.000000   1.000000
   18       -4.106500     -4.106501   1.000000   1.000000
   19       -2.992235     -2.992231   1.000000   1.000000
   20       -2.713433     -2.713432   1.000000   1.000000
   21       -2.286722     -2.286730   1.000000   1.000000
   22       -2.146975     -2.146968   1.000000   1.000000
   23       -1.773885     -1.773885   1.000000   1.000000
   24       -1.530813     -1.530814   1.000000   1.000000
   25       -0.069961     -0.069972   1.000000   1.000000
   26        0.441059      0.441054   1.000000   1.000000
   27        0.623458      0.623442   1.000000   1.000000
   28        1.080776      1.080760   1.000000   1.000000
   29        1.130687      1.130681   1.000000   1.000000
   30        1.428314      1.428299   1.000000   1.000000
   31        1.612763      1.612762   1.000000   1.000000
   32        1.834448      1.834446   1.000000   1.000000
   33        2.038733      2.038723   1.000000   1.000000
   34        2.313299      2.313299   1.000000   1.000000
   35        2.538893      2.538883   1.000000   1.000000
   36        2.782224      2.782210   1.000000   1.000000
   37        2.879891      2.879876   1.000000   1.000000
   38        3.275528      3.275526   1.000000   1.000000
   39        3.721044      3.721030   1.000000   1.000000
   40        4.002359      4.002350   1.000000   1.000000
   41        8.700023      8.700067   0.000000   0.000000
   42        9.087897      9.087917   0.000000   0.000000
   43        9.449715      9.449758   0.000000   0.000000
   44        9.751973      9.751989   0.000000   0.000000
   45       10.232749     10.232780   0.000000   0.000000
   46       10.490284     10.490305   0.000000   0.000000
   47       10.633245     10.633253   0.000000   0.000000
   48       11.077660     11.077646   0.000000   0.000000
   49       11.196861     11.196872   0.000000   0.000000
   50       11.401758     11.401777   0.000000   0.000000
   51       11.883640     11.883632   0.000000   0.000000
   52       12.056156     12.056175   0.000000   0.000000
   53       12.431315     12.431313   0.000000   0.000000
   54       12.591125     12.591125   0.000000   0.000000
   55       12.773607     12.773480   0.000000   0.000000
   56       13.155703     13.195278   0.000000   0.000000
 