       N       E                     dE             d eps       ncg     rms          rms(c)
DAV:   1     0.470955022187E+02    0.47096E+02   -0.51645E+03  4608   0.763E+02
DAV:   2    -0.102610909574E+02   -0.57357E+02   -0.54713E+02  6184   0.193E+02
DAV:   3    -0.152286745819E+02   -0.49676E+01   -0.49319E+01  7256   0.409E+01
DAV:   4    -0.153016517162E+02   -0.72977E-01   -0.72965E-01  5280   0.613E+00
DAV:   5    -0.153022134025E+02   -0.56169E-03   -0.56168E-03  6400   0.435E-01    0.116E+01
RMM:   6    -0.142166448270E+02    0.10856E+01   -0.20968E+00  5103   0.808E+00    0.503E+00
RMM:   7    -0.143097122535E+02   -0.93067E-01   -0.71103E-02  5735   0.178E+00    0.201E+00
RMM:   8    -0.143082338332E+02    0.14784E-02   -0.38207E-02  6267   0.158E+00    0.117E+00
RMM:   9    -0.143214807505E+02   -0.13247E-01   -0.23830E-02  6438   0.137E+00    0.245E-01
RMM:  10    -0.143219546823E+02   -0.47393E-03   -0.38991E-03  7151   0.452E-01    0.148E-01
RMM:  11    -0.143229362316E+02   -0.98155E-03   -0.40666E-03  6583   0.426E-01    0.227E-01
RMM:  12    -0.143225039678E+02    0.43226E-03   -0.95188E-04  6846   0.227E-01    0.920E-02
RMM:  13    -0.143224561193E+02    0.47849E-04   -0.51396E-04  7077   0.164E-01    0.166E-02
RMM:  14    -0.143224820370E+02   -0.25918E-04   -0.18349E-04  6705   0.848E-02    0.158E-02
RMM:  15    -0.143224932911E+02   -0.11254E-04   -0.74017E-05  5906   0.507E-02    0.229E-02
RMM:  16    -0.143224934050E+02   -0.11398E-06   -0.35540E-05  6003   0.406E-02
   1 F= -.14322493E+02 E0= -.14322493E+02  d E =0.000000E+00  mag=     0.0000
