    4    4    1    2
  0.1073220E+02  0.3597382E-09  0.3597382E-09  0.3830409E-09  0.5000000E-15
  1.000000000000000E-004
  CAR 
 unknown system                          
     14     70     16
 
  0.0000000E+00  0.0000000E+00  0.0000000E+00  0.1250000E-02
    1      -42.992898    -42.992105   1.000000   1.000000
    2      -42.615687    -42.614870   1.000000   1.000000
    3      -42.499212    -42.498408   1.000000   1.000000
    4      -10.008227    -10.008219   1.000000   1.000000
    5       -0.101282     -0.101218   1.000000   1.000000
    6        1.287819      1.287766   1.000000   1.000000
    7        1.287842      1.287789   1.000000   1.000000
    8        2.642428      2.641972   0.000000   0.000001
    9        8.930873      8.930878   0.000000   0.000000
   10        8.930941      8.930950   0.000000   0.000000
   11        9.964254      9.964081   0.000000   0.000000
   12       14.040731     14.040222   0.000000   0.000000
   13       14.040802     14.040281   0.000000   0.000000
   14       14.762851     14.763612   0.000000   0.000000
   15       15.772055     15.771351   0.000000   0.000000
   16       18.361997     18.361477   0.000000   0.000000
 
  0.1000000E+00  0.1345619E-17  0.0000000E+00  0.7500000E-02
    1      -42.984451    -42.983657   1.000000   1.000000
    2      -42.623812    -42.622995   1.000000   1.000000
    3      -42.499263    -42.498459   1.000000   1.000000
    4       -9.998484     -9.998479   1.000000   1.000000
    5       -0.033067     -0.033002   1.000000   1.000000
    6        0.896902      0.896820   1.000000   1.000000
    7        1.163881      1.163832   1.000000   1.000000
    8        3.012093      3.011670  -0.000000  -0.000000
    9        8.970272      8.970234   0.000000   0.000000
   10        9.226703      9.226692   0.000000   0.000000
   11        9.838439      9.838273   0.000000   0.000000
   12       13.804990     13.804541   0.000000   0.000000
   13       13.941248     13.940746   0.000000   0.000000
   14       14.827197     14.827977   0.000000   0.000000
   15       15.690509     15.689842   0.000000   0.000000
   16       17.248340     17.248016   0.000000   0.000000
 
  0.2000000E+00  0.2691239E-17  0.0000000E+00  0.7500000E-02
    1      -42.960260    -42.959465   1.000000   1.000000
    2      -42.646755    -42.645940   1.000000   1.000000
    3      -42.499296    -42.498492   1.000000   1.000000
    4       -9.972534     -9.972534   1.000000   1.000000
    5        0.154428      0.154496   1.000000   1.000000
    6        0.236948      0.236871   1.000000   1.000000
    7        0.869909      0.869868   1.000000   1.000000
    8        3.674366      3.673948   0.000000   0.000000
    9        8.825526      8.825346   0.000000   0.000000
   10        9.511980      9.511828   0.000000   0.000000
   11        9.955673      9.955596   0.000000   0.000000
   12       13.535759     13.535425   0.000000   0.000000
   13       13.830092     13.829638   0.000000   0.000000
   14       14.840322     14.840566   0.000000   0.000000
   15       15.448832     15.448602   0.000000   0.000000
   16       15.930633     15.930151   0.000000   0.000000
 
  0.3000000E+00  0.6488498E-16  0.0000000E+00  0.7500000E-02
    1      -42.924242    -42.923444   1.000000   1.000000
    2      -42.681262    -42.680448   1.000000   1.000000
    3      -42.499404    -42.498600   1.000000   1.000000
    4       -9.940651     -9.940657   1.000000   1.000000
    5       -0.339267     -0.339322   1.000000   1.000000
    6        0.407043      0.407116   1.000000   1.000000
    7        0.552766      0.552732   1.000000   1.000000
    8        4.417283      4.416856   0.000000   0.000000
    9        8.173210      8.172877   0.000000   0.000000
   10        9.101223      9.101090   0.000000   0.000000
   11       10.687105     10.686888   0.000000   0.000000
   12       13.703005     13.702834   0.000000   0.000000
   13       14.010321     14.010107   0.000000   0.000000
   14       14.128980     14.128640   0.000000   0.000000
   15       14.865856     14.865725   0.000000   0.000000
   16       16.481488     16.481261   0.000000   0.000000
 
  0.4000000E+00  0.3847502E-16  0.0000000E+00  0.7500000E-02
    1      -42.884840    -42.884039   1.000000   1.000000
    2      -42.719494    -42.718683   1.000000   1.000000
    3      -42.499531    -42.498727   1.000000   1.000000
    4       -9.914965     -9.914977   1.000000   1.000000
    5       -0.717342     -0.717378   1.000000   1.000000
    6        0.324015      0.323985   1.000000   1.000000
    7        0.632347      0.632425   1.000000   1.000000
    8        5.249880      5.249450   0.000000   0.000000
    9        7.204647      7.204231   0.000000   0.000000
   10        8.749818      8.749699   0.000000   0.000000
   11       11.036298     11.035945   0.000000   0.000000
   12       13.120651     13.120434   0.000000   0.000000
   13       13.954657     13.954676   0.000000   0.000000
   14       15.034698     15.034457   0.000000   0.000000
   15       15.072210     15.071552   0.000000   0.000000
   16       16.913134     16.913956   0.000000   0.000000
 
  0.5000000E+00  0.1765251E-16  0.0000000E+00  0.3750000E-02
    1      -42.863731    -42.862929   1.000000   1.000000
    2      -42.740145    -42.739336   1.000000   1.000000
    3      -42.499583    -42.498779   1.000000   1.000000
    4       -9.905094     -9.905108   1.000000   1.000000
    5       -0.848204     -0.848234   1.000000   1.000000
    6        0.241966      0.241938   1.000000   1.000000
    7        0.724401      0.724480   1.000000   1.000000
    8        6.125407      6.125096   0.000000   0.000000
    9        6.253405      6.252847   0.000000   0.000000
   10        8.608295      8.608182   0.000000   0.000000
   11       11.107438     11.107042   0.000000   0.000000
   12       12.823316     12.823097   0.000000   0.000000
   13       14.026057     14.026094   0.000000   0.000000
   14       15.256990     15.253941   0.000000   0.000000
   15       15.701421     15.701185   0.000000   0.000000
   16       17.018872     17.019741   0.000000   0.000000
 
  0.1000000E+00  0.1000000E+00  0.0000000E+00  0.7500000E-02
    1      -42.968078    -42.967282   1.000000   1.000000
    2      -42.639336    -42.638520   1.000000   1.000000
    3      -42.499284    -42.498480   1.000000   1.000000
    4       -9.980612     -9.980610   1.000000   1.000000
    5        0.094944      0.095011   1.000000   1.000000
    6        0.424721      0.424640   1.000000   1.000000
    7        0.939854      0.939813   1.000000   1.000000
    8        3.493416      3.492998   0.000000   0.000000
    9        8.968347      8.968214   0.000000   0.000000
   10        9.618342      9.618186   0.000000   0.000000
   11        9.664488      9.664432   0.000000   0.000000
   12       13.597363     13.597064   0.000000   0.000000
   13       13.775877     13.775427   0.000000   0.000000
   14       14.922695     14.923955   0.000000   0.000000
   15       15.803374     15.803157   0.000000   0.000000
   16       15.816224     15.815602   0.000000   0.000000
 
  0.2000000E+00  0.1000000E+00  0.0000000E+00  0.1500000E-01
    1      -42.937701    -42.936904   1.000000   1.000000
    2      -42.668246    -42.667432   1.000000   1.000000
    3      -42.499365    -42.498561   1.000000   1.000000
    4       -9.951786     -9.951791   1.000000   1.000000
    5       -0.123108     -0.123172   1.000000   1.000000
    6        0.316189      0.316260   1.000000   1.000000
    7        0.608104      0.608070   1.000000   1.000000
    8        4.165805      4.165378   0.000000   0.000000
    9        8.617869      8.617577   0.000000   0.000000
   10        9.281762      9.281622   0.000000   0.000000
   11       10.187447     10.187285   0.000000   0.000000
   12       13.635911     13.635666   0.000000   0.000000
   13       13.898245     13.897916   0.000000   0.000000
   14       14.183081     14.182903   0.000000   0.000000
   15       15.057485     15.057721   0.000000   0.000000
   16       16.302274     16.301804   0.000000   0.000000
 
  0.3000000E+00  0.1000000E+00  0.0000000E+00  0.1500000E-01
    1      -42.898787    -42.897988   1.000000   1.000000
    2      -42.705857    -42.705045   1.000000   1.000000
    3      -42.499553    -42.498749   1.000000   1.000000
    4       -9.923258     -9.923268   1.000000   1.000000
    5       -0.554136     -0.554179   1.000000   1.000000
    6        0.315972      0.315943   1.000000   1.000000
    7        0.558381      0.558457   1.000000   1.000000
    8        4.943841      4.943402   0.000000   0.000000
    9        7.796266      7.795865   0.000000   0.000000
   10        8.955216      8.955091   0.000000   0.000000
   11       10.512169     10.511887   0.000000   0.000000
   12       12.962915     12.962741   0.000000   0.000000
   13       13.932936     13.932866   0.000000   0.000000
   14       14.553453     14.553190   0.000000   0.000000
   15       15.377278     15.377106   0.000000   0.000000
   16       16.850845     16.850621   0.000000   0.000000
 
  0.4000000E+00  0.1000000E+00  0.0000000E+00  0.1500000E-01
    1      -42.863882    -42.863080   1.000000   1.000000
    2      -42.739898    -42.739088   1.000000   1.000000
    3      -42.499662    -42.498858   1.000000   1.000000
    4       -9.905736     -9.905751   1.000000   1.000000
    5       -0.785774     -0.785804   1.000000   1.000000
    6        0.151179      0.151152   1.000000   1.000000
    7        0.720867      0.720947   1.000000   1.000000
    8        5.825636      5.825188   0.000000   0.000000
    9        6.799386      6.798946   0.000000   0.000000
   10        8.750931      8.750816   0.000000   0.000000
   11       10.616253     10.615906   0.000000   0.000000
   12       12.319900     12.319723   0.000000   0.000000
   13       14.072716     14.072728   0.000000   0.000000
   14       15.374289     15.373378   0.000000   0.000000
   15       15.895533     15.894822   0.000000   0.000000
   16       17.011561     17.013658   0.000000   0.000000
 
  0.2000000E+00  0.2000000E+00  0.0000000E+00  0.7500000E-02
    1      -42.903645    -42.902846   1.000000   1.000000
    2      -42.701081    -42.700269   1.000000   1.000000
    3      -42.499595    -42.498791   1.000000   1.000000
    4       -9.926660     -9.926671   1.000000   1.000000
    5       -0.447080     -0.447128   1.000000   1.000000
    6        0.255667      0.255642   1.000000   1.000000
    7        0.529686      0.529761   1.000000   1.000000
    8        4.858317      4.857871   0.000000   0.000000
    9        8.222722      8.222303   0.000000   0.000000
   10        9.092467      9.092336   0.000000   0.000000
   11        9.982236      9.982009   0.000000   0.000000
   12       12.710044     12.709899   0.000000   0.000000
   13       13.972516     13.972407   0.000000   0.000000
   14       14.341566     14.341316   0.000000   0.000000
   15       15.672345     15.672520   0.000000   0.000000
   16       16.924927     16.924439   0.000000   0.000000
 
  0.3000000E+00  0.2000000E+00  0.0000000E+00  0.1500000E-01
    1      -42.864198    -42.863396   1.000000   1.000000
    2      -42.739454    -42.738644   1.000000   1.000000
    3      -42.499796    -42.498992   1.000000   1.000000
    4       -9.906719     -9.906735   1.000000   1.000000
    5       -0.651404     -0.651435   1.000000   1.000000
    6       -0.027887     -0.027910   1.000000   1.000000
    7        0.715178      0.715257   1.000000   1.000000
    8        5.673865      5.673390   0.000000   0.000000
    9        7.494684      7.494210   0.000000   0.000000
   10        9.042538      9.042418   0.000000   0.000000
   11        9.765680      9.765426   0.000000   0.000000
   12       11.589766     11.589629   0.000000   0.000000
   13       14.176047     14.176013   0.000000   0.000000
   14       15.121907     15.121708   0.000000   0.000000
   15       16.486675     16.486837   0.000000   0.000000
   16       17.341888     17.341928   0.000000   0.000000
 
  0.4000000E+00  0.2000000E+00  0.0000000E+00  0.7500000E-02
    1      -42.839881    -42.839078   1.000000   1.000000
    2      -42.763348    -42.762539   1.000000   1.000000
    3      -42.499874    -42.499070   1.000000   1.000000
    4       -9.899190     -9.899208   1.000000   1.000000
    5       -0.718284     -0.718309   1.000000   1.000000
    6       -0.135733     -0.135755   1.000000   1.000000
    7        0.789471      0.789552   1.000000   1.000000
    8        6.452458      6.451900   0.000000   0.000000
    9        6.712560      6.712148   0.000000   0.000000
   10        9.066668      9.066552   0.000000   0.000000
   11        9.698941      9.698676   0.000000   0.000000
   12       11.149062     11.148924   0.000000   0.000000
   13       14.222391     14.222379   0.000000   0.000000
   14       15.717160     15.716948   0.000000   0.000000
   15       16.881040     16.882579   0.000000   0.000000
   16       17.100713     17.099094   0.000000   0.000000
 
  0.3000000E+00  0.3000000E+00  0.0000000E+00  0.7500000E-02
    1      -42.825324    -42.824519   1.000000   1.000000
    2      -42.777723    -42.776915   1.000000   1.000000
    3      -42.500015    -42.499212   1.000000   1.000000
    4       -9.896934     -9.896953   1.000000   1.000000
    5       -0.600508     -0.600532   1.000000   1.000000
    6       -0.340777     -0.340797   1.000000   1.000000
    7        0.814825      0.814906   1.000000   1.000000
    8        6.455587      6.455059   0.000000   0.000000
    9        7.124592      7.124056   0.000000   0.000000
   10        9.135340      9.135169   0.000000   0.000000
   11        9.449544      9.449424   0.000000   0.000000
   12       10.438710     10.438586   0.000000   0.000000
   13       14.297265     14.297203   0.000000   0.000000
   14       15.864228     15.860332   0.000000   0.000000
   15       16.729092     16.729509   0.000000   0.000000
   16       18.278615     18.028876   0.000000   0.000000
 
  0.0000000E+00  0.0000000E+00  0.1250000E+00  0.2500000E-02
    1      -42.992401    -42.991608   1.000000   1.000000
    2      -42.615768    -42.614951   1.000000   1.000000
    3      -42.499528    -42.498724   1.000000   1.000000
    4      -10.017438    -10.017431   1.000000   1.000000
    5       -0.359969     -0.359964   1.000000   1.000000
    6        1.317366      1.317314   1.000000   1.000000
    7        1.317389      1.317337   1.000000   1.000000
    8        3.091997      3.091601  -0.000000  -0.000000
    9        9.027936      9.027947   0.000000   0.000000
   10        9.028005      9.028020   0.000000   0.000000
   11        9.790854      9.790735   0.000000   0.000000
   12       13.646577     13.646115   0.000000   0.000000
   13       13.646646     13.646172   0.000000   0.000000
   14       15.046307     15.046770   0.000000   0.000000
   15       15.360856     15.360172   0.000000   0.000000
   16       18.528560     18.527653   0.000000   0.000000
 
  0.1000000E+00  0.1345619E-17  0.1250000E+00  0.1500000E-01
    1      -42.983960    -42.983165   1.000000   1.000000
    2      -42.623732    -42.622915   1.000000   1.000000
    3      -42.499496    -42.498692   1.000000   1.000000
    4      -10.008206    -10.008202   1.000000   1.000000
    5       -0.295250     -0.295250   1.000000   1.000000
    6        1.012271      1.012221   1.000000   1.000000
    7        1.195280      1.195228   1.000000   1.000000
    8        3.361109      3.360720  -0.000000  -0.000000
    9        9.055021      9.054980   0.000000   0.000000
   10        9.319879      9.319871   0.000000   0.000000
   11        9.688446      9.688327   0.000000   0.000000
   12       13.446845     13.446422   0.000000   0.000000
   13       13.480262     13.479816   0.000000   0.000000
   14       14.956643     14.956245   0.000000   0.000000
   15       15.104609     15.104515   0.000000   0.000000
   16       18.130735     18.119310   0.000000   0.000000
 
  0.2000000E+00  0.2691239E-17  0.1250000E+00  0.1500000E-01
    1      -42.959861    -42.959065   1.000000   1.000000
    2      -42.646746    -42.645931   1.000000   1.000000
    3      -42.499496    -42.498692   1.000000   1.000000
    4       -9.984368     -9.984370   1.000000   1.000000
    5       -0.165018     -0.165046   1.000000   1.000000
    6        0.497293      0.497294   1.000000   1.000000
    7        0.905101      0.905060   1.000000   1.000000
    8        3.876038      3.875640   0.000000   0.000000
    9        8.696310      8.696138   0.000000   0.000000
   10        9.627941      9.627813   0.000000   0.000000
   11       10.026028     10.025948   0.000000   0.000000
   12       13.022436     13.022158   0.000000   0.000000
   13       13.246472     13.246100   0.000000   0.000000
   14       14.589511     14.589104   0.000000   0.000000
   15       15.287007     15.287079   0.000000   0.000000
   16       17.210492     17.210157   0.000000   0.000000
 
  0.3000000E+00  0.6488498E-16  0.1250000E+00  0.1500000E-01
    1      -42.923985    -42.923187   1.000000   1.000000
    2      -42.681213    -42.680399   1.000000   1.000000
    3      -42.499515    -42.498711   1.000000   1.000000
    4       -9.954982     -9.954989   1.000000   1.000000
    5       -0.330250     -0.330307   1.000000   1.000000
    6        0.413076      0.413143   1.000000   1.000000
    7        0.591451      0.591418   1.000000   1.000000
    8        4.429948      4.429531   0.000000   0.000000
    9        7.814000      7.813725   0.000000   0.000000
   10        9.609370      9.609194   0.000000   0.000000
   11       10.659273     10.659032   0.000000   0.000000
   12       12.740027     12.739902   0.000000   0.000000
   13       13.469966     13.469749   0.000000   0.000000
   14       14.303234     14.302912   0.000000   0.000000
   15       15.471989     15.471944   0.000000   0.000000
   16       17.053748     17.053246   0.000000   0.000000
 
  0.4000000E+00  0.3847502E-16  0.1250000E+00  0.1500000E-01
    1      -42.884693    -42.883892   1.000000   1.000000
    2      -42.719332    -42.718521   1.000000   1.000000
    3      -42.499520    -42.498716   1.000000   1.000000
    4       -9.931378     -9.931391   1.000000   1.000000
    5       -0.636272     -0.636307   1.000000   1.000000
    6        0.364906      0.364878   1.000000   1.000000
    7        0.631280      0.631355   1.000000   1.000000
    8        4.996691      4.996253   0.000000   0.000000
    9        6.847467      6.847141   0.000000   0.000000
   10        9.575464      9.575276   0.000000   0.000000
   11       10.860263     10.859897   0.000000   0.000000
   12       12.300131     12.299997   0.000000   0.000000
   13       14.271701     14.271602   0.000000   0.000000
   14       14.304212     14.304065   0.000000   0.000000
   15       15.736162     15.735928   0.000000   0.000000
   16       17.200298     17.200407   0.000000   0.000000
 
  0.5000000E+00  0.1765251E-16  0.1250000E+00  0.7500000E-02
    1      -42.863574    -42.862771   1.000000   1.000000
    2      -42.740040    -42.739230   1.000000   1.000000
    3      -42.499530    -42.498726   1.000000   1.000000
    4       -9.922458     -9.922474   1.000000   1.000000
    5       -0.753123     -0.753147   1.000000   1.000000
    6        0.283591      0.283565   1.000000   1.000000
    7        0.737959      0.738038   1.000000   1.000000
    8        5.394727      5.394257   0.000000   0.000000
    9        6.280597      6.280278   0.000000   0.000000
   10        9.570175      9.569989   0.000000   0.000000
   11       10.873912     10.873515   0.000000   0.000000
   12       12.062993     12.062817   0.000000   0.000000
   13       14.338088     14.337999   0.000000   0.000000
   14       14.762862     14.762792   0.000000   0.000000
   15       15.966216     15.963559   0.000000   0.000000
   16       17.165290     17.165298   0.000000   0.000000
 
  0.1000000E+00  0.1000000E+00  0.1250000E+00  0.1500000E-01
    1      -42.967656    -42.966861   1.000000   1.000000
    2      -42.639284    -42.638468   1.000000   1.000000
    3      -42.499493    -42.498689   1.000000   1.000000
    4       -9.991746     -9.991745   1.000000   1.000000
    5       -0.192639     -0.192653   1.000000   1.000000
    6        0.632037      0.632015   1.000000   1.000000
    7        0.975334      0.975292   1.000000   1.000000
    8        3.734931      3.734536   0.000000   0.000000
    9        9.045871      9.045729   0.000000   0.000000
   10        9.310731      9.310629   0.000000   0.000000
   11        9.939350      9.939286   0.000000   0.000000
   12       12.998048     12.997708   0.000000   0.000000
   13       13.369285     13.368929   0.000000   0.000000
   14       14.898280     14.897721   0.000000   0.000000
   15       15.103824     15.104253   0.000000   0.000000
   16       17.371974     17.371558   0.000000   0.000000
 
  0.2000000E+00  0.1000000E+00  0.1250000E+00  0.3000000E-01
    1      -42.937417    -42.936620   1.000000   1.000000
    2      -42.668206    -42.667391   1.000000   1.000000
    3      -42.499502    -42.498698   1.000000   1.000000
    4       -9.965218     -9.965225   1.000000   1.000000
    5       -0.202741     -0.202801   1.000000   1.000000
    6        0.384518      0.384573   1.000000   1.000000
    7        0.650063      0.650030   1.000000   1.000000
    8        4.244776      4.244364   0.000000   0.000000
    9        8.428783      8.428518   0.000000   0.000000
   10        9.272103      9.271937   0.000000   0.000000
   11       10.476931     10.476772   0.000000   0.000000
   12       12.659740     12.659594   0.000000   0.000000
   13       13.416960     13.416716   0.000000   0.000000
   14       14.703677     14.703242   0.000000   0.000000
   15       15.366314     15.366319   0.000000   0.000000
   16       16.926823     16.926343   0.000000   0.000000
 
  0.3000000E+00  0.1000000E+00  0.1250000E+00  0.3000000E-01
    1      -42.898569    -42.897769   1.000000   1.000000
    2      -42.705773    -42.704961   1.000000   1.000000
    3      -42.499565    -42.498761   1.000000   1.000000
    4       -9.939042     -9.939053   1.000000   1.000000
    5       -0.494064     -0.494107   1.000000   1.000000
    6        0.358223      0.358197   1.000000   1.000000
    7        0.559125      0.559197   1.000000   1.000000
    8        4.792909      4.792475   0.000000   0.000000
    9        7.438127      7.437787   0.000000   0.000000
   10        9.378237      9.378042   0.000000   0.000000
   11       10.604218     10.603954   0.000000   0.000000
   12       12.425585     12.425497   0.000000   0.000000
   13       13.812758     13.812656   0.000000   0.000000
   14       14.592430     14.592115   0.000000   0.000000
   15       15.786758     15.786609   0.000000   0.000000
   16       17.115885     17.117892   0.000000   0.000000
 
  0.4000000E+00  0.1000000E+00  0.1250000E+00  0.3000000E-01
    1      -42.863801    -42.862999   1.000000   1.000000
    2      -42.739775    -42.738965   1.000000   1.000000
    3      -42.499620    -42.498816   1.000000   1.000000
    4       -9.923040     -9.923057   1.000000   1.000000
    5       -0.695297     -0.695323   1.000000   1.000000
    6        0.197173      0.197148   1.000000   1.000000
    7        0.738062      0.738142   1.000000   1.000000
    8        5.333117      5.332654   0.000000   0.000000
    9        6.570314      6.569956   0.000000   0.000000
   10        9.593234      9.593047   0.000000   0.000000
   11       10.339562     10.339278   0.000000   0.000000
   12       12.183352     12.183198   0.000000   0.000000
   13       14.152190     14.152156   0.000000   0.000000
   14       14.823791     14.823572   0.000000   0.000000
   15       16.361396     16.360240   0.000000   0.000000
   16       17.164919     17.167390   0.000000   0.000000
 
  0.2000000E+00  0.2000000E+00  0.1250000E+00  0.1500000E-01
    1      -42.903422    -42.902623   1.000000   1.000000
    2      -42.701039    -42.700227   1.000000   1.000000
    3      -42.499610    -42.498806   1.000000   1.000000
    4       -9.942189     -9.942200   1.000000   1.000000
    5       -0.404409     -0.404458   1.000000   1.000000
    6        0.307390      0.307365   1.000000   1.000000
    7        0.534469      0.534541   1.000000   1.000000
    8        4.732177      4.731740   0.000000   0.000000
    9        8.007466      8.007028   0.000000   0.000000
   10        8.849018      8.848910   0.000000   0.000000
   11       10.608791     10.608566   0.000000   0.000000
   12       12.232934     12.232876   0.000000   0.000000
   13       13.728414     13.728332   0.000000   0.000000
   14       14.921979     14.921584   0.000000   0.000000
   15       15.869033     15.868981   0.000000   0.000000
   16       17.147255     17.146439   0.000000   0.000000
 
  0.3000000E+00  0.2000000E+00  0.1250000E+00  0.3000000E-01
    1      -42.864055    -42.863253   1.000000   1.000000
    2      -42.739386    -42.738576   1.000000   1.000000
    3      -42.499719    -42.498915   1.000000   1.000000
    4       -9.924016     -9.924033   1.000000   1.000000
    5       -0.571781     -0.571810   1.000000   1.000000
    6        0.030863      0.030843   1.000000   1.000000
    7        0.735967      0.736046   1.000000   1.000000
    8        5.275781      5.275319   0.000000   0.000000
    9        7.124850      7.124396   0.000000   0.000000
   10        9.076325      9.076178   0.000000   0.000000
   11       10.342195     10.341974   0.000000   0.000000
   12       11.748071     11.747976   0.000000   0.000000
   13       13.975021     13.974902   0.000000   0.000000
   14       15.308047     15.307741   0.000000   0.000000
   15       16.683220     16.683460   0.000000   0.000000
   16       17.381013     17.381134   0.000000   0.000000
 
  0.4000000E+00  0.2000000E+00  0.1250000E+00  0.1500000E-01
    1      -42.839844    -42.839040   1.000000   1.000000
    2      -42.763257    -42.762449   1.000000   1.000000
    3      -42.499802    -42.498998   1.000000   1.000000
    4       -9.917201     -9.917221   1.000000   1.000000
    5       -0.629135     -0.629156   1.000000   1.000000
    6       -0.075021     -0.075041   1.000000   1.000000
    7        0.823431      0.823514   1.000000   1.000000
    8        5.680977      5.680493   0.000000   0.000000
    9        6.547490      6.547052   0.000000   0.000000
   10        9.471566      9.471374   0.000000   0.000000
   11        9.914703      9.914534   0.000000   0.000000
   12       11.566342     11.566205   0.000000   0.000000
   13       14.059701     14.059694   0.000000   0.000000
   14       15.628086     15.627787   0.000000   0.000000
   15       17.049237     17.051271   0.000000   0.000000
   16       17.279610     17.280790   0.000000   0.000000
 
  0.3000000E+00  0.3000000E+00  0.1250000E+00  0.1500000E-01
    1      -42.825244    -42.824440   1.000000   1.000000
    2      -42.777651    -42.776844   1.000000   1.000000
    3      -42.499885    -42.499081   1.000000   1.000000
    4       -9.915165     -9.915185   1.000000   1.000000
    5       -0.517593     -0.517613   1.000000   1.000000
    6       -0.267998     -0.268015   1.000000   1.000000
    7        0.854700      0.854785   1.000000   1.000000
    8        5.841738      5.841250   0.000000   0.000000
    9        6.579337      6.578834   0.000000   0.000000
   10        9.136597      9.136466   0.000000   0.000000
   11       10.298887     10.298716   0.000000   0.000000
   12       10.930362     10.930243   0.000000   0.000000
   13       14.072759     14.072711   0.000000   0.000000
   14       16.090135     16.089720   0.000000   0.000000
   15       16.883314     16.885669   0.000000   0.000000
   16       18.242029     18.219226   0.000000   0.000000
 
  0.0000000E+00  0.0000000E+00  0.2500000E+00  0.2500000E-02
    1      -42.991180    -42.990386   1.000000   1.000000
    2      -42.615663    -42.614845   1.000000   1.000000
    3      -42.500268    -42.499464   1.000000   1.000000
    4      -10.039211    -10.039206   1.000000   1.000000
    5       -0.812075     -0.812139   1.000000   1.000000
    6        1.390615      1.390565   1.000000   1.000000
    7        1.390638      1.390588   1.000000   1.000000
    8        4.067103      4.066776   0.000000   0.000000
    9        9.289063      9.289096   0.000000   0.000000
   10        9.289135      9.289172   0.000000   0.000000
   11        9.351005      9.350972   0.000000   0.000000
   12       12.877066     12.876666   0.000000   0.000000
   13       12.877133     12.876722   0.000000   0.000000
   14       14.715604     14.714888   0.000000   0.000000
   15       15.772165     15.774128   0.000000   0.000000
   16       16.775548     16.775192   0.000000   0.000000
 
  0.1000000E+00  0.1345619E-17  0.2500000E+00  0.1500000E-01
    1      -42.982817    -42.982023   1.000000   1.000000
    2      -42.623675    -42.622857   1.000000   1.000000
    3      -42.500192    -42.499387   1.000000   1.000000
    4      -10.031804    -10.031801   1.000000   1.000000
    5       -0.726491     -0.726556   1.000000   1.000000
    6        1.168256      1.168221   1.000000   1.000000
    7        1.273133      1.273087   1.000000   1.000000
    8        4.170687      4.170350   0.000000   0.000000
    9        9.151186      9.151153   0.000000   0.000000
   10        9.490225      9.490209   0.000000   0.000000
   11        9.574504      9.574517   0.000000   0.000000
   12       12.586290     12.585906   0.000000   0.000000
   13       12.591648     12.591271   0.000000   0.000000
   14       14.126812     14.126268   0.000000   0.000000
   15       15.785102     15.785125   0.000000   0.000000
   16       17.347650     17.347228   0.000000   0.000000
 
  0.2000000E+00  0.2691239E-17  0.2500000E+00  0.1500000E-01