       N       E                     dE             d eps       ncg     rms          rms(c)
DAV:   1     0.154376089448E+03    0.15438E+03   -0.11808E+04  3456   0.117E+03
DAV:   2     0.138562671744E+01   -0.15299E+03   -0.14464E+03  3808   0.294E+02
DAV:   3    -0.234546477648E+02   -0.24840E+02   -0.24627E+02  6032   0.684E+01
DAV:   4    -0.263719849313E+02   -0.29173E+01   -0.28946E+01  5264   0.316E+01
DAV:   5    -0.266099501371E+02   -0.23797E+00   -0.23795E+00  5536   0.701E+00    0.148E+01
RMM:   6    -0.270559753268E+02   -0.44603E+00   -0.16808E+00  4168   0.603E+00    0.750E+00
RMM:   7    -0.277520460132E+02   -0.69607E+00   -0.48384E-01  4655   0.399E+00    0.274E+00
RMM:   8    -0.278313186148E+02   -0.79273E-01   -0.38513E-01  5311   0.282E+00    0.113E+00
RMM:   9    -0.278403549571E+02   -0.90363E-02   -0.92849E-02  5625   0.164E+00    0.495E-01
RMM:  10    -0.278479187078E+02   -0.75638E-02   -0.41911E-02  5875   0.980E-01    0.267E-01
RMM:  11    -0.278501346394E+02   -0.22159E-02   -0.15581E-02  5998   0.571E-01    0.193E-01
RMM:  12    -0.278509112201E+02   -0.77658E-03   -0.58725E-03  5805   0.440E-01    0.482E-02
RMM:  13    -0.278515195789E+02   -0.60836E-03   -0.33874E-03  6071   0.268E-01    0.218E-02
RMM:  14    -0.278517361658E+02   -0.21659E-03   -0.16522E-03  5985   0.171E-01    0.232E-02
RMM:  15    -0.278518258402E+02   -0.89674E-04   -0.76582E-04  5276   0.112E-01    0.180E-02
RMM:  16    -0.278518699488E+02   -0.44109E-04   -0.37905E-04  5163   0.797E-02    0.196E-02
RMM:  17    -0.278519198005E+02   -0.49852E-04   -0.24544E-04  5180   0.691E-02    0.462E-02
RMM:  18    -0.278518853842E+02    0.34416E-04   -0.19549E-04  4959   0.635E-02    0.883E-03
RMM:  19    -0.278519007138E+02   -0.15330E-04   -0.84905E-05  4649   0.413E-02    0.226E-03
RMM:  20    -0.278519039793E+02   -0.32655E-05   -0.44668E-05  3904   0.325E-02
   1 F= -.27851904E+02 E0= -.27851904E+02  d E =0.000000E+00  mag=    -0.0000
