Automatically generated mesh
      64
Reciprocal lattice
    0.00000000000000    0.00000000000000    0.00000000000000             1
    0.14285714285715    0.00000000000000    0.00000000000000             4
    0.28571428571428   -0.00000000000000    0.00000000000000             4
    0.42857142857143   -0.00000000000000    0.00000000000000             4
    0.14285714285715    0.14285714285715    0.00000000000000             2
    0.28571428571428    0.14285714285715    0.00000000000000             4
    0.42857142857143    0.14285714285715    0.00000000000000             4
   -0.42857142857143    0.14285714285715    0.00000000000000             4
   -0.28571428571428    0.14285714285715    0.00000000000000             4
   -0.14285714285715    0.14285714285715    0.00000000000000             2
    0.28571428571428    0.28571428571428    0.00000000000000             2
    0.42857142857143    0.28571428571428    0.00000000000000             4
   -0.42857142857143    0.28571428571428    0.00000000000000             4
   -0.28571428571428    0.28571428571428    0.00000000000000             2
    0.42857142857143    0.42857142857143    0.00000000000000             2
   -0.42857142857143    0.42857142857143    0.00000000000000             2
    0.00000000000000    0.00000000000000    0.14285714285714             2
    0.14285714285715    0.00000000000000    0.14285714285714             8
    0.28571428571428   -0.00000000000000    0.14285714285714             8
    0.42857142857143   -0.00000000000000    0.14285714285714             8
    0.14285714285715    0.14285714285715    0.14285714285714             4
    0.28571428571428    0.14285714285715    0.14285714285714             8
    0.42857142857143    0.14285714285715    0.14285714285714             8
   -0.42857142857143    0.14285714285715    0.14285714285714             8
   -0.28571428571428    0.14285714285715    0.14285714285714             8
   -0.14285714285715    0.14285714285715    0.14285714285714             4
    0.28571428571428    0.28571428571428    0.14285714285714             4
    0.42857142857143    0.28571428571428    0.14285714285714             8
   -0.42857142857143    0.28571428571428    0.14285714285714             8
   -0.28571428571428    0.28571428571428    0.14285714285714             4
    0.42857142857143    0.42857142857143    0.14285714285714             4
   -0.42857142857143    0.42857142857143    0.14285714285714             4
    0.00000000000000    0.00000000000000    0.28571428571429             2
    0.14285714285715    0.00000000000000    0.28571428571429             8
    0.28571428571428   -0.00000000000000    0.28571428571429             8
    0.42857142857143   -0.00000000000000    0.28571428571429             8
    0.14285714285715    0.14285714285715    0.28571428571429             4
    0.28571428571428    0.14285714285715    0.28571428571429             8
    0.42857142857143    0.14285714285715    0.28571428571429             8
   -0.42857142857143    0.14285714285715    0.28571428571429             8
   -0.28571428571428    0.14285714285715    0.28571428571429             8
   -0.14285714285715    0.14285714285715    0.28571428571429             4
    0.28571428571428    0.28571428571428    0.28571428571429             4
    0.42857142857143    0.28571428571428    0.28571428571429             8
   -0.42857142857143    0.28571428571428    0.28571428571429             8
   -0.28571428571428    0.28571428571428    0.28571428571429             4
    0.42857142857143    0.42857142857143    0.28571428571429             4
   -0.42857142857143    0.42857142857143    0.28571428571429             4
    0.00000000000000    0.00000000000000    0.42857142857143             2
    0.14285714285715    0.00000000000000    0.42857142857143             8
    0.28571428571428   -0.00000000000000    0.42857142857143             8
    0.42857142857143   -0.00000000000000    0.42857142857143             8
    0.14285714285715    0.14285714285715    0.42857142857143             4
    0.28571428571428    0.14285714285715    0.42857142857143             8
    0.42857142857143    0.14285714285715    0.42857142857143             8
   -0.42857142857143    0.14285714285715    0.42857142857143             8
   -0.28571428571428    0.14285714285715    0.42857142857143             8
   -0.14285714285715    0.14285714285715    0.42857142857143             4
    0.28571428571428    0.28571428571428    0.42857142857143             4
    0.42857142857143    0.28571428571428    0.42857142857143             8
   -0.42857142857143    0.28571428571428    0.42857142857143             8
   -0.28571428571428    0.28571428571428    0.42857142857143             4
    0.42857142857143    0.42857142857143    0.42857142857143             4
   -0.42857142857143    0.42857142857143    0.42857142857143             4
Tetrahedra
       517    0.00048590864917
         4         1         2         2        18
         4         2         2         5        18
         4         2         5        18        21
         4         1         2        17        18
         4         2        17        18        18
         4         2        18        18        21
         4         2         3         5        19
         4         3         5         6        19
         4         5         6        19        22
         4         2         5        18        19
         4         5        18        19        21
         4         5        19        21        22
         4         3         4         6        20
         4         4         6         7        20
         4         6         7        20        23
         4         3         6        19        20
         4         6        19        20        22
         4         6        20        22        23
         4         4         4         7        20
         4         4         7         8        20
         4         7         8        20        24
         4         4         7        20        20
         4         7        20        20        23
         4         7        20        23        24
         4         3         4         8        19
         4         3         8         9        19
         4         8         9        19        25
         4         4         8        19        20
         4         8        19        20        24
         4         8        19        24        25
         4         2         3         9        18
         4         2         9        10        18
         4         9        10        18        26
         4         3         9        18        19
         4         9        18        19        25
         4         9        18        25        26
         4         1         2        10        17
         4         2        10        17        18
         4        10        17        18        26
         4         2         3         5        21
         4         3         5         6        21
         4         3         6        21        22
         4         2         3        18        21
         4         3        18        19        21
         4         3        19        21        22
         4         5         6         6        22
         4         6         6        11        22
         4         6        11        22        27
         4         5         6        21        22
         4         6        21        22        22
         4         6        22        22        27
         4         6         7        11        23
         4         7        11        12        23
         4        11        12        23        28
         4         6        11        22        23
         4        11        22        23        27
         4        11        23        27        28
         4         7         8        12        24
         4         8        12        13        24
         4        12        13        24        29
         4         7        12        23        24
         4        12        23        24        28
         4        12        24        28        29
         4         8         9        13        25
         4         9        13        14        25
         4        13        14        25        30
         4         8        13        24        25
         4        13        24        25        29
         4        13        25        29        30
         4         9        10        14        26
         4         9        14        25        26
         4        14        25        26        30
         4         3         4         6        22
         4         4         6         7        22
         4         4         7        22        23
         4         3         4        19        22
         4         4        19        20        22
         4         4        20        22        23
         4         6         7        11        27
         4         7        11        12        27
         4         7        12        27        28
         4         6         7        22        27
         4         7        22        23        27
         4         7        23        27        28
         4        11        12        12        28
         4        12        12        15        28
         4        12        15        28        31
         4        11        12        27        28
         4        12        27        28        28
         4        12        28        28        31
         4        12        13        15        29
         4        13        15        16        29
         4        15        16        29        32
         4        12        15        28        29
         4        15        28        29        31
         4        15        29        31        32
         4        13        14        16        30
         4        13        16        29        30
         4        16        29        30        32
         4         4         4         7        23
         4         4         7         8        23
         4         4         8        23        24
         4         4         4        20        23
         4         4        20        20        23
         4         4        20        23        24
         4         7         8        12        28
         4         8        12        13        28
         4         8        13        28        29
         4         7         8        23        28
         4         8        23        24        28
         4         8        24        28        29
         4        12        13        15        31
         4        13        15        16        31
         4        13        16        31        32
         4        12        13        28        31
         4        13        28        29        31
         4        13        29        31        32
         4        15        16        16        32
         4        15        16        31        32
         4        16        31        32        32
         4         3         4         8        24
         4         3         8         9        24
         4         3         9        24        25
         4         3         4        20        24
         4         3        19        20        24
         4         3        19        24        25
         4         8         9        13        29
         4         9        13        14        29
         4         9        14        29        30
         4         8         9        24        29
         4         9        24        25        29
         4         9        25        29        30
         4        13        14        16        32
         4        13        14        29        32
         4        14        29        30        32
         4         2         3         9        25
         4         2         9        10        25
         4         2        10        25        26
         4         2         3        19        25
         4         2        18        19        25
         4         2        18        25        26
         4         9        10        14        30
         4         9        10        25        30
         4        10        25        26        30
         4         1         2        10        26
         4         1         2        18        26
         4         1        17        18        26
         4        17        18        18        34
         4        18        18        21        34
         4        18        21        34        37
         4        17        18        33        34
         4        18        33        34        34
         4        18        34        34        37
         4        18        19        21        35
         4        19        21        22        35
         4        21        22        35        38
         4        18        21        34        35
         4        21        34        35        37
         4        21        35        37        38
         4        19        20        22        36
         4        20        22        23        36
         4        22        23        36        39
         4        19        22        35        36
         4        22        35        36        38
         4        22        36        38        39
         4        20        20        23        36
         4        20        23        24        36
         4        23        24        36        40
         4        20        23        36        36
         4        23        36        36        39
         4        23        36        39        40
         4        19        20        24        35
         4        19        24        25        35
         4        24        25        35        41
         4        20        24        35        36
         4        24        35        36        40
         4        24        35        40        41
         4        18        19        25        34
         4        18        25        26        34
         4        25        26        34        42
         4        19        25        34        35
         4        25        34        35        41
         4        25        34        41        42
         4        17        18        26        33
         4        18        26        33        34
         4        26        33        34        42
         4        18        19        21        37
         4        19        21        22        37
         4        19        22        37        38
         4        18        19        34        37
         4        19        34        35        37
         4        19        35        37        38
         4        21        22        22        38
         4        22        22        27        38
         4        22        27        38        43
         4        21        22        37        38
         4        22        37        38        38
         4        22        38        38        43
         4        22        23        27        39
         4        23        27        28        39
         4        27        28        39        44
         4        22        27        38        39
         4        27        38        39        43
         4        27        39        43        44
         4        23        24        28        40
         4        24        28        29        40
         4        28        29        40        45
         4        23        28        39        40
         4        28        39        40        44
         4        28        40        44        45
         4        24        25        29        41
         4        25        29        30        41
         4        29        30        41        46
         4        24        29        40        41
         4        29        40        41        45
         4        29        41        45        46
         4        25        26        30        42
         4        25        30        41        42
         4        30        41        42        46
         4        19        20        22        38
         4        20        22        23        38
         4        20        23        38        39
         4        19        20        35        38
         4        20        35        36        38
         4        20        36        38        39
         4        22        23        27        43
         4        23        27        28        43
         4        23        28        43        44
         4        22        23        38        43
         4        23        38        39        43
         4        23        39        43        44
         4        27        28        28        44
         4        28        28        31        44
         4        28        31        44        47
         4        27        28        43        44
         4        28        43        44        44
         4        28        44        44        47
         4        28        29        31        45
         4        29        31        32        45
         4        31        32        45        48
         4        28        31        44        45
         4        31        44        45        47
         4        31        45        47        48
         4        29        30        32        46
         4        29        32        45        46
         4        32        45        46        48
         4        20        20        23        39
         4        20        23        24        39
         4        20        24        39        40
         4        20        20        36        39
         4        20        36        36        39
         4        20        36        39        40
         4        23        24        28        44
         4        24        28        29        44
         4        24        29        44        45
         4        23        24        39        44
         4        24        39        40        44
         4        24        40        44        45
         4        28        29        31        47
         4        29        31        32        47
         4        29        32        47        48
         4        28        29        44        47
         4        29        44        45        47
         4        29        45        47        48
         4        31        32        32        48
         4        31        32        47        48
         4        32        47        48        48
         4        19        20        24        40
         4        19        24        25        40
         4        19        25        40        41
         4        19        20        36        40
         4        19        35        36        40
         4        19        35        40        41
         4        24        25        29        45
         4        25        29        30        45
         4        25        30        45        46
         4        24        25        40        45
         4        25        40        41        45
         4        25        41        45        46
         4        29        30        32        48
         4        29        30        45        48
         4        30        45        46        48
         4        18        19        25        41
         4        18        25        26        41
         4        18        26        41        42
         4        18        19        35        41
         4        18        34        35        41
         4        18        34        41        42
         4        25        26        30        46
         4        25        26        41        46
         4        26        41        42        46
         4        17        18        26        42
         4        17        18        34        42
         4        17        33        34        42
         4        33        34        34        50
         4        34        34        37        50
         4        34        37        50        53
         4        33        34        49        50
         4        34        49        50        50
         4        34        50        50        53
         4        34        35        37        51
         4        35        37        38        51
         4        37        38        51        54
         4        34        37        50        51
         4        37        50        51        53
         4        37        51        53        54
         4        35        36        38        52
         4        36        38        39        52
         4        38        39        52        55
         4        35        38        51        52
         4        38        51        52        54
         4        38        52        54        55
         4        36        36        39        52
         4        36        39        40        52
         4        39        40        52        56
         4        36        39        52        52
         4        39        52        52        55
         4        39        52        55        56
         4        35        36        40        51
         4        35        40        41        51
         4        40        41        51        57
         4        36        40        51        52
         4        40        51        52        56
         4        40        51        56        57
         4        34        35        41        50
         4        34        41        42        50
         4        41        42        50        58
         4        35        41        50        51
         4        41        50        51        57
         4        41        50        57        58
         4        33        34        42        49
         4        34        42        49        50
         4        42        49        50        58
         4        34        35        37        53
         4        35        37        38        53
         4        35        38        53        54
         4        34        35        50        53
         4        35        50        51        53
         4        35        51        53        54
         4        37        38        38        54
         4        38        38        43        54
         4        38        43        54        59
         4        37        38        53        54
         4        38        53        54        54
         4        38        54        54        59
         4        38        39        43        55
         4        39        43        44        55
         4        43        44        55        60
         4        38        43        54        55
         4        43        54        55        59
         4        43        55        59        60
         4        39        40        44        56
         4        40        44        45        56
         4        44        45        56        61
         4        39        44        55        56
         4        44        55        56        60
         4        44        56        60        61
         4        40        41        45        57
         4        41        45        46        57
         4        45        46        57        62
         4        40        45        56        57
         4        45        56        57        61
         4        45        57        61        62
         4        41        42        46        58
         4        41        46        57        58
         4        46        57        58        62
         4        35        36        38        54
         4        36        38        39        54
         4        36        39        54        55
         4        35        36        51        54
         4        36        51        52        54
         4        36        52        54        55
         4        38        39        43        59
         4        39        43        44        59
         4        39        44        59        60
         4        38        39        54        59
         4        39        54        55        59
         4        39        55        59        60
         4        43        44        44        60
         4        44        44        47        60
         4        44        47        60        63
         4        43        44        59        60
         4        44        59        60        60
         4        44        60        60        63
         4        44        45        47        61
         4        45        47        48        61
         4        47        48        61        64
         4        44        47        60        61
         4        47        60        61        63
         4        47        61        63        64
         4        45        46        48        62
         4        45        48        61        62
         4        48        61        62        64
         4        36        36        39        55
         4        36        39        40        55
         4        36        40        55        56
         4        36        36        52        55
         4        36        52        52        55
         4        36        52        55        56
         4        39        40        44        60
         4        40        44        45        60
         4        40        45        60        61
         4        39        40        55        60
         4        40        55        56        60
         4        40        56        60        61
         4        44        45        47        63
         4        45        47        48        63
         4        45        48        63        64
         4        44        45        60        63
         4        45        60        61        63
         4        45        61        63        64
         4        47        48        48        64
         4        47        48        63        64
         4        48        63        64        64
         4        35        36        40        56
         4        35        40        41        56
         4        35        41        56        57
         4        35        36        52        56
         4        35        51        52        56
         4        35        51        56        57
         4        40        41        45        61
         4        41        45        46        61
         4        41        46        61        62
         4        40        41        56        61
         4        41        56        57        61
         4        41        57        61        62
         4        45        46        48        64
         4        45        46        61        64
         4        46        61        62        64
         4        34        35        41        57
         4        34        41        42        57
         4        34        42        57        58
         4        34        35        51        57
         4        34        50        51        57
         4        34        50        57        58
         4        41        42        46        62
         4        41        42        57        62
         4        42        57        58        62
         4        33        34        42        58
         4        33        34        50        58
         4        33        49        50        58
         4        49        50        50        50
         4        50        50        50        53
         2        50        50        53        53
         2        49        49        50        50
         4        50        51        51        53
         4        51        51        53        54
         4        51        53        54        54
         4        50        50        51        53
         4        50        51        53        53
         4        51        53        53        54
         4        51        52        52        54
         4        52        52        54        55
         4        52        54        55        55
         4        51        51        52        54
         4        51        52        54        54
         4        52        54        54        55
         8        52        52        52        55
         4        52        52        55        56
         4        52        55        56        56
         4        52        52        55        55
         4        52        55        55        56
         4        51        51        52        56
         4        51        51        56        57
         4        51        56        57        57
         4        51        52        52        56
         4        51        52        56        56
         4        51        56        56        57
         4        50        50        51        57
         4        50        50        57        58
         4        50        57        58        58
         4        50        51        51        57
         4        50        51        57        57
         4        50        57        57        58
         4        49        49        50        58
         4        49        50        50        58
         4        49        50        58        58
         4        53        54        54        54
         4        54        54        54        59
         2        54        54        59        59
         2        53        53        54        54
         4        54        55        55        59
         4        55        55        59        60
         4        55        59        60        60
         4        54        54        55        59
         4        54        55        59        59
         4        55        59        59        60
         4        55        56        56        60
         4        56        56        60        61
         4        56        60        61        61
         4        55        55        56        60
         4        55        56        60        60