    6    6    1    2
  0.1311453E+02  0.4867460E-09  0.4867460E-09  0.4867460E-09  0.5000000E-15
  1.000000000000000E-004
  CAR 
 unknown system                          
     32    296     22
 
  0.0000000E+00  0.0000000E+00  0.0000000E+00  0.1562500E-02
    1      -19.910412    -19.910387   1.000000   1.000000
    2      -17.709706    -17.709626   1.000000   1.000000
    3      -13.986692    -13.986519   1.000000   1.000000
    4      -12.530884    -12.530666   1.000000   1.000000
    5      -11.571614    -11.571626   1.000000   1.000000
    6       -6.811125     -6.811107   1.000000   1.000000
    7       -5.650638     -5.650585   1.000000   1.000000
    8       -5.609444     -5.609396   1.000000   1.000000
    9       -2.570908     -2.570992   1.000000   1.000000
   10       -1.888869     -1.888898   1.000000   1.000000
   11       -0.827939     -0.827948   1.000000   1.000000
   12       -0.755246     -0.755169   1.000000   1.000000
   13        0.325864      0.325864   1.000000   1.000000
   14        0.520167      0.520241   1.000000   1.000000
   15        1.214301      1.214358   1.000000   1.000000
   16        1.933622      1.933629   1.000000   1.000000
   17        7.280545      7.280360   0.000002   0.000005
   18        7.508306      7.508006   0.000000   0.000000
   19        8.842444      8.842244   0.000000   0.000000
   20       10.295829     10.295384   0.000000   0.000000
   21       10.498285     10.498093   0.000000   0.000000
   22       11.620768     11.620537   0.000000   0.000000
 
  0.1250000E+00  0.1106031E-16 -0.2671791E-16  0.3125000E-02
    1      -19.886208    -19.886183   1.000000   1.000000
    2      -17.714252    -17.714172   1.000000   1.000000
    3      -14.063275    -14.063113   1.000000   1.000000
    4      -12.868928    -12.868753   1.000000   1.000000
    5      -11.096999    -11.096960   1.000000   1.000000
    6       -6.781478     -6.781459   1.000000   1.000000
    7       -5.686960     -5.686901   1.000000   1.000000
    8       -5.574029     -5.573976   1.000000   1.000000
    9       -2.544418     -2.544501   1.000000   1.000000
   10       -1.915363     -1.915390   1.000000   1.000000
   11       -0.972261     -0.972217   1.000000   1.000000
   12       -0.771226     -0.771223   1.000000   1.000000
   13        0.360620      0.360635   1.000000   1.000000
   14        0.455669      0.455724   1.000000   1.000000
   15        1.169992      1.170043   1.000000   1.000000
   16        1.926573      1.926586   1.000000   1.000000
   17        7.458093      7.457911  -0.000000  -0.000000
   18        7.649073      7.648821   0.000000   0.000000
   19        8.655362      8.655111   0.000000   0.000000
   20       10.414333     10.414079   0.000000   0.000000
   21       10.509808     10.509420   0.000000   0.000000
   22       11.494590     11.494356   0.000000   0.000000
 
  0.2500000E+00  0.2212062E-16 -0.5343582E-16  0.3125000E-02
    1      -19.825512    -19.825485   1.000000   1.000000
    2      -17.725467    -17.725388   1.000000   1.000000
    3      -14.287679    -14.287545   1.000000   1.000000
    4      -13.232047    -13.231874   1.000000   1.000000
    5      -10.346497    -10.346436   1.000000   1.000000
    6       -6.706466     -6.706441   1.000000   1.000000
    7       -5.799819     -5.799736   1.000000   1.000000
    8       -5.468219     -5.468158   1.000000   1.000000
    9       -2.474388     -2.474466   1.000000   1.000000
   10       -2.035607     -2.035636   1.000000   1.000000
   11       -1.358460     -1.358450   1.000000   1.000000
   12       -0.694463     -0.694473   1.000000   1.000000
   13        0.317346      0.317388   1.000000   1.000000
   14        0.397554      0.397570   1.000000   1.000000
   15        1.094957      1.094996   1.000000   1.000000
   16        1.874590      1.874616   1.000000   1.000000
   17        7.737259      7.737008   0.000000   0.000000
   18        7.883586      7.883506   0.000000   0.000000
   19        8.766346      8.766023   0.000000   0.000000
   20       10.183547     10.183316   0.000000   0.000000
   21       10.723459     10.723100   0.000000   0.000000
   22       11.423604     11.423140   0.000000   0.000000
 
  0.3750000E+00 -0.2233022E-16 -0.2464258E-16  0.3125000E-02
    1      -19.761298    -19.761270   1.000000   1.000000
    2      -17.737457    -17.737380   1.000000   1.000000
    3      -14.541261    -14.541148   1.000000   1.000000
    4      -13.400290    -13.400108   1.000000   1.000000
    5       -9.727739     -9.727678   1.000000   1.000000
    6       -6.628224     -6.628191   1.000000   1.000000
    7       -5.918865     -5.918744   1.000000   1.000000
    8       -5.367521     -5.367454   1.000000   1.000000
    9       -2.412359     -2.412428   1.000000   1.000000
   10       -2.288173     -2.288232   1.000000   1.000000
   11       -1.595095     -1.595103   1.000000   1.000000
   12       -0.547689     -0.547704   1.000000   1.000000
   13        0.125700      0.125724   1.000000   1.000000
   14        0.330179      0.330192   1.000000   1.000000
   15        1.160780      1.160816   1.000000   1.000000
   16        1.736513      1.736550   1.000000   1.000000
   17        7.750434      7.750208   0.000000   0.000000
   18        8.232079      8.231992   0.000000   0.000000
   19        9.357352      9.357123   0.000000   0.000000
   20        9.905179      9.904875   0.000000   0.000000
   21       10.703343     10.703032   0.000000   0.000000
   22       11.621403     11.620519   0.000000   0.000000
 
  0.5000000E+00  0.4424125E-16 -0.1068716E-15  0.3125000E-02
    1      -19.733586    -19.733557   1.000000   1.000000
    2      -17.742609    -17.742532   1.000000   1.000000
    3      -14.647877    -14.647770   1.000000   1.000000
    4      -13.445808    -13.445625   1.000000   1.000000
    5       -9.480292     -9.480234   1.000000   1.000000
    6       -6.595947     -6.595910   1.000000   1.000000
    7       -5.970882     -5.970740   1.000000   1.000000
    8       -5.328021     -5.327951   1.000000   1.000000
    9       -2.504565     -2.504642   1.000000   1.000000
   10       -2.314545     -2.314613   1.000000   1.000000
   11       -1.650903     -1.650912   1.000000   1.000000
   12       -0.407132     -0.407149   1.000000   1.000000
   13       -0.069225     -0.069207   1.000000   1.000000
   14        0.312747      0.312755   1.000000   1.000000
   15        1.260188      1.260221   1.000000   1.000000
   16        1.618778      1.618822   1.000000   1.000000
   17        7.805933      7.805697   0.000000   0.000000
   18        8.362784      8.362721   0.000000   0.000000
   19        9.423360      9.423183   0.000000   0.000000
   20       10.214432     10.214090   0.000000   0.000000
   21       10.541427     10.541085   0.000000   0.000000
   22       11.548748     11.547598   0.000000   0.000000
 
 -0.1491545E-16  0.1250000E+00 -0.5901229E-17  0.3125000E-02
    1      -19.842949    -19.842923   1.000000   1.000000
    2      -17.811744    -17.811667   1.000000   1.000000
    3      -14.110410    -14.110248   1.000000   1.000000
    4      -12.544430    -12.544213   1.000000   1.000000
    5      -11.320153    -11.320153   1.000000   1.000000
    6       -6.839674     -6.839653   1.000000   1.000000
    7       -5.726667     -5.726622   1.000000   1.000000
    8       -5.470594     -5.470527   1.000000   1.000000
    9       -2.604192     -2.604276   1.000000   1.000000
   10       -1.895723     -1.895753   1.000000   1.000000
   11       -0.926412     -0.926412   1.000000   1.000000
   12       -0.776011     -0.775959   1.000000   1.000000
   13        0.352008      0.352034   1.000000   1.000000
   14        0.454028      0.454068   1.000000   1.000000
   15        1.119026      1.119074   1.000000   1.000000
   16        1.930504      1.930513   1.000000   1.000000
   17        7.532351      7.532183  -0.000000  -0.000001
   18        7.681892      7.681614   0.000000   0.000000
   19        8.911802      8.911607   0.000000   0.000000
   20       10.095564     10.095154   0.000000   0.000000
   21       10.534161     10.533917   0.000000   0.000000
   22       11.750219     11.749985   0.000000   0.000000
 
  0.1250000E+00  0.1250000E+00 -0.5343582E-16  0.3125000E-02
    1      -19.800608    -19.800581   1.000000   1.000000
    2      -17.823649    -17.823574   1.000000   1.000000
    3      -14.305159    -14.305014   1.000000   1.000000
    4      -12.797185    -12.796993   1.000000   1.000000
    5      -10.765354    -10.765315   1.000000   1.000000
    6       -6.811981     -6.811956   1.000000   1.000000
    7       -5.742026     -5.741970   1.000000   1.000000
    8       -5.450262     -5.450191   1.000000   1.000000
    9       -2.546040     -2.546120   1.000000   1.000000
   10       -1.984129     -1.984162   1.000000   1.000000
   11       -1.108687     -1.108662   1.000000   1.000000
   12       -0.797604     -0.797606   1.000000   1.000000
   13        0.272396      0.272436   1.000000   1.000000
   14        0.458117      0.458134   1.000000   1.000000
   15        1.022364      1.022406   1.000000   1.000000
   16        1.949211      1.949231   1.000000   1.000000
   17        7.753081      7.752905  -0.000000  -0.000001
   18        7.881339      7.881125   0.000000   0.000000
   19        8.857466      8.857222   0.000000   0.000000
   20       10.252235     10.251899   0.000000   0.000000
   21       10.498568     10.498253   0.000000   0.000000
   22       11.517885     11.517407   0.000000   0.000000
 
  0.2500000E+00  0.1250000E+00 -0.8015373E-16  0.3125000E-02
    1      -19.734092    -19.734063   1.000000   1.000000
    2      -17.841983    -17.841908   1.000000   1.000000
    3      -14.515060    -14.514934   1.000000   1.000000
    4      -13.118525    -13.118342   1.000000   1.000000
    5      -10.032322    -10.032263   1.000000   1.000000
    6       -6.805624     -6.805588   1.000000   1.000000
    7       -5.792904     -5.792820   1.000000   1.000000
    8       -5.363016     -5.362941   1.000000   1.000000
    9       -2.476186     -2.476260   1.000000   1.000000
   10       -2.168557     -2.168602   1.000000   1.000000
   11       -1.446703     -1.446706   1.000000   1.000000
   12       -0.702487     -0.702502   1.000000   1.000000
   13        0.224382      0.224413   1.000000   1.000000
   14        0.383403      0.383419   1.000000   1.000000
   15        0.963857      0.963890   1.000000   1.000000
   16        1.914590      1.914625   1.000000   1.000000
   17        7.868544      7.868349   0.000000   0.000000
   18        8.206137      8.206009   0.000000   0.000000
   19        9.067267      9.066994   0.000000   0.000000
   20       10.144235     10.143931   0.000000   0.000000
   21       10.594834     10.594578   0.000000   0.000000
   22       11.443888     11.443723   0.000000   0.000000
 
  0.3750000E+00  0.1250000E+00 -0.1068716E-15  0.6250000E-02
    1      -19.681766    -19.681737   1.000000   1.000000
    2      -17.856253    -17.856179   1.000000   1.000000
    3      -14.632294    -14.632180   1.000000   1.000000
    4      -13.344173    -13.343991   1.000000   1.000000
    5       -9.487479     -9.487419   1.000000   1.000000
    6       -6.848066     -6.848014   1.000000   1.000000
    7       -5.832253     -5.832146   1.000000   1.000000
    8       -5.272427     -5.272347   1.000000   1.000000
    9       -2.507941     -2.508014   1.000000   1.000000
   10       -2.316154     -2.316219   1.000000   1.000000
   11       -1.638427     -1.638445   1.000000   1.000000
   12       -0.514160     -0.514176   1.000000   1.000000
   13        0.068147      0.068169   1.000000   1.000000
   14        0.301443      0.301450   1.000000   1.000000
   15        1.085895      1.085927   1.000000   1.000000
   16        1.771146      1.771190   1.000000   1.000000
   17        7.911675      7.911455   0.000000   0.000000
   18        8.372771      8.372694   0.000000   0.000000
   19        9.315933      9.315712   0.000000   0.000000
   20       10.175699     10.175341   0.000000   0.000000
   21       10.662724     10.662542   0.000000   0.000000
   22       11.563458     11.561138   0.000000   0.000000
 
  0.5000000E+00  0.1250000E+00 -0.1304346E-15  0.6250000E-02
    1      -19.678041    -19.678011   1.000000   1.000000
    2      -17.856485    -17.856411   1.000000   1.000000
    3      -14.565188    -14.565076   1.000000   1.000000
    4      -13.481423    -13.481243   1.000000   1.000000
    5       -9.381508     -9.381448   1.000000   1.000000
    6       -6.877575     -6.877520   1.000000   1.000000
    7       -5.834473     -5.834362   1.000000   1.000000
    8       -5.240659     -5.240578   1.000000   1.000000
    9       -2.503987     -2.504058   1.000000   1.000000
   10       -2.361805     -2.361874   1.000000   1.000000
   11       -1.678217     -1.678235   1.000000   1.000000
   12       -0.463961     -0.463976   1.000000   1.000000
   13        0.035005      0.035024   1.000000   1.000000
   14        0.327412      0.327421   1.000000   1.000000
   15        1.272234      1.272265   1.000000   1.000000
   16        1.597214      1.597259   1.000000   1.000000
   17        7.779757      7.779539   0.000000   0.000000
   18        8.364826      8.364737   0.000000   0.000000
   19        9.344580      9.344366   0.000000   0.000000
   20       10.512222     10.511855   0.000000   0.000000
   21       10.604285     10.603962   0.000000   0.000000
   22       11.502159     11.501160   0.000000   0.000000
 
 -0.3750000E+00  0.1250000E+00 -0.8534206E-16  0.3125000E-02
    1      -19.725358    -19.725330   1.000000   1.000000
    2      -17.842545    -17.842470   1.000000   1.000000
    3      -14.305270    -14.305148   1.000000   1.000000
    4      -13.530241    -13.530066   1.000000   1.000000
    5       -9.763963     -9.763898   1.000000   1.000000
    6       -6.857618     -6.857580   1.000000   1.000000
    7       -5.801955     -5.801861   1.000000   1.000000
    8       -5.286140     -5.286061   1.000000   1.000000
    9       -2.492779     -2.492854   1.000000   1.000000
   10       -2.201833     -2.201877   1.000000   1.000000
   11       -1.595284     -1.595295   1.000000   1.000000
   12       -0.637306     -0.637320   1.000000   1.000000
   13        0.227504      0.227523   1.000000   1.000000
   14        0.415001      0.415027   1.000000   1.000000
   15        1.252007      1.252049   1.000000   1.000000
   16        1.678734      1.678765   1.000000   1.000000
   17        7.592896      7.592688   0.000000   0.000000
   18        8.160864      8.160738   0.000000   0.000000
   19        9.296687      9.296419   0.000000   0.000000
   20       10.100600     10.100319   0.000000   0.000000
   21       10.869310     10.869083   0.000000   0.000000
   22       11.642146     11.634324   0.000000   0.000000
 
 -0.2500000E+00  0.1250000E+00 -0.2721574E-16  0.3125000E-02
    1      -19.792291    -19.792264   1.000000   1.000000
    2      -17.824181    -17.824105   1.000000   1.000000
    3      -14.028210    -14.028055   1.000000   1.000000
    4      -13.373386    -13.373230   1.000000   1.000000
    5      -10.416841    -10.416780   1.000000   1.000000
    6       -6.849805     -6.849780   1.000000   1.000000
    7       -5.747547     -5.747480   1.000000   1.000000
    8       -5.379652     -5.379579   1.000000   1.000000
    9       -2.580933     -2.581015   1.000000   1.000000
   10       -1.934578     -1.934599   1.000000   1.000000
   11       -1.318624     -1.318609   1.000000   1.000000
   12       -0.780651     -0.780665   1.000000   1.000000
   13        0.325133      0.325162   1.000000   1.000000
   14        0.493460      0.493492   1.000000   1.000000
   15        1.203941      1.203991   1.000000   1.000000
   16        1.830060      1.830080   1.000000   1.000000
   17        7.633646      7.633420   0.000000   0.000000
   18        7.820155      7.820040   0.000000   0.000000
   19        8.794723      8.794397   0.000000   0.000000
   20       10.258889     10.258688   0.000000   0.000000
   21       10.777806     10.777346   0.000000   0.000000
   22       11.514233     11.513503   0.000000   0.000000
 
 -0.1250000E+00  0.1250000E+00 -0.1103516E-16  0.3125000E-02
    1      -19.839631    -19.839604   1.000000   1.000000
    2      -17.812029    -17.811953   1.000000   1.000000
    3      -13.994947    -13.994776   1.000000   1.000000
    4      -12.882723    -12.882552   1.000000   1.000000
    5      -11.080304    -11.080268   1.000000   1.000000
    6       -6.853275     -6.853254   1.000000   1.000000
    7       -5.721576     -5.721527   1.000000   1.000000
    8       -5.449022     -5.448955   1.000000   1.000000
    9       -2.619536     -2.619620   1.000000   1.000000
   10       -1.869332     -1.869357   1.000000   1.000000
   11       -0.945794     -0.945751   1.000000   1.000000
   12       -0.856940     -0.856943   1.000000   1.000000
   13        0.384577      0.384598   1.000000   1.000000
   14        0.471459      0.471509   1.000000   1.000000
   15        1.179775      1.179827   1.000000   1.000000
   16        1.901408      1.901418   1.000000   1.000000
   17        7.528577      7.528386   0.000000   0.000000
   18        7.700250      7.700030   0.000000   0.000000
   19        8.704809      8.704549   0.000000   0.000000
   20       10.285771     10.285440   0.000000   0.000000
   21       10.530746     10.530428   0.000000   0.000000
   22       11.694725     11.694067   0.000000   0.000000
 
 -0.2983091E-16  0.2500000E+00 -0.1180246E-16  0.3125000E-02
    1      -19.646394    -19.646364   1.000000   1.000000
    2      -18.091906    -18.091840   1.000000   1.000000
    3      -14.338665    -14.338514   1.000000   1.000000
    4      -12.580383    -12.580170   1.000000   1.000000
    5      -10.750266    -10.750248   1.000000   1.000000
    6       -6.948161     -6.948129   1.000000   1.000000
    7       -5.714766     -5.714715   1.000000   1.000000
    8       -5.310113     -5.310028   1.000000   1.000000
    9       -2.679324     -2.679405   1.000000   1.000000
   10       -1.929831     -1.929863   1.000000   1.000000
   11       -1.101487     -1.101515   1.000000   1.000000
   12       -0.958714     -0.958686   1.000000   1.000000
   13        0.178865      0.178891   1.000000   1.000000
   14        0.571940      0.571964   1.000000   1.000000
   15        0.993043      0.993092   1.000000   1.000000
   16        1.909633      1.909646   1.000000   1.000000
   17        7.972587      7.972442   0.000000   0.000000
   18        8.104541      8.104310   0.000000   0.000000
   19        9.201360      9.201198   0.000000   0.000000
   20       10.018108     10.017726   0.000000   0.000000
   21       10.501924     10.501604   0.000000   0.000000
   22       11.686414     11.686428   0.000000   0.000000
 
  0.1250000E+00  0.2500000E+00 -0.4924316E-16  0.3125000E-02
    1      -19.591905    -19.591874   1.000000   1.000000
    2      -18.119271    -18.119205   1.000000   1.000000
    3      -14.502483    -14.502344   1.000000   1.000000
    4      -12.772094    -12.771896   1.000000   1.000000
    5      -10.240666    -10.240624   1.000000   1.000000
    6       -6.992382     -6.992342   1.000000   1.000000
    7       -5.700896     -5.700831   1.000000   1.000000
    8       -5.282365     -5.282279   1.000000   1.000000
    9       -2.623013     -2.623091   1.000000   1.000000
   10       -2.068020     -2.068060   1.000000   1.000000
   11       -1.264827     -1.264826   1.000000   1.000000
   12       -0.975244     -0.975277   1.000000   1.000000
   13        0.134310      0.134330   1.000000   1.000000
   14        0.567922      0.567947   1.000000   1.000000
   15        0.908272      0.908317   1.000000   1.000000
   16        1.944818      1.944845   1.000000   1.000000
   17        8.036528      8.036394   0.000000   0.000000
   18        8.289912      8.289687   0.000000   0.000000
   19        9.360395      9.360209   0.000000   0.000000
   20       10.162489     10.162231   0.000000   0.000000
   21       10.501009     10.500617   0.000000   0.000000
   22       11.393198     11.393003   0.000000   0.000000
 
  0.2500000E+00  0.2500000E+00 -0.1068716E-15  0.6250000E-02
    1      -19.528224    -19.528192   1.000000   1.000000
    2      -18.149284    -18.149219   1.000000   1.000000
    3      -14.601242    -14.601113   1.000000   1.000000
    4      -13.080452    -13.080266   1.000000   1.000000
    5       -9.576343     -9.576286   1.000000   1.000000
    6       -7.158959     -7.158906   1.000000   1.000000
    7       -5.668967     -5.668883   1.000000   1.000000
    8       -5.204521     -5.204433   1.000000   1.000000
    9       -2.633490     -2.633567   1.000000   1.000000
   10       -2.208345     -2.208394   1.000000   1.000000
   11       -1.540137     -1.540159   1.000000   1.000000
   12       -0.791373     -0.791405   1.000000   1.000000
   13        0.187904      0.187925   1.000000   1.000000
   14        0.390818      0.390833   1.000000   1.000000
   15        0.891550      0.891584   1.000000   1.000000
   16        1.935583      1.935628   1.000000   1.000000
   17        8.021770      8.021605   0.000000   0.000000
   18        8.548470      8.548318   0.000000   0.000000
   19        9.346642      9.346424   0.000000   0.000000
   20       10.267842     10.267589   0.000000   0.000000
   21       10.502168     10.501888   0.000000   0.000000
   22       11.600394     11.596995   0.000000   0.000000
 
  0.3750000E+00  0.2500000E+00 -0.2969680E-15  0.3125000E-02
    1      -19.494704    -19.494671   1.000000   1.000000
    2      -18.162726    -18.162662   1.000000   1.000000
    3      -14.569530    -14.569407   1.000000   1.000000
    4      -13.356297    -13.356118   1.000000   1.000000
    5       -9.095192     -9.095132   1.000000   1.000000
    6       -7.378076     -7.378011   1.000000   1.000000
    7       -5.626113     -5.626016   1.000000   1.000000
    8       -5.129459     -5.129368   1.000000   1.000000
    9       -2.652741     -2.652814   1.000000   1.000000
   10       -2.303750     -2.303801   1.000000   1.000000
   11       -1.714134     -1.714176   1.000000   1.000000
   12       -0.613975     -0.613999   1.000000   1.000000
   13        0.118116      0.118136   1.000000   1.000000
   14        0.361319      0.361327   1.000000   1.000000
   15        1.033517      1.033543   1.000000   1.000000
   16        1.800013      1.800067   1.000000   1.000000
   17        8.055874      8.055687   0.000000   0.000000
   18        8.455670      8.455566   0.000000   0.000000
   19        9.290559      9.290321   0.000000   0.000000
   20       10.272202     10.271986   0.000000   0.000000
   21       10.958353     10.957934   0.000000   0.000000
   22       11.736512     11.735300   0.000000   0.000000
 
  0.5000000E+00  0.2500000E+00 -0.1603075E-15  0.6250000E-02
    1      -19.514594    -19.514561   1.000000   1.000000
    2      -18.149261    -18.149196   1.000000   1.000000
    3      -14.365400    -14.365276   1.000000   1.000000
    4      -13.571284    -13.571108   1.000000   1.000000
    5       -9.126361     -9.126299   1.000000   1.000000
    6       -7.400023     -7.399965   1.000000   1.000000
    7       -5.591126     -5.591028   1.000000   1.000000
    8       -5.107410     -5.107316   1.000000   1.000000
    9       -2.533607     -2.533659   1.000000   1.000000
   10       -2.412930     -2.412999   1.000000   1.000000
   11       -1.735943     -1.735986   1.000000   1.000000
   12       -0.690717     -0.690737   1.000000   1.000000
   13        0.168811      0.168823   1.000000   1.000000
   14        0.469106      0.469130   1.000000   1.000000
   15        1.277419      1.277445   1.000000   1.000000
   16        1.611897      1.611949   1.000000   1.000000
   17        7.769647      7.769469   0.000000   0.000000
   18        8.459150      8.459020   0.000000   0.000000
   19        9.253954      9.253718   0.000000   0.000000
   20       10.610038     10.609717   0.000000   0.000000
   21       11.049055     11.048501   0.000000   0.000000
   22       11.604005     11.604161   0.000000   0.000000
 
 -0.3750000E+00  0.2500000E+00 -0.1869935E-16  0.3125000E-02
    1      -19.573542    -19.573510   1.000000   1.000000
    2      -18.118870    -18.118804   1.000000   1.000000
    3      -14.041007    -14.040868   1.000000   1.000000
    4      -13.681271    -13.681106   1.000000   1.000000
    5       -9.612545     -9.612482   1.000000   1.000000
    6       -7.239386     -7.239346   1.000000   1.000000
    7       -5.584722     -5.584639   1.000000   1.000000
    8       -5.154988     -5.154892   1.000000   1.000000
    9       -2.649821     -2.649898   1.000000   1.000000
   10       -2.106809     -2.106836   1.000000   1.000000
   11       -1.643099     -1.643134   1.000000   1.000000
   12       -0.849766     -0.849788   1.000000   1.000000
   13        0.212002      0.212011   1.000000   1.000000
   14        0.602117      0.602153   1.000000   1.000000
   15        1.293675      1.293721   1.000000   1.000000
   16        1.689505      1.689539   1.000000   1.000000
   17        7.600309      7.600133   0.000000   0.000000
   18        8.236938      8.236780   0.000000   0.000000
   19        9.378769      9.378508   0.000000   0.000000
   20       10.385447     10.385264   0.000000   0.000000
   21       11.007031     11.005135   0.000000   0.000000
   22       11.666535     11.703207   0.000000   0.000000
 
 -0.2500000E+00  0.2500000E+00 -0.2207032E-16  0.3125000E-02
    1      -19.633937    -19.633906   1.000000   1.000000
    2      -18.091469    -18.091403   1.000000   1.000000
    3      -14.014325    -14.014161   1.000000   1.000000
    4      -13.338765    -13.338608   1.000000   1.000000
    5      -10.221308    -10.221252   1.000000   1.000000
    6       -7.092553     -7.092523   1.000000   1.000000
    7       -5.619237     -5.619174   1.000000   1.000000
    8       -5.235540     -5.235446   1.000000   1.000000
    9       -2.734111     -2.734196   1.000000   1.000000
   10       -1.868334     -1.868350   1.000000   1.000000
   11       -1.368656     -1.368662   1.000000   1.000000
   12       -0.954608     -0.954629   1.000000   1.000000
   13        0.249853      0.249875   1.000000   1.000000
   14        0.601169      0.601201   1.000000   1.000000
   15        1.184544      1.184594   1.000000   1.000000
   16        1.841387      1.841411   1.000000   1.000000
   17        7.733638      7.733452   0.000000   0.000000
   18        8.003199      8.003061   0.000000   0.000000
   19        9.127992      9.127683   0.000000   0.000000
   20       10.344567     10.344339   0.000000   0.000000
   21       10.659611     10.658612   0.000000   0.000000
   22       11.726397     11.724695   0.000000   0.000000
 
 -0.1250000E+00  0.2500000E+00 -0.9610685E-16  0.3125000E-02
    1      -19.662929    -19.662900   1.000000   1.000000
    2      -18.080978    -18.080911   1.000000   1.000000
    3      -14.164234    -14.164074   1.000000   1.000000
    4      -12.815852    -12.815664   1.000000   1.000000
    5      -10.710363    -10.710331   1.000000   1.000000
    6       -6.993287     -6.993258   1.000000   1.000000
    7       -5.682467     -5.682417   1.000000   1.000000
    8       -5.290540     -5.290453   1.000000   1.000000
    9       -2.733213     -2.733297   1.000000   1.000000
   10       -1.854510     -1.854535   1.000000   1.000000
   11       -1.124044     -1.124058   1.000000   1.000000
   12       -0.947653     -0.947637   1.000000   1.000000
   13        0.291624      0.291664   1.000000   1.000000
   14        0.532575      0.532594   1.000000   1.000000
   15        1.062070      1.062115   1.000000   1.000000
   16        1.894919      1.894934   1.000000   1.000000
   17        7.875645      7.875430   0.000000   0.000000
   18        8.000832      8.000703   0.000000   0.000000
   19        9.032326      9.032073   0.000000   0.000000
   20       10.086121     10.085786   0.000000   0.000000
   21       10.568369     10.567990   0.000000   0.000000
   22       11.831769     11.832003   0.000000   0.000000
 
  0.2464258E-16  0.3750000E+00 -0.5239816E-16  0.3125000E-02
    1      -19.341433    -19.341397   1.000000   1.000000
    2      -18.480480    -18.480425   1.000000   1.000000
    3      -14.508905    -14.508761   1.000000   1.000000
    4      -12.617487    -12.617277   1.000000   1.000000
    5      -10.177362    -10.177336   1.000000   1.000000
    6       -7.123854     -7.123802   1.000000   1.000000
    7       -5.592709     -5.592641   1.000000   1.000000
    8       -5.245586     -5.245497   1.000000   1.000000
    9       -2.772168     -2.772249   1.000000   1.000000
   10       -1.953262     -1.953285   1.000000   1.000000
   11       -1.304602     -1.304649   1.000000   1.000000
   12       -1.158494     -1.158520   1.000000   1.000000
   13        0.028782      0.028792   1.000000   1.000000
   14        0.718122      0.718153   1.000000   1.000000
   15        0.915443      0.915498   1.000000   1.000000
   16        1.883786      1.883805   1.000000   1.000000
   17        8.286234      8.286163   0.000000   0.000000
   18        8.587181      8.586921   0.000000   0.000000
   19        9.595716      9.595557   0.000000   0.000000
   20        9.994293      9.994069   0.000000   0.000000
   21       10.701454     10.700950   0.000000   0.000000
   22       11.302133     11.301727   0.000000   0.000000
 
  0.1250000E+00  0.3750000E+00 -0.5136049E-16  0.6250000E-02
    1      -19.283459    -19.283422   1.000000   1.000000
    2      -18.522401    -18.522347   1.000000   1.000000
    3      -14.576977    -14.576838   1.000000   1.000000
    4      -12.777216    -12.777018   1.000000   1.000000