 running on    8 total cores
 distrk:  each k-point on    8 cores,    1 groups
 distr:  one band on    4 cores,    2 groups
 using from now: INCAR     
 vasp.6.1.2 22Jul20 (build Mar 20 2021 11:25:07) complex                        
  
 POSCAR found type information on POSCAR LiP 
 POSCAR found :  2 types and      40 ions
 scaLAPACK will be used
 LDA part: xc-table for Pade appr. of Perdew
 generate k-points for:    4    3    3
 POSCAR, INCAR and KPOINTS ok, starting setup
 FFT: planning ...
 WAVECAR not read
 entering main loop
       N       E                     dE             d eps       ncg     rms          rms(c)
DAV:   1     0.106458808862E+04    0.10646E+04   -0.68696E+04  6832   0.133E+03
DAV:   2    -0.262542530171E+02   -0.10908E+04   -0.10076E+04  7992   0.288E+02
DAV:   3    -0.164348829962E+03   -0.13809E+03   -0.13624E+03  9288   0.972E+01
DAV:   4    -0.180247154106E+03   -0.15898E+02   -0.15794E+02 12312   0.289E+01
DAV:   5    -0.183389247879E+03   -0.31421E+01   -0.31403E+01 11240   0.858E+00    0.343E+01
DAV:   6    -0.183361110356E+03    0.28138E-01   -0.98175E+00  8952   0.732E+00    0.188E+01
DAV:   7    -0.185488605956E+03   -0.21275E+01   -0.35012E+00  8528   0.450E+00    0.114E+01
DAV:   8    -0.186357892221E+03   -0.86929E+00   -0.15013E+00  8064   0.322E+00    0.257E+00
DAV:   9    -0.186439248651E+03   -0.81356E-01   -0.23123E-01  9704   0.140E+00    0.124E+00
DAV:  10    -0.186452682062E+03   -0.13433E-01   -0.40992E-02  8960   0.528E-01    0.510E-01
DAV:  11    -0.186456651177E+03   -0.39691E-02   -0.69917E-03  8264   0.260E-01    0.241E-01
DAV:  12    -0.186458699545E+03   -0.20484E-02   -0.26178E-03  9144   0.145E-01    0.107E-01
DAV:  13    -0.186459558673E+03   -0.85913E-03   -0.65615E-04  8736   0.701E-02    0.472E-02
DAV:  14    -0.186459871458E+03   -0.31278E-03   -0.26517E-04  8056   0.420E-02    0.282E-02
DAV:  15    -0.186459985112E+03   -0.11365E-03   -0.12316E-04  7384   0.283E-02    0.137E-02
DAV:  16    -0.186460006506E+03   -0.21393E-04   -0.23371E-05  6904   0.135E-02    0.695E-03
DAV:  17    -0.186460011349E+03   -0.48435E-05   -0.60050E-06  5104   0.773E-03
   1 F= -.18646001E+03 E0= -.18646001E+03  d E =0.000000E+00  mag=    -0.0002
