 running on   24 total cores
 distrk:  each k-point on   24 cores,    1 groups
 distr:  one band on    6 cores,    4 groups
 using from now: INCAR     
 vasp.6.1.2 22Jul20 (build Mar 31 2021 18:09:49) complex                        
  
 POSCAR found type information on POSCAR LiO 
 POSCAR found :  2 types and       8 ions
 scaLAPACK will be used
 -----------------------------------------------------------------------------
|                                                                             |
|               ----> ADVICE to this user running VASP <----                  |
|                                                                             |
|     You have a (more or less) 'small supercell' and for smaller cells       |
|     it is recommended to use the reciprocal-space projection scheme!        |
|     The real-space optimization is not efficient for small cells and it     |
|     is also less accurate ...                                               |
|     Therefore, set LREAL=.FALSE. in the INCAR file.                         |
|                                                                             |
 -----------------------------------------------------------------------------

 LDA part: xc-table for Pade appr. of Perdew
 generate k-points for:   12   12    4
 POSCAR, INCAR and KPOINTS ok, starting setup
 FFT: planning ...
 WAVECAR not read
 entering main loop
       N       E                     dE             d eps       ncg     rms          rms(c)
DAV:   1     0.252732374670E+03    0.25273E+03   -0.17311E+04 18376   0.137E+03
DAV:   2    -0.146923970471E+02   -0.26742E+03   -0.25731E+03 21796   0.348E+02
DAV:   3    -0.376417489148E+02   -0.22949E+02   -0.22756E+02 29808   0.846E+01
DAV:   4    -0.392791212305E+02   -0.16374E+01   -0.16308E+01 27248   0.210E+01
DAV:   5    -0.393240525213E+02   -0.44931E-01   -0.44928E-01 25980   0.300E+00    0.178E+01
RMM:   6    -0.382132774338E+02    0.11108E+01   -0.44884E+00 20417   0.109E+01    0.783E+00
RMM:   7    -0.388215541153E+02   -0.60828E+00   -0.67807E-01 23050   0.506E+00    0.389E+00
RMM:   8    -0.388999262760E+02   -0.78372E-01   -0.31086E-01 26976   0.315E+00    0.156E+00
RMM:   9    -0.389108165879E+02   -0.10890E-01   -0.10785E-01 28589   0.205E+00    0.384E-01
RMM:  10    -0.389204689566E+02   -0.96524E-02   -0.55326E-02 32145   0.115E+00    0.187E-01
RMM:  11    -0.389243403902E+02   -0.38714E-02   -0.21345E-02 32971   0.668E-01    0.127E-01
RMM:  12    -0.389256809437E+02   -0.13406E-02   -0.90367E-03 34176   0.400E-01    0.925E-02
RMM:  13    -0.389260950476E+02   -0.41410E-03   -0.32801E-03 32550   0.275E-01    0.395E-02
WARNING in EDDRMM: call to ZHEGV failed, returncode =   8  4      2
RMM:  14    -0.389263643787E+02   -0.26933E-03   -0.17016E-03 33165   0.192E-01    0.990E-03
RMM:  15    -0.389264585121E+02   -0.94133E-04   -0.78529E-04 31428   0.112E-01    0.936E-03
RMM:  16    -0.389264941999E+02   -0.35688E-04   -0.32507E-04 30182   0.740E-02    0.646E-03
RMM:  17    -0.389265077122E+02   -0.13512E-04   -0.12855E-04 28218   0.513E-02    0.368E-03
RMM:  18    -0.389265121767E+02   -0.44645E-05   -0.47238E-05 24052   0.372E-02
   1 F= -.38926512E+02 E0= -.38926512E+02  d E =0.000000E+00  mag=    -0.0000
