 vasp.6.1.2 22Jul20 (build Apr 14 2021 21:39:43) complex                        
  
 executed on             LinuxIFC date 2021.07.04  01:06:13
 running on  128 total cores
 distrk:  each k-point on  128 cores,    1 groups
 distr:  one band on NCORE=  16 cores,    8 groups


--------------------------------------------------------------------------------------------------------


 INCAR:
 POTCAR:    PAW_PBE Li_sv 10Sep2004               
 POTCAR:    PAW_PBE P 06Sep2000                   
 POTCAR:    PAW_PBE N 08Apr2002                   
 POTCAR:    PAW_PBE Li_sv 10Sep2004               
   VRHFIN =Li: 1s2s2p                                                                               
   LEXCH  = PE                                                                                      
   EATOM  =   202.7858 eV,   14.9043 Ry                                                             
                                                                                                    
   TITEL  = PAW_PBE Li_sv 10Sep2004                                                                 
   LULTRA =        F    use ultrasoft PP ?                                                          
   IUNSCR =        0    unscreen: 0-lin 1-nonlin 2-no                                               
   RPACOR =    0.000    partial core radius                                                         
   POMASS =    7.010; ZVAL   =    3.000    mass and valenz                                          
   RCORE  =    1.700    outmost cutoff radius                                                       
   RWIGS  =    2.050; RWIGS  =    1.085    wigner-seitz radius (au A)                               
   ENMAX  =  499.034; ENMIN  =  374.276 eV                                                          
   ICORE  =        2    local potential                                                             
   LCOR   =        T    correct aug charges                                                         
   LPAW   =        T    paw PP                                                                      
   EAUG   =  628.945                                                                                
   RMAX   =    1.732    core radius for proj-oper                                                   
   RAUG   =    1.300    factor for augmentation sphere                                              
   RDEP   =    1.728    radius for radial grids                                                     
   RDEPT  =    1.329    core radius for aug-charge                                                  
                                                                                                    
   Atomic configuration                                                                             
    4 entries                                                                                       
     n  l   j            E        occ.                                                              
     1  0  0.50       -51.8549   2.0000                                                             
     2  0  0.50        -2.8742   1.0000                                                             
     2  1  0.50        -1.3606   0.0000                                                             
     3  2  1.50        -1.3606   0.0000                                                             
   Description                                                                                      
     l       E           TYP  RCUT    TYP  RCUT                                                     
     0    -51.8548813     23  1.400                                                                 
     0     -2.8742052     23  1.700                                                                 
     1     -1.3605826     23  1.400                                                                 
     2     -1.3605826     23  1.400                                                                 
  local pseudopotential read in
  atomic valenz-charges read in
  non local Contribution for L=           0  read in
    real space projection operators read in
  non local Contribution for L=           0  read in
    real space projection operators read in
  non local Contribution for L=           1  read in
    real space projection operators read in
    PAW grid and wavefunctions read in
 
   number of l-projection  operators is LMAX  =           3
   number of lm-projection operators is LMMAX =           5
 
 POTCAR:    PAW_PBE P 06Sep2000                   
   VRHFIN =P : s2p3                                                                                 
   LEXCH  = PE                                                                                      
   EATOM  =   176.0430 eV,   12.9388 Ry                                                             
                                                                                                    
   TITEL  = PAW_PBE P 06Sep2000                                                                     
   LULTRA =        F    use ultrasoft PP ?                                                          
   IUNSCR =        1    unscreen: 0-lin 1-nonlin 2-no                                               
   RPACOR =    1.500    partial core radius                                                         
   POMASS =   30.974; ZVAL   =    5.000    mass and valenz                                          
   RCORE  =    1.900    outmost cutoff radius                                                       
   RWIGS  =    2.330; RWIGS  =    1.233    wigner-seitz radius (au A)                               
   ENMAX  =  255.040; ENMIN  =  191.280 eV                                                          
   ICORE  =        2    local potential                                                             
   LCOR   =        T    correct aug charges                                                         
   LPAW   =        T    paw PP                                                                      
   EAUG   =  342.924                                                                                
   DEXC   =    0.000                                                                                
   RMAX   =    1.935    core radius for proj-oper                                                   
   RAUG   =    1.300    factor for augmentation sphere                                              
   RDEP   =    1.931    radius for radial grids                                                     
   RDEPT  =    1.794    core radius for aug-charge                                                  
                                                                                                    
   Atomic configuration                                                                             
    6 entries                                                                                       
     n  l   j            E        occ.                                                              
     1  0  0.50     -2084.0982   2.0000                                                             
     2  0  0.50      -173.9859   2.0000                                                             
     2  1  1.50      -124.4865   6.0000                                                             
     3  0  0.50       -13.9692   2.0000                                                             
     3  1  0.50        -5.5067   3.0000                                                             
     3  2  1.50        -5.4423   0.0000                                                             
   Description                                                                                      
     l       E           TYP  RCUT    TYP  RCUT                                                     
     0    -13.9691527     23  1.900                                                                 
     0    -11.7794650     23  1.900                                                                 
     1     -5.5066937     23  1.900                                                                 
     1     -0.2556953     23  1.900                                                                 
     2     -5.4423304     23  1.900                                                                 
  local pseudopotential read in
  partial core-charges read in
  partial kinetic energy density read in
  atomic valenz-charges read in
  non local Contribution for L=           0  read in
    real space projection operators read in
  non local Contribution for L=           0  read in
    real space projection operators read in
  non local Contribution for L=           1  read in
    real space projection operators read in
  non local Contribution for L=           1  read in
    real space projection operators read in
    PAW grid and wavefunctions read in
 
   number of l-projection  operators is LMAX  =           4
   number of lm-projection operators is LMMAX =           8
 
 POTCAR:    PAW_PBE N 08Apr2002                   
   VRHFIN =N: s2p3                                                                                  
   LEXCH  = PE                                                                                      
   EATOM  =   264.5486 eV,   19.4438 Ry                                                             
                                                                                                    
   TITEL  = PAW_PBE N 08Apr2002                                                                     
   LULTRA =        F    use ultrasoft PP ?                                                          
   IUNSCR =        1    unscreen: 0-lin 1-nonlin 2-no                                               
   RPACOR =    1.200    partial core radius                                                         
   POMASS =   14.001; ZVAL   =    5.000    mass and valenz                                          
   RCORE  =    1.500    outmost cutoff radius                                                       
   RWIGS  =    1.400; RWIGS  =    0.741    wigner-seitz radius (au A)                               
   ENMAX  =  400.000; ENMIN  =  300.000 eV                                                          
   ICORE  =        2    local potential                                                             
   LCOR   =        T    correct aug charges                                                         
   LPAW   =        T    paw PP                                                                      
   EAUG   =  627.112                                                                                
   DEXC   =    0.000                                                                                
   RMAX   =    1.529    core radius for proj-oper                                                   
   RAUG   =    1.300    factor for augmentation sphere                                              
   RDEP   =    1.514    radius for radial grids                                                     
   RDEPT  =    1.338    core radius for aug-charge                                                  
                                                                                                    
   Atomic configuration                                                                             
    4 entries                                                                                       
     n  l   j            E        occ.                                                              
     1  0  0.50      -384.7179   2.0000                                                             
     2  0  0.50       -18.5828   2.0000                                                             
     2  1  0.50        -7.0898   3.0000                                                             
     3  2  1.50        -6.8029   0.0000                                                             
   Description                                                                                      
     l       E           TYP  RCUT    TYP  RCUT                                                     
     0    -18.5828119     23  1.200                                                                 
     0    -13.5018863     23  1.200                                                                 
     1     -7.0897853     23  1.500                                                                 
     1      9.5240782     23  1.500                                                                 
     2     -6.8029130      7  1.500                                                                 
  local pseudopotential read in
  partial core-charges read in
  partial kinetic energy density read in
  atomic valenz-charges read in
  non local Contribution for L=           0  read in
    real space projection operators read in
  non local Contribution for L=           0  read in
    real space projection operators read in
  non local Contribution for L=           1  read in
    real space projection operators read in
  non local Contribution for L=           1  read in
    real space projection operators read in
    PAW grid and wavefunctions read in
 
   number of l-projection  operators is LMAX  =           4
   number of lm-projection operators is LMMAX =           8
 
 Optimization of the real space projectors (new method)

 maximal supplied QI-value         = 22.11
 optimisation between [QCUT,QGAM] = [ 11.50, 23.22] = [ 37.02,150.92] Ry 
 Optimized for a Real-space Cutoff    1.08 Angstroem

   l    n(q)    QCUT    max X(q) W(low)/X(q) W(high)/X(q)  e(spline) 
   0      7    11.497    10.506    0.36E-04    0.62E-04    0.14E-07
   0      7    11.497     8.367    0.65E-04    0.14E-03    0.28E-07
   1      7    11.497     8.983    0.21E-03    0.43E-03    0.90E-07
 Optimization of the real space projectors (new method)

 maximal supplied QI-value         = 19.84
 optimisation between [QCUT,QGAM] = [ 11.51, 23.22] = [ 37.09,150.92] Ry 
 Optimized for a Real-space Cutoff    1.21 Angstroem

   l    n(q)    QCUT    max X(q) W(low)/X(q) W(high)/X(q)  e(spline) 
   0      8    11.508   160.924    0.96E-04    0.17E-03    0.52E-07
   0      8    11.508   130.086    0.95E-04    0.17E-03    0.51E-07
   1      8    11.508    74.434    0.16E-03    0.74E-04    0.91E-07
   1      8    11.508    49.120    0.16E-03    0.71E-04    0.89E-07
 Optimization of the real space projectors (new method)

 maximal supplied QI-value         = 25.13
 optimisation between [QCUT,QGAM] = [ 11.56, 23.12] = [ 37.43,149.72] Ry 
 Optimized for a Real-space Cutoff    1.40 Angstroem

   l    n(q)    QCUT    max X(q) W(low)/X(q) W(high)/X(q)  e(spline) 
   0     10    11.561    79.467    0.46E-04    0.78E-04    0.61E-06
   0     10    11.561    66.151    0.45E-04    0.77E-04    0.61E-06
   1      9    11.561    18.886    0.22E-03    0.13E-03    0.12E-05
   1      9    11.561    13.488    0.23E-03    0.13E-03    0.12E-05
  PAW_PBE Li_sv 10Sep2004               :
 energy of atom  1       EATOM= -202.7858
 kinetic energy error for atom=    0.0130 (will be added to EATOM!!)
  PAW_PBE P 06Sep2000                   :
 energy of atom  2       EATOM= -176.0430
 kinetic energy error for atom=    0.0011 (will be added to EATOM!!)
  PAW_PBE N 08Apr2002                   :
 energy of atom  3       EATOM= -264.5486
 kinetic energy error for atom=    0.0125 (will be added to EATOM!!)
 
 
 POSCAR: Li61 P7 N32
  positions in direct lattice
  velocities in cartesian coordinates
 exchange correlation table for  LEXCH =        8
   RHO(1)=    0.500       N(1)  =     2000
   RHO(2)=  100.500       N(2)  =     4000
 


--------------------------------------------------------------------------------------------------------


 ion  position               nearest neighbor table
   1  0.499  0.003  0.493-  94 2.02  89 2.04  90 2.04  93 2.05  52 2.38   8 2.40  53 2.43  67 2.44
                            68 2.46   7 2.46
   2  0.015  0.500  0.997-  84 1.95  86 1.97  83 1.99  85 2.02  50 2.27  51 2.32  16 2.33  64 2.34
                            63 2.35  17 2.44
   3  0.505  0.005  0.994-  88 1.94  87 1.96  99 1.99 100 2.01  12 2.28  11 2.28  15 2.32  68 2.33
                            67 2.35  14 2.38
   4  0.997  0.002  0.496-  79 1.97  81 1.98  80 1.98  82 2.00  57 2.28  56 2.30   7 2.34  66 2.36
                            65 2.37   8 2.42
   5  0.512  0.516  0.979-  92 1.95  96 2.01  95 2.10  91 2.11  60 2.11  55 2.25  64 2.44  54 2.45
                            15 2.46  63 2.50  14 2.55
   6  0.985  0.501  0.494-  98 2.01  97 2.04  77 2.07  78 2.11  10 2.38  17 2.43  66 2.44  16 2.45
                            65 2.48
   7  0.754  0.981  0.478-  94 2.05  82 2.08  30 2.31   4 2.34  43 2.37  23 2.40   1 2.46
   8  0.248  0.009  0.502-  79 2.11  38 2.38  28 2.39  29 2.40   1 2.40   4 2.42  39 2.46
   9  0.711  0.449  0.519-  70 1.92  69 2.16  33 2.25  30 2.30  31 2.36  13 2.36  32 2.47  59 2.49

  10  0.232  0.513  0.509-  78 2.12  75 2.14  76 2.15  58 2.24  35 2.35   6 2.38  13 2.41  29 2.42
                            28 2.47
  11  0.267  0.003  0.004-  74 2.04  73 2.08  87 2.10   3 2.28  41 2.31  40 2.32  39 2.36  62 2.51
                            38 2.52
  12  0.743  0.995  0.990-  72 2.07  71 2.08 100 2.14   3 2.28  42 2.29  43 2.33  45 2.39  44 2.43
                            62 2.53
  13  0.480  0.530  0.549-  69 1.91  76 1.92  58 1.93  75 2.06  55 2.08  53 2.17  59 2.24   9 2.36
                            10 2.41
  14  0.511  0.251  0.976-  88 2.12  96 2.13   3 2.38  40 2.39  45 2.47  48 2.48  60 2.50  37 2.53
                             5 2.55
  15  0.529  0.767  0.022-  87 2.04 100 2.17  95 2.18   3 2.32  41 2.45   5 2.46  44 2.55  49 2.55
                            61 2.57
  16  0.002  0.522  0.239-  98 2.05  85 2.09  83 2.12  32 2.18  34 2.19   2 2.33   6 2.45  26 2.48
                            47 2.53  21 2.60
  17  0.031  0.494  0.743-  86 2.09  78 2.12  33 2.37   6 2.43  27 2.43   2 2.44  35 2.47  46 2.56

  18  0.216  0.187  0.247-  74 1.95  89 2.06  38 2.33  34 2.35  28 2.49  26 2.50  48 2.53
  19  0.204  0.753  0.778-  73 2.02  78 2.17  39 2.49  49 2.50  27 2.50  29 2.50  41 2.52
  20  0.243  0.266  0.728-  76 2.00  86 2.15  79 2.18  28 2.23  35 2.25  37 2.27  46 2.42  40 2.46
                            39 2.54
  21  0.204  0.688  0.304-  75 1.94  80 2.06  85 2.08  54 2.24  29 2.29  47 2.31  34 2.55  36 2.57
                            38 2.58  16 2.60  65 2.74
  22  0.720  0.234  0.292-  70 1.87  81 2.08  99 2.17  43 2.30  30 2.36  48 2.46  26 2.46  45 2.51
                            60 2.54  32 2.55
  23  0.676  0.826  0.655-  69 2.02 100 2.05  31 2.07  42 2.11  61 2.11  82 2.13  53 2.26   7 2.40
                            49 2.47  68 2.48
  24  0.749  0.235  0.787-  96 2.05  42 2.34  45 2.36  46 2.38  30 2.41  33 2.48
  25  0.742  0.758  0.265-  94 2.04  98 2.18  44 2.36  43 2.43  47 2.43  59 2.47  32 2.60
  26  0.968  0.267  0.236-  77 2.02  83 2.02  81 2.07  50 2.36  56 2.41  22 2.46  16 2.48  18 2.50
                            66 2.50
  27  0.946  0.733  0.751-  82 2.02  84 2.07  78 2.08  17 2.43  51 2.49  19 2.50  65 2.51  57 2.53
                            61 2.59
  28  0.252  0.257  0.495-  76 1.96  79 2.02  77 2.04  20 2.23   8 2.39  52 2.44  66 2.46  10 2.47
                            58 2.48  18 2.49
  29  0.265  0.762  0.524-  78 2.11  80 2.11  75 2.12  90 2.19  53 2.27  21 2.29   8 2.40  10 2.42
                            19 2.50  65 2.53
  30  0.746  0.214  0.537-  81 2.02  97 2.03  93 2.05   9 2.30   7 2.31  22 2.36  52 2.38  24 2.41
                            66 2.45
  31  0.776  0.685  0.525-  69 1.88  98 1.92  82 2.06  23 2.07  65 2.31   9 2.36
  32  0.780  0.491  0.275-  83 2.00  70 2.11  16 2.18  59 2.23  60 2.27   9 2.47  22 2.55  63 2.59
                            25 2.60
  33  0.784  0.485  0.740-  84 2.06  97 2.12  96 2.18   9 2.25  61 2.27  17 2.37  55 2.38  24 2.48
                            63 2.54
  34  0.212  0.431  0.242-  77 1.97  85 2.06  91 2.10  16 2.19  54 2.25  18 2.35  58 2.40  64 2.51
                            21 2.55
  35  0.288  0.494  0.747-  76 1.94  92 1.98  86 2.05  20 2.25  10 2.35  64 2.38  55 2.39  17 2.47

  36  0.454  0.783  0.291-  75 1.91  87 1.92  94 1.97  53 2.24  67 2.27  54 2.27  59 2.33  38 2.56
                            21 2.57
  37  0.478  0.237  0.715-  76 1.93  88 1.96  93 2.03  52 2.22  20 2.27  55 2.36  68 2.36  14 2.53

  38  0.247  0.948  0.261-  87 1.98  80 2.08  89 2.11  18 2.33   8 2.38  56 2.44  11 2.52  67 2.53
                            36 2.56  21 2.58
  39  0.250  0.005  0.758-  88 1.97  90 2.03  73 2.15  57 2.32  11 2.36  68 2.44   8 2.46  19 2.49
                            20 2.54
  40  0.263  0.242  0.983-  86 2.03  91 2.06  11 2.32  14 2.39  50 2.42  20 2.46  64 2.48
  41  0.273  0.765  0.032-  92 2.04  87 2.07  85 2.12  11 2.31  51 2.39  15 2.45  19 2.52  54 2.54
                            64 2.59
  42  0.775  0.996  0.753-  93 2.04  72 2.08  23 2.11 100 2.14  57 2.26  12 2.29  24 2.34  68 2.61

  43  0.762  0.006  0.232-  99 2.03  94 2.03  71 2.10  22 2.30  12 2.33  56 2.33   7 2.37  25 2.43
                            67 2.49
  44  0.794  0.751  0.025-  71 1.96  84 1.99  95 2.00  51 2.26  61 2.26  25 2.36  12 2.43  63 2.45
                            15 2.55
  45  0.762  0.238  0.033-  83 2.03  96 2.11  24 2.36  12 2.39  50 2.44  14 2.47  22 2.51  63 2.53

  46  0.995  0.231  0.749-  79 1.97  97 2.00  72 2.07  50 2.37  57 2.37  24 2.38  20 2.42  66 2.44
                            17 2.56
  47  0.993  0.784  0.242-  98 1.96  71 1.98  80 2.01  56 2.28  21 2.31  51 2.41  25 2.43  65 2.45
                            16 2.53
  48  0.472  0.250  0.233-  89 1.98  99 2.03  60 2.08  58 2.32  67 2.37  52 2.44  22 2.46  14 2.48
                            18 2.53
  49  0.464  0.732  0.766-  92 2.04  90 2.07  61 2.29  53 2.42  23 2.47  19 2.50  15 2.55  68 2.58
                            55 2.60
  50  0.012  0.264  0.993-  74 2.03  72 2.12  83 2.17  86 2.19   2 2.27  26 2.36  46 2.37  40 2.42
                            45 2.44  62 2.51
  51  0.028  0.740  0.997-  73 2.00  44 2.26   2 2.32  41 2.39  47 2.41  27 2.49  62 2.55
  52  0.506  0.250  0.485-  70 2.03  76 2.08  58 2.13  37 2.22   1 2.38  30 2.38  28 2.44  48 2.44

  53  0.501  0.752  0.517-  75 2.08  90 2.12  69 2.12  13 2.17  36 2.24  23 2.26  29 2.27  49 2.42
                             1 2.43  59 2.46
  54  0.380  0.583  0.189-  75 1.95  91 2.03  21 2.24  34 2.25  36 2.27  64 2.34  59 2.39   5 2.45
                            58 2.48  60 2.52  41 2.54
  55  0.537  0.472  0.749-  69 2.01  13 2.08  96 2.14   5 2.25  37 2.36  33 2.38  35 2.39  49 2.60

  56  0.003  0.020  0.257-  74 2.01  81 2.08  71 2.09  47 2.28   4 2.30  43 2.33  26 2.41  38 2.44
                            62 2.51
  57  0.010  0.986  0.733-  73 2.03  72 2.15  42 2.26   4 2.28  39 2.32  46 2.37  62 2.53  27 2.53

  58  0.414  0.426  0.389-  13 1.93  70 1.94  75 1.98  52 2.13  59 2.19  10 2.24  48 2.32  34 2.40
                            54 2.48  28 2.48
  59  0.575  0.579  0.342-  70 1.94  75 1.99  58 2.19  32 2.23  13 2.24  60 2.30  36 2.33  54 2.39
                            53 2.46  25 2.47   9 2.49
  60  0.584  0.419  0.162-  70 1.95  95 2.06  48 2.08   5 2.11  32 2.27  59 2.30  63 2.47  14 2.50
                            54 2.52  22 2.54
  61  0.691  0.686  0.823-  69 1.94  84 2.03  23 2.11 100 2.12  44 2.26  33 2.27  49 2.29  15 2.57
                            27 2.59  63 2.64
  62  0.006  0.004  0.996-  74 1.69  73 1.69  71 1.69  72 1.70  11 2.51  56 2.51  50 2.51  57 2.53
                            12 2.53  51 2.55
  63  0.771  0.499  0.005-  83 1.67  96 1.69  84 1.69  95 1.72   2 2.35  44 2.45  60 2.47   5 2.50
                            45 2.53  33 2.54  32 2.59  61 2.64
  64  0.259  0.500  0.994-  86 1.68  92 1.68  85 1.71  91 1.72   2 2.34  54 2.34  35 2.38   5 2.44
                            40 2.48  34 2.51  41 2.59
  65  0.003  0.757  0.496-  78 1.69  80 1.69  82 1.71  98 1.72  31 2.31   4 2.37  47 2.45   6 2.48
                            27 2.51  29 2.53  21 2.74
  66  0.996  0.247  0.495-  77 1.70  79 1.70  81 1.71  97 1.71   4 2.36  46 2.44   6 2.44  30 2.45
                            28 2.46  26 2.50
  67  0.503  0.006  0.239-  94 1.69  87 1.70  99 1.70  89 1.71  36 2.27   3 2.35  48 2.37   1 2.44
                            43 2.49  38 2.53
  68  0.504  0.996  0.750-  90 1.69  88 1.70  93 1.71 100 1.71   3 2.33  37 2.36  39 2.44   1 2.46
                            23 2.48  49 2.58  42 2.61
  69  0.631  0.622  0.640-  31 1.88  13 1.91  61 1.94  55 2.01  23 2.02  53 2.12   9 2.16
  70  0.610  0.382  0.360-  22 1.87   9 1.92  59 1.94  58 1.94  60 1.95  52 2.03  32 2.11
  71  0.905  0.904  0.100-  62 1.69  44 1.96  47 1.98  12 2.08  56 2.09  43 2.10
  72  0.901  0.102  0.893-  62 1.70  12 2.07  46 2.07  42 2.08  50 2.12  57 2.15
  73  0.110  0.900  0.897-  62 1.69  51 2.00  19 2.02  57 2.03  11 2.08  39 2.15
  74  0.105  0.107  0.097-  62 1.69  18 1.95  56 2.01  50 2.03  11 2.04
  75  0.378  0.629  0.388-  36 1.91  21 1.94  54 1.95  58 1.98  59 1.99  13 2.06  53 2.08  29 2.12
                            10 2.14
  76  0.376  0.373  0.609-  13 1.92  37 1.93  35 1.94  28 1.96  20 2.00  52 2.08  10 2.15
  77  0.093  0.346  0.385-  66 1.70  34 1.97  26 2.02  28 2.04   6 2.07
  78  0.092  0.655  0.607-  65 1.69  27 2.08   6 2.11  29 2.11  17 2.12  10 2.12  19 2.17
  79  0.103  0.148  0.594-  66 1.70  46 1.97   4 1.97  28 2.02   8 2.11  20 2.18
  80  0.110  0.857  0.400-  65 1.69   4 1.98  47 2.01  21 2.06  38 2.08  29 2.11
  81  0.889  0.146  0.395-  66 1.71   4 1.98  30 2.02  26 2.07  56 2.08  22 2.08
  82  0.887  0.855  0.592-  65 1.71   4 2.00  27 2.02  31 2.06   7 2.08  23 2.13
  83  0.871  0.402  0.108-  63 1.67   2 1.99  32 2.00  26 2.02  45 2.03  16 2.12  50 2.17
  84  0.868  0.601  0.900-  63 1.69   2 1.95  44 1.99  61 2.03  33 2.06  27 2.07
  85  0.163  0.594  0.112-  64 1.71   2 2.02  34 2.06  21 2.08  16 2.09  41 2.12
  86  0.161  0.400  0.889-  64 1.68   2 1.97  40 2.03  35 2.05  17 2.09  20 2.15  50 2.19
  87  0.406  0.899  0.136-  67 1.70  36 1.92   3 1.96  38 1.98  15 2.04  41 2.07  11 2.10
  88  0.405  0.105  0.850-  68 1.70   3 1.94  37 1.96  39 1.97  14 2.12
  89  0.387  0.097  0.341-  67 1.71  48 1.98   1 2.04  18 2.06  38 2.11
  90  0.398  0.899  0.648-  68 1.69  39 2.03   1 2.04  49 2.07  53 2.12  29 2.19
  91  0.367  0.395  0.091-  64 1.72  54 2.03  40 2.06  34 2.10   5 2.11
  92  0.353  0.614  0.902-  64 1.68   5 1.95  35 1.98  49 2.04  41 2.04
  93  0.616  0.090  0.650-  68 1.71  37 2.03  42 2.04   1 2.05  30 2.05
  94  0.609  0.908  0.339-  67 1.69  36 1.97   1 2.02  43 2.03  25 2.04   7 2.05
  95  0.666  0.607  0.104-  63 1.72  44 2.00  60 2.06   5 2.10  15 2.18
  96  0.668  0.392  0.910-  63 1.69   5 2.01  24 2.05  45 2.11  14 2.13  55 2.14  33 2.18
  97  0.895  0.346  0.607-  66 1.71  46 2.00  30 2.03   6 2.04  33 2.12
  98  0.911  0.658  0.379-  65 1.72  31 1.92  47 1.96   6 2.01  16 2.05  25 2.18
  99  0.604  0.112  0.141-  67 1.70   3 1.99  43 2.03  48 2.03  22 2.17
 100  0.606  0.889  0.849-  68 1.71   3 2.01  23 2.05  61 2.12  42 2.14  12 2.14  15 2.17
 

IMPORTANT INFORMATION: All symmetrisations will be switched off!
NOSYMM: (Re-)initialisation of all symmetry stuff for point group C_1.


----------------------------------------------------------------------------------------

                                     Primitive cell                                     

  volume of cell :     885.3357

  direct lattice vectors                    reciprocal lattice vectors
     0.018468748  9.590194013  0.030931247    -0.000202969  0.104274665 -0.000340148
    -0.049265939  0.031349325  9.639747892     0.000530077 -0.000335616  0.103740953
     9.577065356  0.018482159 -0.048875384     0.104419238 -0.000202813  0.000534316

  length of vectors
     9.590261677  9.639924757  9.577207904     0.104275418  0.103742850  0.104420802

  position of ions in fractional coordinates (direct lattice)
     0.498801069  0.003255119  0.493485643
     0.015310741  0.499533664  0.997224940
     0.505171838  0.005014542  0.993528112
     0.996630939  0.002366022  0.496105402
     0.512290667  0.515559425  0.978949050
     0.985241457  0.500710944  0.493959131
     0.754397393  0.981147095  0.477532692
     0.248264461  0.009432012  0.501604606
     0.710887083  0.449015333  0.519319527
     0.232258630  0.513106034  0.509233012
     0.267233817  0.002756785  0.004399669
     0.742696678  0.994537269  0.989964560
     0.479710699  0.530457628  0.548609352
     0.511309055  0.250789797  0.976246597
     0.528985210  0.767432487  0.021669867
     0.001698411  0.522007281  0.239426414
     0.030581340  0.493769360  0.742960691
     0.216085375  0.187260081  0.247012343
     0.204448397  0.752800369  0.778017761
     0.243221005  0.266269655  0.728416468
     0.204466231  0.688413411  0.304405932
     0.720093344  0.234481974  0.292404493
     0.676304574  0.826034993  0.655310695
     0.748948690  0.235149957  0.787208857
     0.741583841  0.757797718  0.265327892
     0.967853955  0.266710584  0.235803309
     0.946490750  0.732600070  0.750804256
     0.251678465  0.257499379  0.495396401
     0.264875667  0.761913198  0.523935179
     0.746262030  0.213832609  0.536577594
     0.775863096  0.684732971  0.524902955
     0.779927180  0.490572926  0.274583206
     0.783952752  0.485305179  0.739584764
     0.211648118  0.431023921  0.241859189
     0.287863733  0.494250325  0.746654303
     0.454246240  0.782877168  0.290805182
     0.477849165  0.237057863  0.714806327
     0.247097785  0.948020192  0.260510349
     0.250093712  0.005338668  0.758355861
     0.262779545  0.242011836  0.982923433
     0.273248239  0.765419013  0.031528553
     0.775494909  0.995737315  0.752561140
     0.762228496  0.006494868  0.231911216
     0.794319449  0.750691115  0.024866711
     0.762033399  0.237935839  0.033393083
     0.994618928  0.231384283  0.748956221
     0.992864829  0.784163107  0.242490032
     0.471615858  0.250049928  0.232750917
     0.463781003  0.731671922  0.765604441
     0.011528599  0.264423061  0.993336358
     0.027772973  0.739528365  0.997185177
     0.505753508  0.249633930  0.485232595
     0.501113874  0.752015608  0.517132106
     0.379669121  0.583196897  0.188526244
     0.536641066  0.472175653  0.748858365
     0.003035329  0.020470109  0.257416453
     0.010332992  0.986450676  0.732548407
     0.414030654  0.426167055  0.389270056
     0.575198338  0.579015064  0.341635677
     0.584470159  0.419210516  0.162293193
     0.690872687  0.686404049  0.822801810
     0.006026320  0.003685907  0.995925285
     0.770796056  0.498750418  0.004672649
     0.258893187  0.499560633  0.993978684
     0.002767218  0.757054149  0.496281769
     0.995680473  0.247241483  0.494836110
     0.502759857  0.006435984  0.238836105
     0.503789045  0.995892428  0.750191858
     0.630523114  0.622422799  0.640088512
     0.610033385  0.381947968  0.359809514
     0.905433104  0.904336954  0.100229987
     0.901276737  0.102234485  0.893166325
     0.110404587  0.900462555  0.896698954
     0.105337073  0.107314939  0.097072417
     0.378289910  0.628633681  0.387652166
     0.375594636  0.372820418  0.608800002
     0.092568527  0.346109265  0.385403373
     0.092210299  0.655439867  0.607431793
     0.103000249  0.147804988  0.594346415
     0.110018799  0.857242888  0.400287779
     0.889141265  0.145695423  0.395376474
     0.887036320  0.854516548  0.591780353
     0.871415287  0.401732742  0.107867963
     0.867960670  0.600681707  0.900271389
     0.163194632  0.593789825  0.112442318
     0.160554446  0.400408482  0.889145558
     0.406376065  0.899285507  0.136162167
     0.404622299  0.104752418  0.849913766
     0.386879697  0.097366532  0.340567642
     0.397539885  0.898889635  0.648025042
     0.367183872  0.395482699  0.090750626
     0.352852207  0.614454312  0.902447479
     0.615557257  0.089679836  0.649757689
     0.608942534  0.908333043  0.339169720
     0.666323574  0.607462364  0.103702556
     0.667919458  0.392159400  0.909868139
     0.895403781  0.345932729  0.606634814
     0.910959846  0.657625202  0.378642579
     0.604267723  0.112179254  0.140729426
     0.606235060  0.889096317  0.848755833

  ion indices of the primitive-cell ions
   primitive index   ion index
                 1           1
                 2           2
                 3           3
                 4           4
                 5           5
                 6           6
                 7           7
                 8           8
                 9           9
                10          10
                11          11
                12          12
                13          13
                14          14
                15          15
                16          16
                17          17
                18          18
                19          19
                20          20
                21          21
                22          22
                23          23
                24          24
                25          25
                26          26
                27          27
                28          28
                29          29
                30          30
                31          31
                32          32
                33          33
                34          34
                35          35
                36          36
                37          37
                38          38
                39          39
                40          40
                41          41
                42          42
                43          43
                44          44
                45          45
                46          46
                47          47
                48          48
                49          49
                50          50
                51          51
                52          52
                53          53
                54          54
                55          55
                56          56
                57          57
                58          58
                59          59
                60          60
                61          61
                62          62
                63          63
                64          64
                65          65
                66          66
                67          67
                68          68
                69          69
                70          70
                71          71
                72          72
                73          73
                74          74
                75          75
                76          76
                77          77
                78          78
                79          79
                80          80
                81          81
                82          82
                83          83
                84          84
                85          85
                86          86
                87          87
                88          88
                89          89
                90          90
                91          91
                92          92
                93          93
                94          94
                95          95
                96          96
                97          97
                98          98
                99          99
               100         100

----------------------------------------------------------------------------------------

 
 
 KPOINTS: Fully automatic kpoint scheme           

Automatic generation of k-mesh.
 generate k-points for:    3    3    3
Space group operators:
 irot       det(A)        alpha          n_x          n_y          n_z        tau_x        tau_y        tau_z
    1     1.000000     0.000001     1.000000     0.000000     0.000000     0.000000     0.000000     0.000000
 TETIRR: Found     78 inequivalent tetrahedra from      162
 
 Subroutine IBZKPT returns following result:
 ===========================================
 
 Found     14 irreducible k-points:
 
 Following reciprocal coordinates:
            Coordinates               Weight
  0.000000  0.000000  0.000000      1.000000
  0.333333  0.000000  0.000000      2.000000
 -0.000000  0.333333  0.000000      2.000000
  0.333333  0.333333  0.000000      2.000000
 -0.333333  0.333333 -0.000000      2.000000
  0.000000 -0.000000  0.333333      2.000000
  0.333333 -0.000000  0.333333      2.000000
 -0.333333 -0.000000  0.333333      2.000000
 -0.000000  0.333333  0.333333      2.000000
  0.333333  0.333333  0.333333      2.000000
 -0.333333  0.333333  0.333333      2.000000
  0.000000 -0.333333  0.333333      2.000000
  0.333333 -0.333333  0.333333      2.000000
 -0.333333 -0.333333  0.333333      2.000000
 
 Following cartesian coordinates:
            Coordinates               Weight
  0.000000  0.000000  0.000000      1.000000
 -0.000068  0.034758 -0.000113      2.000000
  0.000177 -0.000112  0.034580      2.000000
  0.000109  0.034646  0.034467      2.000000
  0.000244 -0.034870  0.034694      2.000000
  0.034806 -0.000068  0.000178      2.000000
  0.034739  0.034691  0.000065      2.000000
  0.034874 -0.034826  0.000291      2.000000
  0.034983 -0.000179  0.034758      2.000000
  0.034915  0.034579  0.034645      2.000000
  0.035051 -0.034938  0.034872      2.000000
  0.034630  0.000044 -0.034402      2.000000
  0.034562  0.034802 -0.034516      2.000000
  0.034697 -0.034714 -0.034289      2.000000
 


--------------------------------------------------------------------------------------------------------




 Dimension of arrays:
   k-points           NKPTS =     14   k-points in BZ     NKDIM =     14   number of bands    NBANDS=    272
   number of dos      NEDOS =    301   number of ions     NIONS =    100
   non local maximal  LDIM  =      4   non local SUM 2l+1 LMDIM =      8
   total plane-waves  NPLWV = 373248
   max r-space proj   IRMAX =   4933   max aug-charges    IRDMAX=  13028
   dimension x,y,z NGX =    72 NGY =   72 NGZ =   72
   dimension x,y,z NGXF=   144 NGYF=  144 NGZF=  144
   support grid    NGXF=   144 NGYF=  144 NGZF=  144
   ions per type =              61   7  32
   NGX,Y,Z   is equivalent  to a cutoff of  12.48, 12.42, 12.50 a.u.
   NGXF,Y,Z  is equivalent  to a cutoff of  24.96, 24.83, 25.00 a.u.

 SYSTEM =  unknown system                          
 POSCAR =  Li61 P7 N32                             

 Startparameter for this run:
   NWRITE =      2    write-flag & timer
   PREC   = accura    normal or accurate (medium, high low for compatibility)
   ISTART =      0    job   : 0-new  1-cont  2-samecut
   ICHARG =      2    charge: 1-file 2-atom 10-const
   ISPIN  =      2    spin polarized calculation?
   LNONCOLLINEAR =      F non collinear calculations
   LSORBIT =      F    spin-orbit coupling
   INIWAV =      1    electr: 0-lowe 1-rand  2-diag
   LASPH  =      T    aspherical Exc in radial PAW
   METAGGA=      F    non-selfconsistent MetaGGA calc.

 Electronic Relaxation 1
   ENCUT  =  520.0 eV  38.22 Ry    6.18 a.u.  17.83 17.92 17.81*2*pi/ulx,y,z
   ENINI  =  520.0     initial cutoff
   ENAUG  =  628.9 eV  augmentation charge cutoff
   NELM   =    100;   NELMIN=  2; NELMDL= -5     # of ELM steps 
   EDIFF  = 0.1E-04   stopping-criterion for ELM
   LREAL  =      T    real-space projection
   NLSPLINE    = F    spline interpolate recip. space projectors
   LCOMPAT=      F    compatible to vasp.4.4
   GGA_COMPAT  = T    GGA compatible to vasp.4.4-vasp.4.6
   LMAXPAW     = -100 max onsite density
   LMAXMIX     =    2 max onsite mixed and CHGCAR
   VOSKOWN=      0    Vosko Wilk Nusair interpolation
   ROPT   =   -0.00025  -0.00025  -0.00025
 Ionic relaxation
   EDIFFG = -.3E-01   stopping-criterion for IOM
   NSW    =    200    number of steps for IOM
   NBLOCK =      1;   KBLOCK =    200    inner block; outer block 
   IBRION =      2    ionic relax: 0-MD 1-quasi-New 2-CG
   NFREE  =      1    steps in history (QN), initial steepest desc. (CG)
   ISIF   =      3    stress and relaxation
   IWAVPR =     11    prediction:  0-non 1-charg 2-wave 3-comb
   ISYM   =      0    0-nonsym 1-usesym 2-fastsym
   LCORR  =      T    Harris-Foulkes like correction to forces

   POTIM  = 0.5000    time-step for ionic-motion
   TEIN   =    0.0    initial temperature
   TEBEG  =    0.0;   TEEND  =   0.0 temperature during run
   SMASS  =  -3.00    Nose mass-parameter (am)
   estimated Nose-frequenzy (Omega)   =  0.10E-29 period in steps = 0.13E+47 mass=  -0.210E-26a.u.
   SCALEE = 1.0000    scale energy and forces
   NPACO  =    256;   APACO  = 16.0  distance and # of slots for P.C.
   PSTRESS=    0.0 pullay stress

  Mass of Ions in am
   POMASS =   7.01 30.97 14.00
  Ionic Valenz
   ZVAL   =   3.00  5.00  5.00
  Atomic Wigner-Seitz radii
   RWIGS  =  -1.00 -1.00 -1.00
  virtual crystal weights 
   VCA    =   1.00  1.00  1.00
   NELECT =     378.0000    total number of electrons
   NUPDOWN=      -1.0000    fix difference up-down

 DOS related values:
   EMIN   =  10.00;   EMAX   =-10.00  energy-range for DOS
   EFERMI =   0.00
   ISMEAR =    -5;   SIGMA  =   0.05  broadening in eV -4-tet -1-fermi 0-gaus

 Electronic relaxation 2 (details)
   IALGO  =     38    algorithm
   LDIAG  =      T    sub-space diagonalisation (order eigenvalues)
   LSUBROT=      F    optimize rotation matrix (better conditioning)
   TURBO    =      0    0=normal 1=particle mesh
   IRESTART =      0    0=no restart 2=restart with 2 vectors
   NREBOOT  =      0    no. of reboots
   NMIN     =      0    reboot dimension
   EREF     =   0.00    reference energy to select bands
   IMIX   =      4    mixing-type and parameters
     AMIX     =   0.40;   BMIX     =  1.00
     AMIX_MAG =   1.60;   BMIX_MAG =  1.00
     AMIN     =   0.10
     WC   =   100.;   INIMIX=   1;  MIXPRE=   1;  MAXMIX= -45

 Intra band minimization:
   WEIMIN = 0.0010     energy-eigenvalue tresh-hold
   EBREAK =  0.92E-08  absolut break condition
   DEPER  =   0.30     relativ break condition  

   TIME   =   0.40     timestep for ELM

  volume/ion in A,a.u.               =       8.85        59.75
  Fermi-wavevector in a.u.,A,eV,Ry     =   1.232734  2.329530 20.675869  1.519634
  Thomas-Fermi vector in A             =   2.367492
 
 Write flags
   LWAVE        =      F    write WAVECAR
   LDOWNSAMPLE  =      F    k-point downsampling of WAVECAR
   LCHARG       =      F    write CHGCAR
   LVTOT        =      F    write LOCPOT, total local potential
   LVHAR        =      F    write LOCPOT, Hartree potential only
   LELF         =      F    write electronic localiz. function (ELF)
   LORBIT       =     11    0 simple, 1 ext, 2 COOP (PROOUT), +10 PAW based schemes


 Dipole corrections
   LMONO  =      F    monopole corrections only (constant potential shift)
   LDIPOL =      F    correct potential (dipole corrections)
   IDIPOL =      0    1-x, 2-y, 3-z, 4-all directions 
   EPSILON=  1.0000000 bulk dielectric constant

 Exchange correlation treatment:
   GGA     =    --    GGA type
   LEXCH   =     8    internal setting for exchange type
   VOSKOWN=      0    Vosko Wilk Nusair interpolation
   LHFCALC =     F    Hartree Fock is set to
   LHFONE  =     F    Hartree Fock one center treatment
   AEXX    =    0.0000 exact exchange contribution

 Linear response parameters
   LEPSILON=     F    determine dielectric tensor
   LRPA    =     F    only Hartree local field effects (RPA)
   LNABLA  =     F    use nabla operator in PAW spheres
   LVEL    =     F    velocity operator in full k-point grid
   LINTERFAST=   F  fast interpolation
   KINTER  =     0    interpolate to denser k-point grid
   CSHIFT  =0.1000    complex shift for real part using Kramers Kronig
   OMEGAMAX=  -1.0    maximum frequency
   DEG_THRESHOLD= 0.2000000E-02 threshold for treating states as degnerate
   RTIME   =   -0.100 relaxation time in fs
  (WPLASMAI=    0.000 imaginary part of plasma frequency in eV, 0.658/RTIME)
   DFIELD  = 0.0000000 0.0000000 0.0000000 field for delta impulse in time
 
 Orbital magnetization related:
   ORBITALMAG=     F  switch on orbital magnetization
   LCHIMAG   =     F  perturbation theory with respect to B field
   DQ        =  0.001000  dq finite difference perturbation B field
   LLRAUG    =     F  two centre corrections for induced B field



--------------------------------------------------------------------------------------------------------


 conjugate gradient relaxation of ions
 charge density and potential will be updated during run
 spin polarized calculation
 Variant of blocked Davidson
 Davidson routine will perform the subspace rotation
 perform sub-space diagonalisation
    after iterative eigenvector-optimisation
 modified Broyden-mixing scheme, WC =      100.0
 initial mixing is a Kerker type mixing with AMIX =  0.4000 and BMIX =      1.0000
 Hartree-type preconditioning will be used
 using additional bands           83
 real space projection scheme for non local part
 use partial core corrections
 calculate Harris-corrections to forces 
   (improved forces if not selfconsistent)
 use gradient corrections 
 use of overlap-Matrix (Vanderbilt PP)
 Fermi weights with tetrahedron method with Bloechl corrections


--------------------------------------------------------------------------------------------------------


  energy-cutoff  :      520.00
  volume of cell :      885.34
      direct lattice vectors                 reciprocal lattice vectors
     0.018468748  9.590194013  0.030931247    -0.000202969  0.104274665 -0.000340148
    -0.049265939  0.031349325  9.639747892     0.000530077 -0.000335616  0.103740953
     9.577065356  0.018482159 -0.048875384     0.104419238 -0.000202813  0.000534316

  length of vectors
     9.590261677  9.639924757  9.577207904     0.104275418  0.103742850  0.104420802


 
 k-points in units of 2pi/SCALE and weight: Fully automatic kpoint scheme           
   0.00000000  0.00000000  0.00000000       0.037
  -0.00006766  0.03475822 -0.00011338       0.074
   0.00017669 -0.00011187  0.03458032       0.074
   0.00010904  0.03464635  0.03446694       0.074
   0.00024435 -0.03487009  0.03469370       0.074
   0.03480641 -0.00006760  0.00017811       0.074
   0.03473876  0.03469062  0.00006472       0.074
   0.03487407 -0.03482583  0.00029149       0.074
   0.03498310 -0.00017948  0.03475842       0.074
   0.03491545  0.03457875  0.03464504       0.074
   0.03505076 -0.03493770  0.03487181       0.074
   0.03462972  0.00004427 -0.03440221       0.074
   0.03456206  0.03480249 -0.03451560       0.074
   0.03469738 -0.03471395 -0.03428883       0.074
 
 k-points in reciprocal lattice and weights: Fully automatic kpoint scheme           
   0.00000000  0.00000000  0.00000000       0.037
   0.33333333  0.00000000  0.00000000       0.074
  -0.00000000  0.33333333  0.00000000       0.074
   0.33333333  0.33333333  0.00000000       0.074
  -0.33333333  0.33333333 -0.00000000       0.074
   0.00000000 -0.00000000  0.33333333       0.074
   0.33333333 -0.00000000  0.33333333       0.074
  -0.33333333 -0.00000000  0.33333333       0.074
  -0.00000000  0.33333333  0.33333333       0.074
   0.33333333  0.33333333  0.33333333       0.074
  -0.33333333  0.33333333  0.33333333       0.074
   0.00000000 -0.33333333  0.33333333       0.074
   0.33333333 -0.33333333  0.33333333       0.074
  -0.33333333 -0.33333333  0.33333333       0.074
 
 position of ions in fractional coordinates (direct lattice) 
   0.49880107  0.00325512  0.49348564
   0.01531074  0.49953366  0.99722494
   0.50517184  0.00501454  0.99352811
   0.99663094  0.00236602  0.49610540
   0.51229067  0.51555942  0.97894905
   0.98524146  0.50071094  0.49395913
   0.75439739  0.98114709  0.47753269
   0.24826446  0.00943201  0.50160461
   0.71088708  0.44901533  0.51931953
   0.23225863  0.51310603  0.50923301
   0.26723382  0.00275679  0.00439967
   0.74269668  0.99453727  0.98996456
   0.47971070  0.53045763  0.54860935
   0.51130906  0.25078980  0.97624660
   0.52898521  0.76743249  0.02166987
   0.00169841  0.52200728  0.23942641
   0.03058134  0.49376936  0.74296069
   0.21608538  0.18726008  0.24701234
   0.20444840  0.75280037  0.77801776
   0.24322100  0.26626966  0.72841647
   0.20446623  0.68841341  0.30440593
   0.72009334  0.23448197  0.29240449
   0.67630457  0.82603499  0.65531069
   0.74894869  0.23514996  0.78720886
   0.74158384  0.75779772  0.26532789
   0.96785395  0.26671058  0.23580331
   0.94649075  0.73260007  0.75080426
   0.25167847  0.25749938  0.49539640
   0.26487567  0.76191320  0.52393518
   0.74626203  0.21383261  0.53657759
   0.77586310  0.68473297  0.52490296
   0.77992718  0.49057293  0.27458321
   0.78395275  0.48530518  0.73958476
   0.21164812  0.43102392  0.24185919
   0.28786373  0.49425032  0.74665430
   0.45424624  0.78287717  0.29080518
   0.47784917  0.23705786  0.71480633
   0.24709779  0.94802019  0.26051035
   0.25009371  0.00533867  0.75835586
   0.26277954  0.24201184  0.98292343
   0.27324824  0.76541901  0.03152855
   0.77549491  0.99573731  0.75256114
   0.76222850  0.00649487  0.23191122
   0.79431945  0.75069112  0.02486671
   0.76203340  0.23793584  0.03339308
   0.99461893  0.23138428  0.74895622
   0.99286483  0.78416311  0.24249003
   0.47161586  0.25004993  0.23275092
   0.46378100  0.73167192  0.76560444
   0.01152860  0.26442306  0.99333636
   0.02777297  0.73952837  0.99718518
   0.50575351  0.24963393  0.48523259
   0.50111387  0.75201561  0.51713211
   0.37966912  0.58319690  0.18852624
   0.53664107  0.47217565  0.74885836
   0.00303533  0.02047011  0.25741645
   0.01033299  0.98645068  0.73254841
   0.41403065  0.42616706  0.38927006
   0.57519834  0.57901506  0.34163568
   0.58447016  0.41921052  0.16229319
   0.69087269  0.68640405  0.82280181
   0.00602632  0.00368591  0.99592529
   0.77079606  0.49875042  0.00467265
   0.25889319  0.49956063  0.99397868
   0.00276722  0.75705415  0.49628177
   0.99568047  0.24724148  0.49483611
   0.50275986  0.00643598  0.23883610
   0.50378904  0.99589243  0.75019186
   0.63052311  0.62242280  0.64008851
   0.61003338  0.38194797  0.35980951
   0.90543310  0.90433695  0.10022999
   0.90127674  0.10223449  0.89316632
   0.11040459  0.90046256  0.89669895
   0.10533707  0.10731494  0.09707242
   0.37828991  0.62863368  0.38765217
   0.37559464  0.37282042  0.60880000
   0.09256853  0.34610927  0.38540337
   0.09221030  0.65543987  0.60743179
   0.10300025  0.14780499  0.59434642
   0.11001880  0.85724289  0.40028778
   0.88914127  0.14569542  0.39537647
   0.88703632  0.85451655  0.59178035
   0.87141529  0.40173274  0.10786796
   0.86796067  0.60068171  0.90027139
   0.16319463  0.59378982  0.11244232
   0.16055445  0.40040848  0.88914556
   0.40637606  0.89928551  0.13616217
   0.40462230  0.10475242  0.84991377
   0.38687970  0.09736653  0.34056764
   0.39753989  0.89888964  0.64802504
   0.36718387  0.39548270  0.09075063
   0.35285221  0.61445431  0.90244748
   0.61555726  0.08967984  0.64975769
   0.60894253  0.90833304  0.33916972
   0.66632357  0.60746236  0.10370256
   0.66791946  0.39215940  0.90986814
   0.89540378  0.34593273  0.60663481
   0.91095985  0.65762520  0.37864258
   0.60426772  0.11217925  0.14072943
   0.60623506  0.88909632  0.84875583
 
 position of ions in cartesian coordinates  (Angst):
   4.73519612  4.79282175  0.02268776
   9.52616120  0.18092389  4.76711242
   9.52416651  4.86321569  0.01540545
   4.76952382  9.56712734  0.02938755
   9.35952088  4.94722242  4.93786215
   4.72420707  9.47348310  4.83305957
   4.53895744  7.27440150  9.45800550
   4.80802055  2.39047077  0.07408523
   4.96456509  6.84121952  4.32500129
   4.85596871  2.25290257  4.92850790
   0.04693557  2.56299189  0.03462556
   9.44567515  7.17207998  9.56167618
   5.23679378  4.62728765  5.10150236
   9.34666531  4.92945828  2.38565141
   0.17949514  5.09752979  7.41315875
   2.26731660  0.03707778  5.02036906
   7.09162188  0.32249184  4.72444558
   2.36041863  2.08273647  1.79975094
   7.41781544  1.99867903  7.22510369
   6.96746608  2.35434671  2.53869384
   2.88517641  1.98807820  6.62757816
   2.80212419  6.91858999  2.26832911
   6.24774846  6.52389928  7.95165946
   7.54139793  7.20448435  2.25147709
   2.51742507  7.14059319  7.31494906
   2.26303901  9.29462655  2.58943475
   7.17188970  9.11387293  7.05466027
   4.73640595  2.43087374  2.46580114
   4.98511701  2.57377795  7.32723654
   5.14208655  7.17341827  2.05814982
   5.00762512  7.47184487  6.59899679
   2.61993706  7.50010700  4.73970309
   7.07362124  7.54714210  4.66632072
   2.29897533  2.04772890  4.14968752
   7.13172383  2.78996324  4.73685949
   2.75488041  4.38622695  7.54657572
   6.84289331  4.60330897  2.26502207
   2.45278312  2.40425029  9.13358615
   7.26717955  2.41263063  0.02213419
   9.40645223  2.54586027  2.29302042
   0.26928848  2.64508171  7.38535726
   7.17259371  7.48227128  9.58586199
   2.23478630  7.31440899  0.07485082
   0.21583670  7.64167087  7.25982702
   0.32215941  7.31612444  2.31558004
   7.17977268  9.55968456  2.22464543
   2.30204732  9.55083106  7.57799341
   2.22546195  4.53502821  2.41363014
   7.30476272  4.48483724  7.03005898
   9.50043309  0.13720998  2.50077854
   9.51418699  0.30796205  7.08098824
   4.64414646  4.86706826  2.39833581
   4.92481417  4.83891217  7.23946592
   1.78380843  3.66286773  5.62440040
   7.15851441  5.17513484  4.53165250
   2.46434177  0.03450873  0.18483925
   6.96725639  0.14355903  9.47365185
   3.71471588  3.99118890  4.10192373
   3.25396468  5.54072955  5.58265327
   1.54443415  5.62132371  4.05122993
   7.85896992  6.66232856  6.59791678
   9.53797126  0.07631598 -0.01295861
   0.03441450  7.40780557  4.83144159
   9.49956893  2.51686765  4.77506536
   4.71567706  0.05944365  7.27364077
   4.74528615  9.56566540  2.38995790
   2.29631725  4.82618054  0.06591904
   7.14487724  4.87652040  9.57906884
   6.11115024  6.07818175  5.98821716
   3.43836876  5.86896238  3.68316539
   0.93207834  8.71348195  8.74068764
   8.56552104  8.66313139  0.96973843
   8.54542139  1.10360324  8.63982046
   0.92632735  1.01536133  1.03300271
   3.68858644  3.65474552  6.05262453
   5.81908683  3.62496504  3.57575711
   3.67569152  0.90572351  3.32043258
   5.78682613  0.91608890  6.29143879
   5.68671500  1.00341076  1.39893984
   3.79338126  1.08937380  8.24744412
   3.79578984  8.53891210  1.41264522
   5.64180301  8.54457630  8.23583774
   1.02936074  8.37162936  3.89428423
   8.60839493  8.35938115  5.77326621
   1.05062782  1.58576127  5.72353636
   8.49864386  1.56873415  3.82134564
   1.26723509  3.92793387  8.67480031
   8.14199182  3.89939851  0.98076251
   3.26398690  3.71959815  0.93391012
   6.16923560  3.85264111  8.64569340
   0.85642228  3.53543995  3.81927549
   8.61904355  3.41986302  5.88999135
   6.22972226  5.91813385  0.85177380
   3.21474710  5.87462126  8.75835983
   0.97554511  6.41113253  5.87132576
   8.70688217  6.43458745  3.75650718
   5.80927554  8.60915266  3.33275074
   3.61071049  8.76389590  6.34901198
   1.35340836  5.80116242  1.09319228
   8.09598432  5.85747125  8.54793269
 


--------------------------------------------------------------------------------------------------------


 k-point   1 :   0.0000 0.0000 0.0000  plane waves:   23825
 k-point   2 :   0.3333 0.0000 0.0000  plane waves:   23836
 k-point   3 :  -0.0000 0.3333 0.0000  plane waves:   23852
 k-point   4 :   0.3333 0.3333 0.0000  plane waves:   23845
 k-point   5 :  -0.3333 0.3333-0.0000  plane waves:   23856
 k-point   6 :   0.0000-0.0000 0.3333  plane waves:   23836
 k-point   7 :   0.3333-0.0000 0.3333  plane waves:   23831
 k-point   8 :  -0.3333-0.0000 0.3333  plane waves:   23830
 k-point   9 :  -0.0000 0.3333 0.3333  plane waves:   23849
 k-point  10 :   0.3333 0.3333 0.3333  plane waves:   23833
 k-point  11 :  -0.3333 0.3333 0.3333  plane waves:   23864
 k-point  12 :   0.0000-0.3333 0.3333  plane waves:   23836
 k-point  13 :   0.3333-0.3333 0.3333  plane waves:   23838
 k-point  14 :  -0.3333-0.3333 0.3333  plane waves:   23846

 maximum and minimum number of plane-waves per node :      1526     1458

 maximum number of plane-waves:     23864
 maximum index in each direction: 
   IXMAX=   18   IYMAX=   18   IZMAX=   17
   IXMIN=  -18   IYMIN=  -18   IZMIN=  -18


 real space projection operators:
  total allocation   :      15898.35 KBytes
  max/ min on nodes  :       1169.27        822.02


 parallel 3D FFT for wavefunctions:
    minimum data exchange during FFTs selected (reduces bandwidth)
 parallel 3D FFT for charge:
    minimum data exchange during FFTs selected (reduces bandwidth)


 total amount of memory used by VASP MPI-rank0    71164. kBytes
=======================================================================

   base      :      30000. kBytes
   nonlr-proj:       9774. kBytes
   fftplans  :       2053. kBytes
   grid      :       5776. kBytes
   one-center:         43. kBytes
   wavefun   :      23518. kBytes
 
     INWAV:  cpu time    0.0000: real time    0.0000
 Broyden mixing: mesh for mixing (old mesh)
   NGX = 35   NGY = 35   NGZ = 35
  (NGX  =144   NGY  =144   NGZ  =144)
  gives a total of  42875 points

 initial charge density was supplied:
 charge density of overlapping atoms calculated
 number of electron     378.0000000 magnetization      60.0000000
 keeping initial charge density in first step


--------------------------------------------------------------------------------------------------------


 Maximum index for non-local projection operator          546
 Maximum index for augmentation-charges          646 (set IRDMAX)


--------------------------------------------------------------------------------------------------------


 First call to EWALD:  gamma=   0.185
 Maximum number of real-space cells 3x 3x 3
 Maximum number of reciprocal cells 3x 3x 3

    FEWALD:  cpu time    0.0064: real time    0.0073


--------------------------------------- Iteration      1(   1)  ---------------------------------------


    POTLOK:  cpu time    0.0570: real time    0.0934
    SETDIJ:  cpu time    0.1837: real time    0.1838
     EDDAV:  cpu time    9.6664: real time    9.6950
 BZINTS: Fermi energy:   19.996721;  378.000000 electrons
         Band energy:-0.174678E+04;  BLOECHL correction:   -0.045974
       DOS:  cpu time    0.0926: real time    0.0926
    --------------------------------------------
      LOOP:  cpu time    9.9997: real time   10.0647

 eigenvalue-minimisations  : 15232
 total energy-change (2. order) : 0.3603042E+04  (-0.1560420E+05)
 number of electron     378.0000000 magnetization      60.0000000
 augmentation part      378.0000000 magnetization      60.0000000

 Free energy of the ion-electron system (eV)
  ---------------------------------------------------
  alpha Z        PSCENC =       554.19365617
  Ewald energy   TEWEN  =    -13641.80286277
  -Hartree energ DENC   =     -4153.84924956
  -exchange      EXHF   =         0.00000000
  -V(xc)+E(xc)   XCENC  =      1443.86177050
  PAW double counting   =     12394.57875448   -13313.74769911
  entropy T*S    EENTRO =         0.00000000
  eigenvalues    EBANDS =     -1746.78435947
  atomic energy  EATOM  =     22066.59154079
  Solvation  Ediel_sol  =         0.00000000
  ---------------------------------------------------
  free energy    TOTEN  =      3603.04155103 eV

  energy without entropy =     3603.04155103  energy(sigma->0) =     3603.04155103


--------------------------------------------------------------------------------------------------------




--------------------------------------- Iteration      1(   2)  ---------------------------------------


     EDDAV:  cpu time   10.1204: real time   10.1461
 BZINTS: Fermi energy:    5.488765;  378.000000 electrons
         Band energy:-0.527582E+04;  BLOECHL correction:   -0.000001
       DOS:  cpu time    0.0504: real time    0.0504
    --------------------------------------------
      LOOP:  cpu time   10.1708: real time   10.1966

 eigenvalue-minimisations  : 16192
 total energy-change (2. order) :-0.3529036E+04  (-0.3174144E+04)
 number of electron     378.0000000 magnetization      60.0000000
 augmentation part      378.0000000 magnetization      60.0000000

 Free energy of the ion-electron system (eV)
  ---------------------------------------------------
  alpha Z        PSCENC =       554.19365617
  Ewald energy   TEWEN  =    -13641.80286277
  -Hartree energ DENC   =     -4153.84924956
  -exchange      EXHF   =         0.00000000
  -V(xc)+E(xc)   XCENC  =      1443.86177050
  PAW double counting   =     12394.57875448   -13313.74769911
  entropy T*S    EENTRO =         0.00000000
  eigenvalues    EBANDS =     -5275.82043375
  atomic energy  EATOM  =     22066.59154079
  Solvation  Ediel_sol  =         0.00000000
  ---------------------------------------------------
  free energy    TOTEN  =        74.00547675 eV

  energy without entropy =       74.00547675  energy(sigma->0) =       74.00547675


--------------------------------------------------------------------------------------------------------




--------------------------------------- Iteration      1(   3)  ---------------------------------------


     EDDAV:  cpu time   12.4751: real time   12.5269
 BZINTS: Fermi energy:    1.700348;  378.000000 electrons
         Band energy:-0.579463E+04;  BLOECHL correction:   -0.000000
       DOS:  cpu time    0.0569: real time    0.0569
    --------------------------------------------
      LOOP:  cpu time   12.5320: real time   12.5838

 eigenvalue-minimisations  : 21200
 total energy-change (2. order) :-0.5188066E+03  (-0.5113306E+03)
 number of electron     378.0000000 magnetization      60.0000000
 augmentation part      378.0000000 magnetization      60.0000000

 Free energy of the ion-electron system (eV)
  ---------------------------------------------------
  alpha Z        PSCENC =       554.19365617
  Ewald energy   TEWEN  =    -13641.80286277
  -Hartree energ DENC   =     -4153.84924956
  -exchange      EXHF   =         0.00000000
  -V(xc)+E(xc)   XCENC  =      1443.86177050
  PAW double counting   =     12394.57875448   -13313.74769911
  entropy T*S    EENTRO =         0.00000000
  eigenvalues    EBANDS =     -5794.62705627
  atomic energy  EATOM  =     22066.59154079
  Solvation  Ediel_sol  =         0.00000000
  ---------------------------------------------------
  free energy    TOTEN  =      -444.80114577 eV

  energy without entropy =     -444.80114577  energy(sigma->0) =     -444.80114577


--------------------------------------------------------------------------------------------------------




--------------------------------------- Iteration      1(   4)  ---------------------------------------


     EDDAV:  cpu time   15.7788: real time   15.7991
 BZINTS: Fermi energy:    1.590867;  378.000000 electrons
         Band energy:-0.587061E+04;  BLOECHL correction:   -0.000000
       DOS:  cpu time    0.0566: real time    0.0566
    --------------------------------------------
      LOOP:  cpu time   15.8354: real time   15.8556

 eigenvalue-minimisations  : 28272
 total energy-change (2. order) :-0.7598223E+02  (-0.7501667E+02)
 number of electron     378.0000000 magnetization      60.0000000
 augmentation part      378.0000000 magnetization      60.0000000

 Free energy of the ion-electron system (eV)
  ---------------------------------------------------
  alpha Z        PSCENC =       554.19365617
  Ewald energy   TEWEN  =    -13641.80286277
  -Hartree energ DENC   =     -4153.84924956
  -exchange      EXHF   =         0.00000000
  -V(xc)+E(xc)   XCENC  =      1443.86177050
  PAW double counting   =     12394.57875448   -13313.74769911
  entropy T*S    EENTRO =         0.00000000
  eigenvalues    EBANDS =     -5870.60928297
  atomic energy  EATOM  =     22066.59154079
  Solvation  Ediel_sol  =         0.00000000
  ---------------------------------------------------
  free energy    TOTEN  =      -520.78337247 eV

  energy without entropy =     -520.78337247  energy(sigma->0) =     -520.78337247


--------------------------------------------------------------------------------------------------------




--------------------------------------- Iteration      1(   5)  ---------------------------------------


     EDDAV:  cpu time   12.8600: real time   12.8994
 BZINTS: Fermi energy:    1.587812;  378.000000 electrons
         Band energy:-0.587845E+04;  BLOECHL correction:   -0.000000
       DOS:  cpu time    0.0540: real time    0.0540
    CHARGE:  cpu time    0.2230: real time    0.2266
    MIXING:  cpu time    0.0043: real time    0.0057
    --------------------------------------------
      LOOP:  cpu time   13.1413: real time   13.1857

 eigenvalue-minimisations  : 22272
 total energy-change (2. order) :-0.7841973E+01  (-0.7834948E+01)
 number of electron     378.0000030 magnetization      31.3736412
 augmentation part       67.0747338 magnetization      30.1219638

 Broyden mixing:
  rms(total) = 0.73783E+01    rms(broyden)= 0.73769E+01
  rms(prec ) = 0.87526E+01
  weight for this iteration     100.00

 Free energy of the ion-electron system (eV)
  ---------------------------------------------------
  alpha Z        PSCENC =       554.19365617
  Ewald energy   TEWEN  =    -13641.80286277
  -Hartree energ DENC   =     -4153.84924956
  -exchange      EXHF   =         0.00000000
  -V(xc)+E(xc)   XCENC  =      1443.86177050
  PAW double counting   =     12394.57875448   -13313.74769911
  entropy T*S    EENTRO =         0.00000000
  eigenvalues    EBANDS =     -5878.45125618
  atomic energy  EATOM  =     22066.59154079
  Solvation  Ediel_sol  =         0.00000000
  ---------------------------------------------------
  free energy    TOTEN  =      -528.62534568 eV

  energy without entropy =     -528.62534568  energy(sigma->0) =     -528.62534568


--------------------------------------------------------------------------------------------------------




--------------------------------------- Iteration      1(   6)  ---------------------------------------


    POTLOK:  cpu time    0.0547: real time    0.0810
    SETDIJ:  cpu time    0.1820: real time    0.1820
     EDDAV:  cpu time   11.6379: real time   11.6671
 BZINTS: Fermi energy:    3.608669;  378.000000 electrons
         Band energy:-0.543704E+04;  BLOECHL correction:   -0.000000
       DOS:  cpu time    0.0561: real time    0.0561
    CHARGE:  cpu time    0.2210: real time    0.2210
    MIXING:  cpu time    0.0020: real time    0.0022
    --------------------------------------------
      LOOP:  cpu time   12.1537: real time   12.2094

 eigenvalue-minimisations  : 19344
 total energy-change (2. order) : 0.5989730E+02  (-0.2545530E+02)
 number of electron     378.0000030 magnetization      18.3198433
 augmentation part       62.5898097 magnetization      16.4615876

 Broyden mixing:
  rms(total) = 0.34603E+01    rms(broyden)= 0.34597E+01
  rms(prec ) = 0.36009E+01
  weight for this iteration     100.00

 eigenvalues of (default mixing * dielectric matrix)
  average eigenvalue GAMMA=   0.7275
  0.7275

 Free energy of the ion-electron system (eV)
  ---------------------------------------------------
  alpha Z        PSCENC =       554.19365617
  Ewald energy   TEWEN  =    -13641.80286277
  -Hartree energ DENC   =     -4557.14104858
  -exchange      EXHF   =         0.00000000
  -V(xc)+E(xc)   XCENC  =      1474.22124712
  PAW double counting   =     18523.23017419   -19450.98016444
  entropy T*S    EENTRO =         0.00000000
  eigenvalues    EBANDS =     -5437.04058728
  atomic energy  EATOM  =     22066.59154079
  Solvation  Ediel_sol  =         0.00000000
  ---------------------------------------------------
  free energy    TOTEN  =      -468.72804481 eV

  energy without entropy =     -468.72804481  energy(sigma->0) =     -468.72804481


--------------------------------------------------------------------------------------------------------




--------------------------------------- Iteration      1(   7)  ---------------------------------------


    POTLOK:  cpu time    0.0565: real time    0.0744
    SETDIJ:  cpu time    0.1794: real time    0.1797
     EDDAV:  cpu time   13.0806: real time   13.1034
 BZINTS: Fermi energy:    3.548480;  378.000000 electrons
         Band energy:-0.544924E+04;  BLOECHL correction:   -0.000000
       DOS:  cpu time    0.0512: real time    0.0512
    CHARGE:  cpu time    0.2182: real time    0.2182
    MIXING:  cpu time    0.0010: real time    0.0010
    --------------------------------------------
      LOOP:  cpu time   13.5868: real time   13.6279

 eigenvalue-minimisations  : 22352
 total energy-change (2. order) :-0.1329539E+02  (-0.4346287E+01)
 number of electron     378.0000029 magnetization      10.0532497
 augmentation part       59.2095339 magnetization       9.3831107

 Broyden mixing:
  rms(total) = 0.17548E+01    rms(broyden)= 0.17528E+01
  rms(prec ) = 0.19073E+01
  weight for this iteration     100.00

 eigenvalues of (default mixing * dielectric matrix)
  average eigenvalue GAMMA=   0.8825
  1.1005  0.6645

 Free energy of the ion-electron system (eV)
  ---------------------------------------------------
  alpha Z        PSCENC =       554.19365617
  Ewald energy   TEWEN  =    -13641.80286277
  -Hartree energ DENC   =     -4547.53406808
  -exchange      EXHF   =         0.00000000
  -V(xc)+E(xc)   XCENC  =      1466.23476316
  PAW double counting   =     22531.08389889   -23461.54699817
  entropy T*S    EENTRO =         0.00000000
  eigenvalues    EBANDS =     -5449.24336592
  atomic energy  EATOM  =     22066.59154079
  Solvation  Ediel_sol  =         0.00000000
  ---------------------------------------------------
  free energy    TOTEN  =      -482.02343593 eV

  energy without entropy =     -482.02343593  energy(sigma->0) =     -482.02343593


--------------------------------------------------------------------------------------------------------




--------------------------------------- Iteration      1(   8)  ---------------------------------------


    POTLOK:  cpu time    0.0580: real time    0.0653
    SETDIJ:  cpu time    0.1899: real time    0.1899
     EDDAV:  cpu time   12.4404: real time   12.4618
 BZINTS: Fermi energy:    3.461061;  378.000000 electrons
         Band energy:-0.546552E+04;  BLOECHL correction:   -0.000000
       DOS:  cpu time    0.0506: real time    0.0506
    CHARGE:  cpu time    0.2175: real time    0.2177
    MIXING:  cpu time    0.0010: real time    0.0010
    --------------------------------------------
      LOOP:  cpu time   12.9574: real time   12.9863

 eigenvalue-minimisations  : 20968
 total energy-change (2. order) :-0.1550483E+01  (-0.5155354E+00)
 number of electron     378.0000029 magnetization       1.8210741
 augmentation part       59.0942982 magnetization       1.1386300

 Broyden mixing:
  rms(total) = 0.84485E+00    rms(broyden)= 0.84451E+00
  rms(prec ) = 0.95637E+00
  weight for this iteration     100.00

 eigenvalues of (default mixing * dielectric matrix)
  average eigenvalue GAMMA=   1.0841
  1.5120  1.1005  0.6399

 Free energy of the ion-electron system (eV)
  ---------------------------------------------------
  alpha Z        PSCENC =       554.19365617
  Ewald energy   TEWEN  =    -13641.80286277
  -Hartree energ DENC   =     -4532.06018163
  -exchange      EXHF   =         0.00000000
  -V(xc)+E(xc)   XCENC  =      1464.14741664
  PAW double counting   =     24853.27119957   -25782.39192166
  entropy T*S    EENTRO =         0.00000000
  eigenvalues    EBANDS =     -5465.52276616
  atomic energy  EATOM  =     22066.59154079
  Solvation  Ediel_sol  =         0.00000000
  ---------------------------------------------------
  free energy    TOTEN  =      -483.57391906 eV

  energy without entropy =     -483.57391906  energy(sigma->0) =     -483.57391906


--------------------------------------------------------------------------------------------------------




--------------------------------------- Iteration      1(   9)  ---------------------------------------


    POTLOK:  cpu time    0.0543: real time    0.0811
    SETDIJ:  cpu time    0.1824: real time    0.1823
     EDDAV:  cpu time   12.5589: real time   12.5994
 BZINTS: Fermi energy:    3.720276;  378.000000 electrons
         Band energy:-0.545475E+04;  BLOECHL correction:   -0.000000
       DOS:  cpu time    0.0543: real time    0.0543
    CHARGE:  cpu time    0.2138: real time    0.2137
    MIXING:  cpu time    0.0010: real time    0.0010
    --------------------------------------------
      LOOP:  cpu time   13.0646: real time   13.1319

 eigenvalue-minimisations  : 21264
 total energy-change (2. order) :-0.9278113E+00  (-0.1493065E+00)
 number of electron     378.0000028 magnetization      -0.4494307
 augmentation part       58.9813926 magnetization      -0.7198599

 Broyden mixing:
  rms(total) = 0.25914E+00    rms(broyden)= 0.25890E+00
  rms(prec ) = 0.31650E+00
  weight for this iteration     100.00

 eigenvalues of (default mixing * dielectric matrix)
  average eigenvalue GAMMA=   1.1277
  2.0346  1.0294  0.8176  0.6294

 Free energy of the ion-electron system (eV)
  ---------------------------------------------------
  alpha Z        PSCENC =       554.19365617
  Ewald energy   TEWEN  =    -13641.80286277
  -Hartree energ DENC   =     -4546.19312610
  -exchange      EXHF   =         0.00000000
  -V(xc)+E(xc)   XCENC  =      1464.96648223
  PAW double counting   =     27364.11483899   -28291.61949451
  entropy T*S    EENTRO =         0.00000000
  eigenvalues    EBANDS =     -5454.75276517
  atomic energy  EATOM  =     22066.59154079
  Solvation  Ediel_sol  =         0.00000000
  ---------------------------------------------------
  free energy    TOTEN  =      -484.50173038 eV

  energy without entropy =     -484.50173038  energy(sigma->0) =     -484.50173038


--------------------------------------------------------------------------------------------------------




--------------------------------------- Iteration      1(  10)  ---------------------------------------


    POTLOK:  cpu time    0.0511: real time    0.0520
    SETDIJ:  cpu time    0.1797: real time    0.1797
     EDDAV:  cpu time   14.0236: real time   14.0465
 BZINTS: Fermi energy:    3.902053;  378.000000 electrons
         Band energy:-0.544341E+04;  BLOECHL correction:   -0.000000
       DOS:  cpu time    0.0544: real time    0.0544
    CHARGE:  cpu time    0.2186: real time    0.2189
    MIXING:  cpu time    0.0011: real time    0.0011
    --------------------------------------------
      LOOP:  cpu time   14.5284: real time   14.5525

 eigenvalue-minimisations  : 24280
 total energy-change (2. order) :-0.1139093E+00  (-0.8086660E-01)
 number of electron     378.0000028 magnetization      -0.3947586
 augmentation part       58.8306362 magnetization      -0.4386732

 Broyden mixing:
  rms(total) = 0.13128E+00    rms(broyden)= 0.13082E+00
  rms(prec ) = 0.14734E+00
  weight for this iteration     100.00

 eigenvalues of (default mixing * dielectric matrix)
  average eigenvalue GAMMA=   1.1158
  2.2186  1.0279  1.0279  0.6656  0.6390

 Free energy of the ion-electron system (eV)
  ---------------------------------------------------
  alpha Z        PSCENC =       554.19365617
  Ewald energy   TEWEN  =    -13641.80286277
  -Hartree energ DENC   =     -4559.42021366
  -exchange      EXHF   =         0.00000000
  -V(xc)+E(xc)   XCENC  =      1466.12333899
  PAW double counting   =     28280.10151638   -29206.99134199
  entropy T*S    EENTRO =         0.00000000
  eigenvalues    EBANDS =     -5443.41127354
  atomic energy  EATOM  =     22066.59154079
  Solvation  Ediel_sol  =         0.00000000
  ---------------------------------------------------
  free energy    TOTEN  =      -484.61563964 eV

  energy without entropy =     -484.61563964  energy(sigma->0) =     -484.61563964


--------------------------------------------------------------------------------------------------------




--------------------------------------- Iteration      1(  11)  ---------------------------------------


    POTLOK:  cpu time    0.0530: real time    0.0597
    SETDIJ:  cpu time    0.1800: real time    0.1800
     EDDAV:  cpu time   13.9339: real time   13.9758
 BZINTS: Fermi energy:    3.900809;  378.000000 electrons
         Band energy:-0.544133E+04;  BLOECHL correction:   -0.000000
       DOS:  cpu time    0.0520: real time    0.0520
    CHARGE:  cpu time    0.2138: real time    0.2138
    MIXING:  cpu time    0.0011: real time    0.0011
    --------------------------------------------
      LOOP:  cpu time   14.4338: real time   14.4824

 eigenvalue-minimisations  : 23960
 total energy-change (2. order) :-0.2979480E-01  (-0.1372861E-01)
 number of electron     378.0000028 magnetization      -0.0923331
 augmentation part       58.8336841 magnetization      -0.0982661

 Broyden mixing:
  rms(total) = 0.76894E-01    rms(broyden)= 0.76730E-01
  rms(prec ) = 0.88102E-01
  weight for this iteration     100.00

 eigenvalues of (default mixing * dielectric matrix)
  average eigenvalue GAMMA=   1.1139
  2.2167  1.3700  0.9168  0.9168  0.6557  0.6071

 Free energy of the ion-electron system (eV)
  ---------------------------------------------------
  alpha Z        PSCENC =       554.19365617
  Ewald energy   TEWEN  =    -13641.80286277
  -Hartree energ DENC   =     -4562.10489973
  -exchange      EXHF   =         0.00000000
  -V(xc)+E(xc)   XCENC  =      1466.39266642
  PAW double counting   =     28348.41880373   -29275.00058903
  entropy T*S    EENTRO =         0.00000000
  eigenvalues    EBANDS =     -5441.33375002
  atomic energy  EATOM  =     22066.59154079
  Solvation  Ediel_sol  =         0.00000000
  ---------------------------------------------------
  free energy    TOTEN  =      -484.64543444 eV

  energy without entropy =     -484.64543444  energy(sigma->0) =     -484.64543444


--------------------------------------------------------------------------------------------------------




--------------------------------------- Iteration      1(  12)  ---------------------------------------


    POTLOK:  cpu time    0.0550: real time    0.0953
    SETDIJ:  cpu time    0.1792: real time    0.1792
     EDDAV:  cpu time   12.8025: real time   12.8252
 BZINTS: Fermi energy:    3.917811;  378.000000 electrons
         Band energy:-0.543934E+04;  BLOECHL correction:   -0.000000
       DOS:  cpu time    0.0521: real time    0.0521
    CHARGE:  cpu time    0.2172: real time    0.2174
    MIXING:  cpu time    0.0011: real time    0.0011
    --------------------------------------------
      LOOP:  cpu time   13.3073: real time   13.3703

 eigenvalue-minimisations  : 21560
 total energy-change (2. order) :-0.5876790E-02  (-0.1242722E-02)
 number of electron     378.0000028 magnetization       0.0478247
 augmentation part       58.8376359 magnetization       0.0504896

 Broyden mixing:
  rms(total) = 0.36475E-01    rms(broyden)= 0.36448E-01
  rms(prec ) = 0.42649E-01
  weight for this iteration     100.00

 eigenvalues of (default mixing * dielectric matrix)
  average eigenvalue GAMMA=   1.1905
  2.1698  2.1698  0.9495  0.9495  0.8094  0.6743  0.6111

 Free energy of the ion-electron system (eV)
  ---------------------------------------------------
  alpha Z        PSCENC =       554.19365617
  Ewald energy   TEWEN  =    -13641.80286277
  -Hartree energ DENC   =     -4564.66159998
  -exchange      EXHF   =         0.00000000
  -V(xc)+E(xc)   XCENC  =      1466.63777974
  PAW double counting   =     28311.25971009   -29237.52967768
  entropy T*S    EENTRO =         0.00000000
  eigenvalues    EBANDS =     -5439.33985759
[...]
      9.37240      4.95598      4.94111         0.003857      0.001095     -0.004390
      4.73073      9.48600      4.83952        -0.000648     -0.004884      0.000870
      4.54229      7.28643      9.47072        -0.002859      0.006173     -0.006485
      4.81204      2.39426      0.07362        -0.005685     -0.000127      0.000665
      4.96949      6.84719      4.33318         0.000225     -0.014251      0.002024
      4.86258      2.25687      4.93306        -0.000179     -0.001938     -0.005806
      0.04727      2.56721      0.03613         0.002412     -0.001752     -0.002595
      9.45682      7.18489      9.57439         0.003118      0.003700      0.001843
      5.24174      4.63468      5.11145         0.007668     -0.010800      0.012051
      9.35623      4.93850      2.38822        -0.005110      0.001284      0.001109
      0.17962      5.10407      7.42315         0.000436     -0.003228     -0.004272
      2.26718      0.03883      5.02969        -0.004225     -0.004230      0.018627
      7.09851      0.32508      4.73025         0.004302      0.006857      0.003426
      2.36312      2.08357      1.80271         0.001724     -0.009873     -0.008605
      7.42449      2.00375      7.23292         0.001078     -0.007609      0.003613
      6.97482      2.35894      2.54298        -0.003474      0.005432      0.009419
      2.88625      1.99401      6.63636        -0.000830      0.002919     -0.001625
      2.80673      6.92537      2.27207         0.001349     -0.004465     -0.009656
      6.25443      6.53237      7.96360         0.001303     -0.004455      0.001846
      7.55025      7.21616      2.25578        -0.002148      0.008385      0.008182
      2.52030      7.15252      7.32421         0.012166     -0.002864     -0.011837
      2.26862      9.30776      2.59486         0.011056     -0.005932      0.006587
      7.17949      9.12697      7.06347        -0.004024     -0.004803     -0.002226
      4.74267      2.43390      2.46705         0.001790     -0.004156      0.001438
      4.98917      2.57832      7.33670        -0.003359     -0.004956     -0.003149
      5.14576      7.18262      2.06007        -0.000713      0.002759     -0.001456
      5.01255      7.48282      6.60774         0.002299      0.002970     -0.000266
      2.62210      7.51146      4.74373        -0.002982     -0.000171     -0.013845
      7.08185      7.55976      4.67104         0.005052      0.004780     -0.004290
      2.29953      2.04932      4.15435        -0.002108     -0.005757     -0.005897
      7.13819      2.79511      4.74234         0.006765      0.009973     -0.000900
      2.75510      4.39324      7.55931         0.000189     -0.001783     -0.006145
      6.84961      4.61109      2.26659        -0.005427     -0.001545     -0.002560
      2.45308      2.40830      9.14477        -0.005200     -0.001052     -0.003166
      7.27624      2.41912      0.02122         0.001071      0.006480     -0.003927
      9.41510      2.54920      2.29222        -0.004267      0.000873      0.002822
      0.26626      2.64990      7.39374        -0.004169      0.001106     -0.006869
      7.18122      7.49250      9.60010         0.012862     -0.010781      0.005732
      2.23551      7.32116      0.07348        -0.009347     -0.011762     -0.008655
      0.21601      7.65249      7.27237         0.005590     -0.001968     -0.003277
      0.32097      7.32608      2.32110        -0.002950      0.006273      0.008248
      7.18725      9.57631      2.22865         0.003101      0.002898     -0.003305
      2.30396      9.56356      7.59257         0.011409     -0.002679      0.010775
      2.22858      4.54110      2.41435        -0.000891     -0.000307     -0.005982
      7.31071      4.49110      7.04000         0.002062     -0.001584      0.002303
      9.51122      0.13950      2.49984         0.006261     -0.001121     -0.006217
      9.52387      0.30885      7.09119         0.001201     -0.001843      0.011535
      4.65002      4.87490      2.40365        -0.002515     -0.003727      0.013533
      4.92893      4.84712      7.25244        -0.005668      0.000271      0.010197
      1.78399      3.66978      5.63172         0.000439      0.001204     -0.006375
      7.16665      5.18507      4.53800         0.002172      0.005641      0.006784
      2.46570      0.03300      0.18497        -0.004002     -0.010597      0.008900
      6.97120      0.14366      9.48437         0.003748     -0.003282     -0.004959
      3.71795      3.99904      4.10967        -0.002410      0.004022      0.002133
      3.25747      5.54817      5.58850        -0.005723     -0.001986     -0.003202
      1.54490      5.63121      4.05751         0.001540      0.005383     -0.004392
      7.86596      6.67164      6.60794        -0.001997     -0.003054      0.001486
      9.54903      0.07750     -0.01542         0.000402      0.018118      0.000855
      0.03356      7.41800      4.84030         0.015851     -0.000777     -0.014332
      9.50896      2.52235      4.77928         0.007047      0.010871      0.005072
      4.71920      0.06004      7.28240        -0.002397     -0.001180     -0.002172
      4.75199      9.57783      2.39299        -0.013365     -0.001748     -0.009108
      2.29898      4.83244      0.06592        -0.000919     -0.017669      0.006752
      7.15160      4.88575      9.59099         0.007453      0.005443     -0.009713
      6.11787      6.08650      5.99631        -0.003580      0.001590      0.003898
      3.44016      5.87776      3.68903         0.000256     -0.001752     -0.002244
      0.93111      8.72819      8.75490         0.012375     -0.016866     -0.018599
      8.57799      8.67549      0.96962        -0.018515     -0.015724      0.017509
      8.55259      1.10708      8.65154        -0.014600      0.012086     -0.010271
      0.92767      1.01636      1.03397         0.009865      0.011928      0.010625
      3.69190      3.66240      6.05827        -0.005151      0.004324      0.013491
      5.82371      3.63061      3.58041        -0.002270      0.005458      0.003297
      3.68305      0.90678      3.32309        -0.002775      0.004958      0.007536
      5.79056      0.91868      6.30091         0.009232      0.002574     -0.010050
      5.69241      1.00456      1.40160         0.008981      0.008103     -0.008143
      3.79806      1.09104      8.25672        -0.006262      0.013459      0.006102
      3.80190      8.55222      1.41650         0.005009     -0.004489     -0.003958
      5.64665      8.55823      8.24580         0.005802     -0.010523      0.005736
      1.02924      8.38237      3.90127        -0.002097      0.006187     -0.001327
      8.62085      8.37155      5.77883        -0.014773      0.008671      0.018487
      1.04909      1.58981      5.72886         0.003578      0.002048      0.001443
      8.50925      1.57497      3.82713        -0.013803     -0.004609     -0.007386
      1.26710      3.93699      8.68832        -0.006905     -0.006729     -0.011028
      8.14879      3.90652      0.98040         0.009695     -0.004318      0.010715
      3.26617      3.72611      0.93313         0.000578     -0.005488     -0.005286
      6.17582      3.86229      8.65580        -0.010470      0.001265      0.001928
      0.85506      3.54099      3.82802        -0.001646      0.004566     -0.010577
      8.63016      3.42718      5.89472        -0.005004      0.006334      0.000198
      6.24007      5.92607      0.85201        -0.010542      0.011040      0.005932
      3.21622      5.88178      8.77191         0.003225      0.011638     -0.009683
      0.97697      6.42075      5.87637         0.007232     -0.000820      0.010243
      8.71598      6.44570      3.76259        -0.005535      0.001311     -0.005295
      5.81665      8.62153      3.33581         0.016664     -0.012423      0.007387
      3.61403      8.77800      6.36042        -0.003850     -0.003060     -0.004218
      1.35619      5.80702      1.09185        -0.005724      0.007963      0.003890
      8.10197      5.86437      8.56055         0.006536      0.005431     -0.001973
 -----------------------------------------------------------------------------------
    total drift:                               -0.002260      0.007682      0.016096


--------------------------------------------------------------------------------------------------------



  FREE ENERGIE OF THE ION-ELECTRON SYSTEM (eV)
  ---------------------------------------------------
  free  energy   TOTEN  =      -484.65903960 eV

  energy  without entropy=     -484.65903960  energy(sigma->0) =     -484.65903960
 
 d Force = 0.5306664E-03[ 0.507E-04, 0.101E-02]  d Energy = 0.5312366E-03-0.570E-06
 d Force =-0.2406045E+01[-0.241E+01,-0.240E+01]  d Ewald  =-0.3219627E+01 0.814E+00


--------------------------------------------------------------------------------------------------------


    POTLOK:  cpu time    0.2330: real time    0.2330


--------------------------------------------------------------------------------------------------------


 Conjugate gradient step on ions:
 trial-energy change:   -0.000531  1 .order   -0.000523   -0.000988   -0.000057
  (g-gl).g = 0.108E-02      g.g   = 0.104E-02  gl.gl    = 0.339E-02
 g(Force)  = 0.947E-03   g(Stress)= 0.941E-04 ortho     =-0.644E-04
 gamma     =   0.31886
 trial     =   0.96807
 opt step  =   1.02771  (harmonic =   1.02771) maximal distance =0.00160154
 next E    =  -484.659033   (d E  =  -0.00052)


--------------------------------------------------------------------------------------------------------


  
 reached required accuracy - stopping structural energy minimisation
     LOOP+:  cpu time   54.6554: real time   55.1784
    4ORBIT:  cpu time    0.0000: real time    0.0000
 


 total charge     
 
# of ion       s       p       d       tot
------------------------------------------
    1        2.040   0.097   0.000   2.138
    2        2.049   0.115   0.000   2.164
    3        2.050   0.118   0.000   2.168
    4        2.048   0.114   0.000   2.163
    5        2.045   0.106   0.000   2.151
    6        2.038   0.091   0.000   2.129
    7        2.033   0.076   0.000   2.109
    8        2.028   0.069   0.000   2.098
    9        2.043   0.092   0.000   2.135
   10        2.035   0.081   0.000   2.116
   11        2.036   0.086   0.000   2.122
   12        2.035   0.084   0.000   2.119
   13        2.058   0.127   0.000   2.185
   14        2.029   0.071   0.000   2.100
   15        2.031   0.072   0.000   2.103
   16        2.036   0.083   0.000   2.119
   17        2.028   0.067   0.000   2.094
   18        2.033   0.075   0.000   2.107
   19        2.025   0.063   0.000   2.088
   20        2.035   0.081   0.000   2.116
   21        2.042   0.093   0.000   2.135
   22        2.043   0.093   0.000   2.136
   23        2.043   0.098   0.000   2.141
   24        2.027   0.065   0.000   2.092
   25        2.029   0.066   0.000   2.095
   26        2.034   0.082   0.000   2.116
   27        2.031   0.076   0.000   2.107
   28        2.041   0.095   0.000   2.136
   29        2.033   0.080   0.000   2.112
   30        2.035   0.086   0.000   2.121
   31        2.053   0.114   0.000   2.167
   32        2.036   0.084   0.000   2.120
   33        2.033   0.081   0.000   2.113
   34        2.037   0.088   0.000   2.125
   35        2.044   0.098   0.000   2.143
   36        2.056   0.120   0.000   2.176
   37        2.048   0.104   0.000   2.152
   38        2.032   0.079   0.000   2.112
   39        2.034   0.083   0.000   2.117
   40        2.029   0.074   0.000   2.104
   41        2.030   0.075   0.000   2.105
   42        2.035   0.083   0.000   2.118
   43        2.036   0.085   0.000   2.121
   44        2.043   0.096   0.000   2.139
   45        2.030   0.076   0.000   2.106
   46        2.038   0.089   0.000   2.127
   47        2.043   0.096   0.000   2.139
   48        2.039   0.095   0.000   2.134
   49        2.032   0.079   0.000   2.112
   50        2.034   0.082   0.000   2.116
   51        2.033   0.081   0.000   2.114
   52        2.038   0.088   0.000   2.126
   53        2.040   0.090   0.000   2.130
   54        2.045   0.101   0.000   2.146
   55        2.038   0.087   0.000   2.125
   56        2.037   0.088   0.000   2.125
   57        2.033   0.081   0.000   2.114
   58        2.052   0.117   0.000   2.170
   59        2.048   0.107   0.000   2.155
   60        2.044   0.099   0.000   2.143
   61        2.044   0.097   0.000   2.141
   62        0.925   1.424   0.000   2.350
   63        0.927   1.442   0.000   2.369
   64        0.928   1.442   0.000   2.370
   65        0.926   1.428   0.000   2.354
   66        0.925   1.415   0.000   2.340
   67        0.928   1.434   0.000   2.362
   68        0.926   1.427   0.000   2.353
   69        1.217   2.447   0.000   3.664
   70        1.217   2.468   0.000   3.685
   71        1.222   2.546   0.000   3.768
   72        1.220   2.527   0.000   3.747
   73        1.224   2.530   0.000   3.754
   74        1.225   2.534   0.000   3.759
   75        1.214   2.467   0.000   3.681
   76        1.217   2.449   0.000   3.666
   77        1.225   2.516   0.000   3.741
   78        1.225   2.517   0.000   3.742
   79        1.222   2.534   0.000   3.756
   80        1.224   2.542   0.000   3.767
   81        1.221   2.536   0.000   3.757
   82        1.221   2.537   0.000   3.757
   83        1.226   2.557   0.000   3.783
   84        1.225   2.552   0.000   3.777
   85        1.223   2.531   0.000   3.754
   86        1.225   2.545   0.000   3.770
   87        1.225   2.559   0.000   3.785
   88        1.223   2.541   0.000   3.764
   89        1.224   2.514   0.000   3.738
   90        1.224   2.516   0.000   3.740
   91        1.223   2.511   0.000   3.734
   92        1.230   2.526   0.000   3.756
   93        1.225   2.512   0.000   3.737
   94        1.228   2.527   0.000   3.755
   95        1.225   2.496   0.000   3.721
   96        1.225   2.528   0.000   3.753
   97        1.222   2.509   0.000   3.732
   98        1.226   2.525   0.000   3.751
   99        1.223   2.527   0.000   3.750
  100        1.221   2.527   0.000   3.748
--------------------------------------------------
tot        169.947  96.092   0.000 266.040
 


 magnetization (x)
 
# of ion       s       p       d       tot
------------------------------------------
    1        0.000   0.000   0.000   0.000
    2        0.000   0.000   0.000   0.000
    3       -0.000  -0.000   0.000  -0.000
    4       -0.000  -0.000   0.000  -0.000
    5        0.000   0.000   0.000   0.000
    6        0.000   0.000   0.000   0.000
    7        0.000   0.000   0.000   0.000
    8       -0.000  -0.000   0.000  -0.000
    9       -0.000  -0.000   0.000  -0.000
   10        0.000   0.000   0.000   0.000
   11        0.000   0.000   0.000   0.000
   12        0.000   0.000   0.000   0.000
   13       -0.000  -0.000   0.000  -0.000
   14        0.000   0.000   0.000   0.000
   15       -0.000  -0.000   0.000  -0.000
   16       -0.000  -0.000   0.000  -0.000
   17        0.000  -0.000   0.000   0.000
   18        0.000  -0.000   0.000   0.000
   19        0.000   0.000   0.000   0.000
   20        0.000   0.000   0.000   0.000
   21        0.000   0.000   0.000   0.000
   22       -0.000   0.000   0.000   0.000
   23        0.000   0.000   0.000   0.000
   24       -0.000   0.000   0.000  -0.000
   25       -0.000   0.000   0.000  -0.000
   26        0.000   0.000   0.000   0.000
   27        0.000  -0.000   0.000  -0.000
   28       -0.000  -0.000   0.000  -0.000
   29       -0.000  -0.000   0.000  -0.000
   30        0.000   0.000   0.000   0.000
   31        0.000   0.000   0.000   0.000
   32        0.000   0.000   0.000   0.000
   33        0.000   0.000   0.000   0.000
   34       -0.000   0.000   0.000  -0.000
   35       -0.000  -0.000   0.000  -0.000
   36       -0.000  -0.000   0.000  -0.000
   37        0.000   0.000   0.000   0.000
   38        0.000   0.000   0.000   0.000
   39       -0.000  -0.000   0.000  -0.000
   40       -0.000  -0.000   0.000  -0.000
   41        0.000  -0.000   0.000  -0.000
   42        0.000  -0.000   0.000  -0.000
   43       -0.000   0.000   0.000  -0.000
   44       -0.000   0.000   0.000   0.000
   45        0.000   0.000   0.000   0.000
   46       -0.000   0.000   0.000   0.000
   47       -0.000   0.000   0.000   0.000
   48       -0.000  -0.000   0.000  -0.000
   49       -0.000  -0.000   0.000  -0.000
   50       -0.000  -0.000   0.000  -0.000
   51       -0.000  -0.000   0.000  -0.000
   52       -0.000  -0.000   0.000  -0.000
   53        0.000   0.000   0.000   0.000
   54        0.000   0.000   0.000   0.000
   55        0.000   0.000   0.000   0.000
   56       -0.000  -0.000   0.000  -0.000
   57        0.000   0.000   0.000   0.000
   58        0.000   0.000   0.000   0.000
   59       -0.000  -0.000   0.000  -0.000
   60       -0.000  -0.000   0.000  -0.000
   61       -0.000  -0.000   0.000  -0.000
   62       -0.000  -0.000   0.000  -0.000
   63        0.000   0.000   0.000   0.000
   64        0.000   0.000   0.000   0.000
   65       -0.000  -0.000   0.000  -0.000
   66        0.000  -0.000   0.000  -0.000
   67        0.000  -0.000   0.000   0.000
   68       -0.000  -0.000   0.000  -0.000
   69        0.000  -0.000   0.000   0.000
   70        0.000  -0.000   0.000   0.000
   71       -0.000  -0.000   0.000  -0.000
   72       -0.000   0.000   0.000  -0.000
   73       -0.000   0.000   0.000   0.000
   74       -0.000   0.000   0.000   0.000
   75        0.000  -0.000   0.000  -0.000
   76       -0.000   0.000   0.000   0.000
   77        0.000  -0.000   0.000  -0.000
   78        0.000  -0.000   0.000   0.000
   79        0.000   0.000   0.000   0.000
   80       -0.000   0.000   0.000   0.000
   81        0.000   0.000   0.000   0.000
   82       -0.000   0.000   0.000   0.000
   83       -0.000   0.000   0.000   0.000
   84       -0.000  -0.000   0.000  -0.000
   85        0.000  -0.000   0.000  -0.000
   86       -0.000   0.000   0.000   0.000
   87       -0.000   0.000   0.000   0.000
   88       -0.000  -0.000   0.000  -0.000
   89        0.000   0.000   0.000   0.000
   90       -0.000   0.000   0.000   0.000
   91        0.000   0.000   0.000   0.000
   92       -0.000   0.000   0.000   0.000
   93       -0.000   0.000   0.000   0.000
   94        0.000   0.000   0.000   0.000
   95        0.000  -0.000   0.000  -0.000
   96        0.000  -0.000   0.000   0.000
   97        0.000  -0.000   0.000  -0.000
   98        0.000  -0.000   0.000  -0.000
   99        0.000  -0.000   0.000  -0.000
  100       -0.000   0.000   0.000   0.000
--------------------------------------------------
tot         -0.000   0.000   0.000   0.000
 
 BZINTS: Fermi energy:    3.914022;  378.000000 electrons
         Band energy:-0.544661E+04;  BLOECHL correction:   -0.000000

 total amount of memory used by VASP MPI-rank0    71164. kBytes
=======================================================================

   base      :      30000. kBytes
   nonlr-proj:       9774. kBytes
   fftplans  :       2053. kBytes
   grid      :       5776. kBytes
   one-center:         43. kBytes
   wavefun   :      23518. kBytes
 
  
  
 General timing and accounting informations for this job:
 ========================================================
  
                  Total CPU time used (sec):      560.238
                            User time (sec):      546.727
                          System time (sec):       13.511
                         Elapsed time (sec):      563.346
  
                   Maximum memory used (kb):      212780.
                   Average memory used (kb):           0.
  
                          Minor page faults:        71509
                          Major page faults:            0
                 Voluntary context switches:         1045
