 running on   48 total cores
 distrk:  each k-point on   48 cores,    1 groups
 distr:  one band on    6 cores,    8 groups
 using from now: INCAR     
 vasp.6.1.2 22Jul20 (build Mar 31 2021 18:09:49) complex                        
  
 POSCAR found type information on POSCAR LiP 
 POSCAR found :  2 types and      64 ions
 scaLAPACK will be used
 LDA part: xc-table for Pade appr. of Perdew
 -----------------------------------------------------------------------------
|                                                                             |
|           W    W    AA    RRRRR   N    N  II  N    N   GGGG   !!!           |
|           W    W   A  A   R    R  NN   N  II  NN   N  G    G  !!!           |
|           W    W  A    A  R    R  N N  N  II  N N  N  G       !!!           |
|           W WW W  AAAAAA  RRRRR   N  N N  II  N  N N  G  GGG   !            |
|           WW  WW  A    A  R   R   N   NN  II  N   NN  G    G                |
|           W    W  A    A  R    R  N    N  II  N    N   GGGG   !!!           |
|                                                                             |
|     The determination of the symmetry of your systems shows a strong        |
|     dependence on the tolerance parameter SYMPREC. This is often the        |
|     result of "noise" in the structural parameters (lattice vectors         |
|     and/or ionic positions). Set NWRITE=3 for more details.                 |
|                                                                             |
 -----------------------------------------------------------------------------

 generate k-points for:    3    3    3
 POSCAR, INCAR and KPOINTS ok, starting setup
 FFT: planning ...
 WAVECAR not read
 entering main loop
       N       E                     dE             d eps       ncg     rms          rms(c)
DAV:   1     0.157635947308E+04    0.15764E+04   -0.12014E+05  8440   0.128E+03
DAV:   2    -0.123591664464E+03   -0.17000E+04   -0.15919E+04  9920   0.246E+02
DAV:   3    -0.308012411300E+03   -0.18442E+03   -0.18152E+03 10544   0.839E+01
DAV:   4    -0.322187243017E+03   -0.14175E+02   -0.14107E+02 13672   0.203E+01
DAV:   5    -0.325226997776E+03   -0.30398E+01   -0.30375E+01 14856   0.567E+00    0.423E+01
DAV:   6    -0.325046205592E+03    0.18079E+00   -0.11468E+01 10096   0.615E+00    0.243E+01
DAV:   7    -0.327213850587E+03   -0.21676E+01   -0.54743E+00 10080   0.415E+00    0.138E+01
DAV:   8    -0.328334666727E+03   -0.11208E+01   -0.20178E+00  9456   0.287E+00    0.284E+00
DAV:   9    -0.328405489357E+03   -0.70823E-01   -0.25929E-01 10744   0.111E+00    0.156E+00
DAV:  10    -0.328419853963E+03   -0.14365E-01   -0.65315E-02 10632   0.509E-01    0.605E-01
DAV:  11    -0.328426407101E+03   -0.65531E-02   -0.10070E-02 10056   0.255E-01    0.219E-01
DAV:  12    -0.328428745170E+03   -0.23381E-02   -0.28322E-03 10816   0.118E-01    0.116E-01
DAV:  13    -0.328429777693E+03   -0.10325E-02   -0.72785E-04 10432   0.575E-02    0.545E-02
DAV:  14    -0.328430259891E+03   -0.48220E-03   -0.40554E-04  9552   0.384E-02    0.317E-02
DAV:  15    -0.328430372220E+03   -0.11233E-03   -0.11383E-04  9352   0.207E-02    0.175E-02
DAV:  16    -0.328430401190E+03   -0.28970E-04   -0.26884E-05  7984   0.118E-02    0.829E-03
DAV:  17    -0.328430409001E+03   -0.78116E-05   -0.85241E-06  6512   0.713E-03
   1 F= -.32843041E+03 E0= -.32843041E+03  d E =0.000000E+00  mag=     0.0003
