   8   8   1   0
  0.1470485E+02  0.4235858E-09  0.4235858E-09  0.7570718E-09  0.5000000E-15
  1.000000000000000E-004
  CAR 
 unknown system                          
     11.80392422    -45.50900125  301      2.68161691      1.00000000
    -45.509  0.0000E+00  0.0000E+00  0.0000E+00  0.0000E+00
    -45.318  0.0000E+00  0.0000E+00  0.0000E+00  0.0000E+00
    -45.127  0.0000E+00  0.0000E+00  0.0000E+00  0.0000E+00
    -44.936  0.0000E+00  0.0000E+00  0.0000E+00  0.0000E+00
    -44.745  0.0000E+00  0.0000E+00  0.0000E+00  0.0000E+00
    -44.554  0.0000E+00  0.0000E+00  0.0000E+00  0.0000E+00
    -44.363  0.0000E+00  0.0000E+00  0.0000E+00  0.0000E+00
    -44.172  0.0000E+00  0.0000E+00  0.0000E+00  0.0000E+00
    -43.981  0.0000E+00  0.0000E+00  0.0000E+00  0.0000E+00
    -43.790  0.0000E+00  0.0000E+00  0.0000E+00  0.0000E+00
    -43.599  0.0000E+00  0.0000E+00  0.0000E+00  0.0000E+00
    -43.408  0.0000E+00  0.0000E+00  0.0000E+00  0.0000E+00
    -43.216  0.0000E+00  0.0000E+00  0.0000E+00  0.0000E+00
    -43.025  0.0000E+00  0.0000E+00  0.0000E+00  0.0000E+00
    -42.834  0.0000E+00  0.0000E+00  0.4040E-01  0.4040E-01
    -42.643  0.0000E+00  0.0000E+00  0.4040E-01  0.4040E-01
    -42.452  0.0000E+00  0.0000E+00  0.6061E-01  0.6061E-01
    -42.261  0.0000E+00  0.0000E+00  0.6061E-01  0.6061E-01
    -42.070  0.0000E+00  0.0000E+00  0.6061E-01  0.6061E-01
    -41.879  0.0000E+00  0.0000E+00  0.6061E-01  0.6061E-01
    -41.688  0.0000E+00  0.0000E+00  0.6061E-01  0.6061E-01
    -41.497  0.0000E+00  0.0000E+00  0.6061E-01  0.6061E-01
    -41.306  0.0000E+00  0.0000E+00  0.6061E-01  0.6061E-01
    -41.115  0.0000E+00  0.0000E+00  0.6061E-01  0.6061E-01
    -40.924  0.0000E+00  0.0000E+00  0.6061E-01  0.6061E-01
    -40.733  0.0000E+00  0.0000E+00  0.6061E-01  0.6061E-01
    -40.542  0.0000E+00  0.0000E+00  0.6061E-01  0.6061E-01
    -40.351  0.0000E+00  0.0000E+00  0.6061E-01  0.6061E-01
    -40.160  0.0000E+00  0.0000E+00  0.6061E-01  0.6061E-01
    -39.969  0.0000E+00  0.0000E+00  0.6061E-01  0.6061E-01
    -39.778  0.0000E+00  0.0000E+00  0.6061E-01  0.6061E-01
    -39.587  0.0000E+00  0.0000E+00  0.6061E-01  0.6061E-01
    -39.396  0.0000E+00  0.0000E+00  0.6061E-01  0.6061E-01
    -39.205  0.0000E+00  0.0000E+00  0.6061E-01  0.6061E-01
    -39.014  0.0000E+00  0.0000E+00  0.6061E-01  0.6061E-01
    -38.822  0.0000E+00  0.0000E+00  0.6061E-01  0.6061E-01
    -38.631  0.0000E+00  0.0000E+00  0.6061E-01  0.6061E-01
    -38.440  0.0000E+00  0.0000E+00  0.6061E-01  0.6061E-01
    -38.249  0.0000E+00  0.0000E+00  0.6061E-01  0.6061E-01
    -38.058  0.0000E+00  0.0000E+00  0.6061E-01  0.6061E-01
    -37.867  0.0000E+00  0.0000E+00  0.6061E-01  0.6061E-01
    -37.676  0.0000E+00  0.0000E+00  0.6061E-01  0.6061E-01
    -37.485  0.0000E+00  0.0000E+00  0.6061E-01  0.6061E-01
    -37.294  0.0000E+00  0.0000E+00  0.6061E-01  0.6061E-01
    -37.103  0.0000E+00  0.0000E+00  0.6061E-01  0.6061E-01
    -36.912  0.0000E+00  0.0000E+00  0.6061E-01  0.6061E-01
    -36.721  0.0000E+00  0.0000E+00  0.6061E-01  0.6061E-01
    -36.530  0.0000E+00  0.0000E+00  0.6061E-01  0.6061E-01
    -36.339  0.0000E+00  0.0000E+00  0.6061E-01  0.6061E-01
    -36.148  0.0000E+00  0.0000E+00  0.6061E-01  0.6061E-01
    -35.957  0.0000E+00  0.0000E+00  0.6061E-01  0.6061E-01
    -35.766  0.0000E+00  0.0000E+00  0.6061E-01  0.6061E-01
    -35.575  0.0000E+00  0.0000E+00  0.6061E-01  0.6061E-01
    -35.384  0.0000E+00  0.0000E+00  0.6061E-01  0.6061E-01
    -35.193  0.0000E+00  0.0000E+00  0.6061E-01  0.6061E-01
    -35.002  0.0000E+00  0.0000E+00  0.6061E-01  0.6061E-01
    -34.811  0.0000E+00  0.0000E+00  0.6061E-01  0.6061E-01
    -34.620  0.0000E+00  0.0000E+00  0.6061E-01  0.6061E-01
    -34.429  0.0000E+00  0.0000E+00  0.6061E-01  0.6061E-01
    -34.237  0.0000E+00  0.0000E+00  0.6061E-01  0.6061E-01
    -34.046  0.0000E+00  0.0000E+00  0.6061E-01  0.6061E-01
    -33.855  0.0000E+00  0.0000E+00  0.6061E-01  0.6061E-01
    -33.664  0.0000E+00  0.0000E+00  0.6061E-01  0.6061E-01
    -33.473  0.0000E+00  0.0000E+00  0.6061E-01  0.6061E-01
    -33.282  0.0000E+00  0.0000E+00  0.6061E-01  0.6061E-01
    -33.091  0.0000E+00  0.0000E+00  0.6061E-01  0.6061E-01
    -32.900  0.0000E+00  0.0000E+00  0.6061E-01  0.6061E-01
    -32.709  0.0000E+00  0.0000E+00  0.6061E-01  0.6061E-01
    -32.518  0.0000E+00  0.0000E+00  0.6061E-01  0.6061E-01
    -32.327  0.0000E+00  0.0000E+00  0.6061E-01  0.6061E-01
    -32.136  0.0000E+00  0.0000E+00  0.6061E-01  0.6061E-01
    -31.945  0.0000E+00  0.0000E+00  0.6061E-01  0.6061E-01
    -31.754  0.0000E+00  0.0000E+00  0.6061E-01  0.6061E-01
    -31.563  0.0000E+00  0.0000E+00  0.6061E-01  0.6061E-01
    -31.372  0.0000E+00  0.0000E+00  0.6061E-01  0.6061E-01
    -31.181  0.0000E+00  0.0000E+00  0.6061E-01  0.6061E-01
    -30.990  0.0000E+00  0.0000E+00  0.6061E-01  0.6061E-01
    -30.799  0.0000E+00  0.0000E+00  0.6061E-01  0.6061E-01
    -30.608  0.0000E+00  0.0000E+00  0.6061E-01  0.6061E-01
    -30.417  0.0000E+00  0.0000E+00  0.6061E-01  0.6061E-01
    -30.226  0.0000E+00  0.0000E+00  0.6061E-01  0.6061E-01
    -30.035  0.0000E+00  0.0000E+00  0.6061E-01  0.6061E-01
    -29.843  0.0000E+00  0.0000E+00  0.6061E-01  0.6061E-01
    -29.652  0.0000E+00  0.0000E+00  0.6061E-01  0.6061E-01
    -29.461  0.0000E+00  0.0000E+00  0.6061E-01  0.6061E-01
    -29.270  0.0000E+00  0.0000E+00  0.6061E-01  0.6061E-01
    -29.079  0.0000E+00  0.0000E+00  0.6061E-01  0.6061E-01
    -28.888  0.0000E+00  0.0000E+00  0.6061E-01  0.6061E-01
    -28.697  0.0000E+00  0.0000E+00  0.6061E-01  0.6061E-01
    -28.506  0.0000E+00  0.0000E+00  0.6061E-01  0.6061E-01
    -28.315  0.0000E+00  0.0000E+00  0.6061E-01  0.6061E-01
    -28.124  0.0000E+00  0.0000E+00  0.6061E-01  0.6061E-01
    -27.933  0.0000E+00  0.0000E+00  0.6061E-01  0.6061E-01
    -27.742  0.0000E+00  0.0000E+00  0.6061E-01  0.6061E-01
    -27.551  0.0000E+00  0.0000E+00  0.6061E-01  0.6061E-01
    -27.360  0.0000E+00  0.0000E+00  0.6061E-01  0.6061E-01
    -27.169  0.0000E+00  0.0000E+00  0.6061E-01  0.6061E-01
    -26.978  0.0000E+00  0.0000E+00  0.6061E-01  0.6061E-01
    -26.787  0.0000E+00  0.0000E+00  0.6061E-01  0.6061E-01
    -26.596  0.0000E+00  0.0000E+00  0.6061E-01  0.6061E-01
    -26.405  0.0000E+00  0.0000E+00  0.6061E-01  0.6061E-01
    -26.214  0.0000E+00  0.0000E+00  0.6061E-01  0.6061E-01
    -26.023  0.0000E+00  0.0000E+00  0.6061E-01  0.6061E-01
    -25.832  0.0000E+00  0.0000E+00  0.6061E-01  0.6061E-01
    -25.641  0.0000E+00  0.0000E+00  0.6061E-01  0.6061E-01
    -25.449  0.0000E+00  0.0000E+00  0.6061E-01  0.6061E-01
    -25.258  0.0000E+00  0.0000E+00  0.6061E-01  0.6061E-01
    -25.067  0.0000E+00  0.0000E+00  0.6061E-01  0.6061E-01
    -24.876  0.0000E+00  0.0000E+00  0.6061E-01  0.6061E-01
    -24.685  0.0000E+00  0.0000E+00  0.6061E-01  0.6061E-01
    -24.494  0.0000E+00  0.0000E+00  0.6061E-01  0.6061E-01
    -24.303  0.0000E+00  0.0000E+00  0.6061E-01  0.6061E-01
    -24.112  0.0000E+00  0.0000E+00  0.6061E-01  0.6061E-01
    -23.921  0.0000E+00  0.0000E+00  0.6061E-01  0.6061E-01
    -23.730  0.0000E+00  0.0000E+00  0.6061E-01  0.6061E-01
    -23.539  0.0000E+00  0.0000E+00  0.6061E-01  0.6061E-01
    -23.348  0.0000E+00  0.0000E+00  0.6061E-01  0.6061E-01
    -23.157  0.0000E+00  0.0000E+00  0.6061E-01  0.6061E-01
    -22.966  0.0000E+00  0.0000E+00  0.6061E-01  0.6061E-01
    -22.775  0.0000E+00  0.0000E+00  0.6061E-01  0.6061E-01
    -22.584  0.0000E+00  0.0000E+00  0.6061E-01  0.6061E-01
    -22.393  0.0000E+00  0.0000E+00  0.6061E-01  0.6061E-01
    -22.202  0.0000E+00  0.0000E+00  0.6061E-01  0.6061E-01
    -22.011  0.0000E+00  0.0000E+00  0.6061E-01  0.6061E-01
    -21.820  0.0000E+00  0.0000E+00  0.6061E-01  0.6061E-01
    -21.629  0.0000E+00  0.0000E+00  0.6061E-01  0.6061E-01
    -21.438  0.0000E+00  0.0000E+00  0.6061E-01  0.6061E-01
    -21.247  0.0000E+00  0.0000E+00  0.6061E-01  0.6061E-01
    -21.055  0.0000E+00  0.0000E+00  0.6061E-01  0.6061E-01
    -20.864  0.0000E+00  0.0000E+00  0.6061E-01  0.6061E-01
    -20.673  0.0000E+00  0.0000E+00  0.6061E-01  0.6061E-01
    -20.482  0.0000E+00  0.0000E+00  0.6061E-01  0.6061E-01
    -20.291  0.0000E+00  0.0000E+00  0.6061E-01  0.6061E-01
    -20.100  0.0000E+00  0.0000E+00  0.6061E-01  0.6061E-01
    -19.909  0.0000E+00  0.0000E+00  0.6061E-01  0.6061E-01
    -19.718  0.0000E+00  0.0000E+00  0.6061E-01  0.6061E-01
    -19.527  0.0000E+00  0.0000E+00  0.6061E-01  0.6061E-01
    -19.336  0.0000E+00  0.0000E+00  0.6061E-01  0.6061E-01
    -19.145  0.0000E+00  0.0000E+00  0.6061E-01  0.6061E-01
    -18.954  0.0000E+00  0.0000E+00  0.6061E-01  0.6061E-01
    -18.763  0.0000E+00  0.0000E+00  0.6061E-01  0.6061E-01
    -18.572  0.0000E+00  0.0000E+00  0.6061E-01  0.6061E-01
    -18.381  0.0000E+00  0.0000E+00  0.6061E-01  0.6061E-01
    -18.190  0.0000E+00  0.0000E+00  0.6061E-01  0.6061E-01
    -17.999  0.0000E+00  0.0000E+00  0.6061E-01  0.6061E-01
    -17.808  0.0000E+00  0.0000E+00  0.6061E-01  0.6061E-01
    -17.617  0.0000E+00  0.0000E+00  0.6061E-01  0.6061E-01
    -17.426  0.0000E+00  0.0000E+00  0.6061E-01  0.6061E-01
    -17.235  0.0000E+00  0.0000E+00  0.6061E-01  0.6061E-01
    -17.044  0.0000E+00  0.0000E+00  0.6061E-01  0.6061E-01
    -16.853  0.0000E+00  0.0000E+00  0.6061E-01  0.6061E-01
    -16.661  0.0000E+00  0.0000E+00  0.6061E-01  0.6061E-01
    -16.470  0.0000E+00  0.0000E+00  0.6061E-01  0.6061E-01
    -16.279  0.0000E+00  0.0000E+00  0.6061E-01  0.6061E-01
    -16.088  0.0000E+00  0.0000E+00  0.6061E-01  0.6061E-01
    -15.897  0.0000E+00  0.0000E+00  0.6061E-01  0.6061E-01
    -15.706  0.0000E+00  0.0000E+00  0.6061E-01  0.6061E-01
    -15.515  0.0000E+00  0.0000E+00  0.6061E-01  0.6061E-01
    -15.324  0.0000E+00  0.0000E+00  0.6061E-01  0.6061E-01
    -15.133  0.0000E+00  0.0000E+00  0.6061E-01  0.6061E-01
    -14.942  0.0000E+00  0.0000E+00  0.6061E-01  0.6061E-01
    -14.751  0.0000E+00  0.0000E+00  0.6061E-01  0.6061E-01
    -14.560  0.0000E+00  0.0000E+00  0.6061E-01  0.6061E-01
    -14.369  0.0000E+00  0.0000E+00  0.6061E-01  0.6061E-01
    -14.178  0.0000E+00  0.0000E+00  0.6061E-01  0.6061E-01
    -13.987  0.0000E+00  0.0000E+00  0.6061E-01  0.6061E-01
    -13.796  0.0000E+00  0.0000E+00  0.6061E-01  0.6061E-01
    -13.605  0.0000E+00  0.0000E+00  0.6061E-01  0.6061E-01
    -13.414  0.0000E+00  0.0000E+00  0.6061E-01  0.6061E-01
    -13.223  0.0000E+00  0.0000E+00  0.6061E-01  0.6061E-01
    -13.032  0.0000E+00  0.0000E+00  0.6061E-01  0.6061E-01
    -12.841  0.0000E+00  0.0000E+00  0.6061E-01  0.6061E-01
    -12.650  0.0000E+00  0.0000E+00  0.6061E-01  0.6061E-01
    -12.459  0.0000E+00  0.0000E+00  0.6061E-01  0.6061E-01
    -12.268  0.0000E+00  0.0000E+00  0.6061E-01  0.6061E-01
    -12.076  0.0000E+00  0.0000E+00  0.6061E-01  0.6061E-01
    -11.885  0.0000E+00  0.0000E+00  0.6061E-01  0.6061E-01
    -11.694  0.0000E+00  0.0000E+00  0.6061E-01  0.6061E-01
    -11.503  0.0000E+00  0.0000E+00  0.6061E-01  0.6061E-01
    -11.312  0.0000E+00  0.0000E+00  0.6061E-01  0.6061E-01
    -11.121  0.0000E+00  0.0000E+00  0.6061E-01  0.6061E-01
    -10.930  0.0000E+00  0.0000E+00  0.6061E-01  0.6061E-01
    -10.739  0.0000E+00  0.0000E+00  0.6061E-01  0.6061E-01
    -10.548  0.0000E+00  0.0000E+00  0.6061E-01  0.6061E-01
    -10.357  0.0000E+00  0.0000E+00  0.6061E-01  0.6061E-01
    -10.166  0.0000E+00  0.0000E+00  0.6061E-01  0.6061E-01
     -9.975  0.0000E+00  0.0000E+00  0.6061E-01  0.6061E-01
     -9.784  0.0000E+00  0.0000E+00  0.6061E-01  0.6061E-01
     -9.593  0.0000E+00  0.0000E+00  0.6061E-01  0.6061E-01
     -9.402  0.0000E+00  0.0000E+00  0.6061E-01  0.6061E-01
     -9.211  0.0000E+00  0.0000E+00  0.6061E-01  0.6061E-01
     -9.020  0.0000E+00  0.0000E+00  0.6061E-01  0.6061E-01
     -8.829  0.0000E+00  0.0000E+00  0.6061E-01  0.6061E-01
     -8.638  0.0000E+00  0.0000E+00  0.6061E-01  0.6061E-01
     -8.447  0.0000E+00  0.0000E+00  0.6061E-01  0.6061E-01
     -8.256  0.0000E+00  0.0000E+00  0.6061E-01  0.6061E-01
     -8.065  0.0000E+00  0.0000E+00  0.6061E-01  0.6061E-01
     -7.874  0.0000E+00  0.0000E+00  0.6061E-01  0.6061E-01
     -7.682  0.0000E+00  0.0000E+00  0.6061E-01  0.6061E-01
     -7.491  0.0000E+00  0.0000E+00  0.6061E-01  0.6061E-01
     -7.300  0.0000E+00  0.0000E+00  0.6061E-01  0.6061E-01
     -7.109  0.0000E+00  0.0000E+00  0.6061E-01  0.6061E-01
     -6.918  0.0000E+00  0.0000E+00  0.6061E-01  0.6061E-01
     -6.727  0.0000E+00  0.0000E+00  0.6061E-01  0.6061E-01
     -6.536  0.9341E-02  0.9341E-02  0.6138E-01  0.6138E-01
     -6.345  0.2260E-01  0.2260E-01  0.6420E-01  0.6420E-01
     -6.154  0.6170E-01  0.6170E-01  0.7123E-01  0.7123E-01
     -5.963  0.0000E+00  0.0000E+00  0.8081E-01  0.8081E-01
     -5.772  0.0000E+00  0.0000E+00  0.8081E-01  0.8081E-01
     -5.581  0.0000E+00  0.0000E+00  0.8081E-01  0.8081E-01
     -5.390  0.0000E+00  0.0000E+00  0.8081E-01  0.8081E-01
     -5.199  0.0000E+00  0.0000E+00  0.8081E-01  0.8081E-01
     -5.008  0.0000E+00  0.0000E+00  0.8081E-01  0.8081E-01
     -4.817  0.0000E+00  0.0000E+00  0.8081E-01  0.8081E-01
     -4.626  0.0000E+00  0.0000E+00  0.8081E-01  0.8081E-01
     -4.435  0.0000E+00  0.0000E+00  0.8081E-01  0.8081E-01
     -4.244  0.0000E+00  0.0000E+00  0.8081E-01  0.8081E-01
     -4.053  0.0000E+00  0.0000E+00  0.8081E-01  0.8081E-01
     -3.862  0.0000E+00  0.0000E+00  0.8081E-01  0.8081E-01
     -3.671  0.0000E+00  0.0000E+00  0.8081E-01  0.8081E-01
     -3.480  0.0000E+00  0.0000E+00  0.8081E-01  0.8081E-01
     -3.288  0.0000E+00  0.0000E+00  0.8081E-01  0.8081E-01
     -3.097  0.0000E+00  0.0000E+00  0.8081E-01  0.8081E-01
     -2.906  0.0000E+00  0.0000E+00  0.8081E-01  0.8081E-01
     -2.715  0.0000E+00  0.0000E+00  0.8081E-01  0.8081E-01
     -2.524  0.0000E+00  0.0000E+00  0.8081E-01  0.8081E-01
     -2.333  0.0000E+00  0.0000E+00  0.8081E-01  0.8081E-01
     -2.142  0.0000E+00  0.0000E+00  0.8081E-01  0.8081E-01
     -1.951  0.0000E+00  0.0000E+00  0.8081E-01  0.8081E-01
     -1.760  0.0000E+00  0.0000E+00  0.8081E-01  0.8081E-01
     -1.569  0.0000E+00  0.0000E+00  0.8081E-01  0.8081E-01
     -1.378  0.0000E+00  0.0000E+00  0.8081E-01  0.8081E-01
     -1.187  0.0000E+00  0.0000E+00  0.8081E-01  0.8081E-01
     -0.996  0.0000E+00  0.0000E+00  0.8081E-01  0.8081E-01
     -0.805  0.0000E+00  0.0000E+00  0.8081E-01  0.8081E-01
     -0.614  0.7101E-03  0.7100E-03  0.8083E-01  0.8083E-01
     -0.423  0.9514E-02  0.9513E-02  0.8155E-01  0.8155E-01
     -0.232  0.2492E-01  0.2491E-01  0.8471E-01  0.8471E-01
     -0.041  0.3133E-01  0.3133E-01  0.9035E-01  0.9035E-01
      0.150  0.1949E-01  0.1950E-01  0.9525E-01  0.9525E-01
      0.341  0.1659E-01  0.1659E-01  0.9818E-01  0.9818E-01
      0.532  0.1355E-01  0.1355E-01  0.1007E+00  0.1007E+00
      0.723  0.2017E-01  0.2018E-01  0.1040E+00  0.1040E+00
      0.914  0.3104E-01  0.3104E-01  0.1089E+00  0.1089E+00
      1.106  0.2209E-01  0.2209E-01  0.1138E+00  0.1138E+00
      1.297  0.4104E-01  0.4103E-01  0.1189E+00  0.1189E+00
      1.488  0.3268E-01  0.3268E-01  0.1269E+00  0.1269E+00
      1.679  0.2508E-01  0.2508E-01  0.1323E+00  0.1323E+00
      1.870  0.1583E-01  0.1583E-01  0.1362E+00  0.1362E+00
      2.061  0.1111E-01  0.1111E-01  0.1387E+00  0.1387E+00
      2.252  0.5921E-02  0.5921E-02  0.1403E+00  0.1403E+00
      2.443  0.3016E-02  0.3016E-02  0.1411E+00  0.1411E+00
      2.634  0.0000E+00  0.0000E+00  0.1414E+00  0.1414E+00
      2.825  0.0000E+00  0.0000E+00  0.1414E+00  0.1414E+00
      3.016  0.0000E+00  0.0000E+00  0.1414E+00  0.1414E+00
      3.207  0.0000E+00  0.0000E+00  0.1414E+00  0.1414E+00
      3.398  0.3873E-04  0.3871E-04  0.1414E+00  0.1414E+00
      3.589  0.3992E-03  0.3992E-03  0.1415E+00  0.1415E+00
      3.780  0.1041E-02  0.1041E-02  0.1416E+00  0.1416E+00
      3.971  0.1752E-02  0.1752E-02  0.1419E+00  0.1419E+00
      4.162  0.2239E-02  0.2239E-02  0.1422E+00  0.1422E+00
      4.353  0.3934E-02  0.3934E-02  0.1428E+00  0.1428E+00
      4.544  0.7381E-02  0.7381E-02  0.1439E+00  0.1439E+00
      4.735  0.6969E-02  0.6969E-02  0.1453E+00  0.1453E+00
      4.926  0.7091E-02  0.7091E-02  0.1467E+00  0.1467E+00
      5.117  0.8034E-02  0.8034E-02  0.1481E+00  0.1481E+00
      5.308  0.1418E-01  0.1418E-01  0.1500E+00  0.1500E+00
      5.500  0.1380E-01  0.1380E-01  0.1527E+00  0.1527E+00
      5.691  0.1321E-01  0.1321E-01  0.1553E+00  0.1553E+00
      5.882  0.8272E-02  0.8272E-02  0.1573E+00  0.1573E+00
      6.073  0.6285E-02  0.6285E-02  0.1587E+00  0.1587E+00
      6.264  0.6752E-02  0.6752E-02  0.1599E+00  0.1599E+00
      6.455  0.1489E-02  0.1485E-02  0.1611E+00  0.1611E+00
      6.646  0.7049E-02  0.7046E-02  0.1616E+00  0.1616E+00
      6.837  0.2920E-01  0.2920E-01  0.1656E+00  0.1656E+00
      7.028  0.3161E-01  0.3161E-01  0.1722E+00  0.1722E+00
      7.219  0.2638E-01  0.2638E-01  0.1786E+00  0.1786E+00
      7.410  0.1665E-01  0.1665E-01  0.1823E+00  0.1823E+00
      7.601  0.1828E-01  0.1828E-01  0.1856E+00  0.1856E+00
      7.792  0.1918E-01  0.1918E-01  0.1890E+00  0.1890E+00
      7.983  0.1859E-01  0.1859E-01  0.1929E+00  0.1929E+00
      8.174  0.1913E-01  0.1916E-01  0.1961E+00  0.1961E+00
      8.365  0.1574E-01  0.1569E-01  0.1993E+00  0.1993E+00
      8.556  0.3916E-02  0.3919E-02  0.2015E+00  0.2015E+00
      8.747  0.1194E-02  0.1194E-02  0.2018E+00  0.2018E+00
      8.938  0.5293E-03  0.5296E-03  0.2020E+00  0.2020E+00
      9.129  0.8216E-04  0.8250E-04  0.2020E+00  0.2020E+00
      9.320  0.0000E+00  0.0000E+00  0.2020E+00  0.2020E+00
      9.511  0.0000E+00  0.0000E+00  0.2020E+00  0.2020E+00
      9.702  0.0000E+00  0.0000E+00  0.2020E+00  0.2020E+00
      9.893  0.0000E+00  0.0000E+00  0.2020E+00  0.2020E+00
     10.085  0.0000E+00  0.0000E+00  0.2020E+00  0.2020E+00
     10.276  0.0000E+00  0.0000E+00  0.2020E+00  0.2020E+00
     10.467  0.0000E+00  0.0000E+00  0.2020E+00  0.2020E+00
     10.658  0.0000E+00  0.0000E+00  0.2020E+00  0.2020E+00
     10.849  0.0000E+00  0.0000E+00  0.2020E+00  0.2020E+00
     11.040  0.0000E+00  0.0000E+00  0.2020E+00  0.2020E+00
     11.231  0.0000E+00  0.0000E+00  0.2020E+00  0.2020E+00
     11.422  0.0000E+00  0.0000E+00  0.2020E+00  0.2020E+00
     11.613  0.0000E+00  0.0000E+00  0.2020E+00  0.2020E+00
     11.804  0.0000E+00  0.0000E+00  0.2020E+00  0.2020E+00
     11.80392422    -45.50900125  301      2.68161691      1.00000000
    -45.509  0.0000E+00  0.0000E+00  0.0000E+00  0.0000E+00  0.0000E+00  0.0000E+00  0.0000E+00  0.0000E+00  0.0000E+00  0.0000E+00  0.0000E+00  0.0000E+00  0.0000E+00  0.0000E+00  0.0000E+00  0.0000E+00  0.0000E+00  0.0000E+00
    -45.318  0.0000E+00  0.0000E+00  0.0000E+00  0.0000E+00  0.0000E+00  0.0000E+00  0.0000E+00  0.0000E+00  0.0000E+00  0.0000E+00  0.0000E+00  0.0000E+00  0.0000E+00  0.0000E+00  0.0000E+00  0.0000E+00  0.0000E+00  0.0000E+00
    -45.127  0.0000E+00  0.0000E+00  0.0000E+00  0.0000E+00  0.0000E+00  0.0000E+00  0.0000E+00  0.0000E+00  0.0000E+00  0.0000E+00  0.0000E+00  0.0000E+00  0.0000E+00  0.0000E+00  0.0000E+00  0.0000E+00  0.0000E+00  0.0000E+00
    -44.936  0.0000E+00  0.0000E+00  0.0000E+00  0.0000E+00  0.0000E+00  0.0000E+00  0.0000E+00  0.0000E+00  0.0000E+00  0.0000E+00  0.0000E+00  0.0000E+00  0.0000E+00  0.0000E+00  0.0000E+00  0.0000E+00  0.0000E+00  0.0000E+00
    -44.745  0.0000E+00  0.0000E+00  0.0000E+00  0.0000E+00  0.0000E+00  0.0000E+00  0.0000E+00  0.0000E+00  0.0000E+00  0.0000E+00  0.0000E+00  0.0000E+00  0.0000E+00  0.0000E+00  0.0000E+00  0.0000E+00  0.0000E+00  0.0000E+00
    -44.554  0.0000E+00  0.0000E+00  0.0000E+00  0.0000E+00  0.0000E+00  0.0000E+00  0.0000E+00  0.0000E+00  0.0000E+00  0.0000E+00  0.0000E+00  0.0000E+00  0.0000E+00  0.0000E+00  0.0000E+00  0.0000E+00  0.0000E+00  0.0000E+00
    -44.363  0.0000E+00  0.0000E+00  0.0000E+00  0.0000E+00  0.0000E+00  0.0000E+00  0.0000E+00  0.0000E+00  0.0000E+00  0.0000E+00  0.0000E+00  0.0000E+00  0.0000E+00  0.0000E+00  0.0000E+00  0.0000E+00  0.0000E+00  0.0000E+00
    -44.172  0.0000E+00  0.0000E+00  0.0000E+00  0.0000E+00  0.0000E+00  0.0000E+00  0.0000E+00  0.0000E+00  0.0000E+00  0.0000E+00  0.0000E+00  0.0000E+00  0.0000E+00  0.0000E+00  0.0000E+00  0.0000E+00  0.0000E+00  0.0000E+00
    -43.981  0.0000E+00  0.0000E+00  0.0000E+00  0.0000E+00  0.0000E+00  0.0000E+00  0.0000E+00  0.0000E+00  0.0000E+00  0.0000E+00  0.0000E+00  0.0000E+00  0.0000E+00  0.0000E+00  0.0000E+00  0.0000E+00  0.0000E+00  0.0000E+00
    -43.790  0.0000E+00  0.0000E+00  0.0000E+00  0.0000E+00  0.0000E+00  0.0000E+00  0.0000E+00  0.0000E+00  0.0000E+00  0.0000E+00  0.0000E+00  0.0000E+00  0.0000E+00  0.0000E+00  0.0000E+00  0.0000E+00  0.0000E+00  0.0000E+00
    -43.599  0.0000E+00  0.0000E+00  0.0000E+00  0.0000E+00  0.0000E+00  0.0000E+00  0.0000E+00  0.0000E+00  0.0000E+00  0.0000E+00  0.0000E+00  0.0000E+00  0.0000E+00  0.0000E+00  0.0000E+00  0.0000E+00  0.0000E+00  0.0000E+00
    -43.408  0.0000E+00  0.0000E+00  0.0000E+00  0.0000E+00  0.0000E+00  0.0000E+00  0.0000E+00  0.0000E+00  0.0000E+00  0.0000E+00  0.0000E+00  0.0000E+00  0.0000E+00  0.0000E+00  0.0000E+00  0.0000E+00  0.0000E+00  0.0000E+00
    -43.216  0.0000E+00  0.0000E+00  0.0000E+00  0.0000E+00  0.0000E+00  0.0000E+00  0.0000E+00  0.0000E+00  0.0000E+00  0.0000E+00  0.0000E+00  0.0000E+00  0.0000E+00  0.0000E+00  0.0000E+00  0.0000E+00  0.0000E+00  0.0000E+00
    -43.025  0.0000E+00  0.0000E+00  0.0000E+00  0.0000E+00  0.0000E+00  0.0000E+00  0.0000E+00  0.0000E+00  0.0000E+00  0.0000E+00  0.0000E+00  0.0000E+00  0.0000E+00  0.0000E+00  0.0000E+00  0.0000E+00  0.0000E+00  0.0000E+00
    -42.834  0.0000E+00  0.0000E+00  0.0000E+00  0.0000E+00  0.0000E+00  0.0000E+00  0.0000E+00  0.0000E+00  0.0000E+00  0.0000E+00  0.0000E+00  0.0000E+00  0.0000E+00  0.0000E+00  0.0000E+00  0.0000E+00  0.0000E+00  0.0000E+00
    -42.643  0.0000E+00  0.0000E+00  0.0000E+00  0.0000E+00  0.0000E+00  0.0000E+00  0.0000E+00  0.0000E+00  0.0000E+00  0.0000E+00  0.0000E+00  0.0000E+00  0.0000E+00  0.0000E+00  0.0000E+00  0.0000E+00  0.0000E+00  0.0000E+00
    -42.452  0.0000E+00  0.0000E+00  0.0000E+00  0.0000E+00  0.0000E+00  0.0000E+00  0.0000E+00  0.0000E+00  0.0000E+00  0.0000E+00  0.0000E+00  0.0000E+00  0.0000E+00  0.0000E+00  0.0000E+00  0.0000E+00  0.0000E+00  0.0000E+00
    -42.261  0.0000E+00  0.0000E+00  0.0000E+00  0.0000E+00  0.0000E+00  0.0000E+00  0.0000E+00  0.0000E+00  0.0000E+00  0.0000E+00  0.0000E+00  0.0000E+00  0.0000E+00  0.0000E+00  0.0000E+00  0.0000E+00  0.0000E+00  0.0000E+00
    -42.070  0.0000E+00  0.0000E+00  0.0000E+00  0.0000E+00  0.0000E+00  0.0000E+00  0.0000E+00  0.0000E+00  0.0000E+00  0.0000E+00  0.0000E+00  0.0000E+00  0.0000E+00  0.0000E+00  0.0000E+00  0.0000E+00  0.0000E+00  0.0000E+00
    -41.879  0.0000E+00  0.0000E+00  0.0000E+00  0.0000E+00  0.0000E+00  0.0000E+00  0.0000E+00  0.0000E+00  0.0000E+00  0.0000E+00  0.0000E+00  0.0000E+00  0.0000E+00  0.0000E+00  0.0000E+00  0.0000E+00  0.0000E+00  0.0000E+00
    -41.688  0.0000E+00  0.0000E+00  0.0000E+00  0.0000E+00  0.0000E+00  0.0000E+00  0.0000E+00  0.0000E+00  0.0000E+00  0.0000E+00  0.0000E+00  0.0000E+00  0.0000E+00  0.0000E+00  0.0000E+00  0.0000E+00  0.0000E+00  0.0000E+00
    -41.497  0.0000E+00  0.0000E+00  0.0000E+00  0.0000E+00  0.0000E+00  0.0000E+00  0.0000E+00  0.0000E+00  0.0000E+00  0.0000E+00  0.0000E+00  0.0000E+00  0.0000E+00  0.0000E+00  0.0000E+00  0.0000E+00  0.0000E+00  0.0000E+00
    -41.306  0.0000E+00  0.0000E+00  0.0000E+00  0.0000E+00  0.0000E+00  0.0000E+00  0.0000E+00  0.0000E+00  0.0000E+00  0.0000E+00  0.0000E+00  0.0000E+00  0.0000E+00  0.0000E+00  0.0000E+00  0.0000E+00  0.0000E+00  0.0000E+00
    -41.115  0.0000E+00  0.0000E+00  0.0000E+00  0.0000E+00  0.0000E+00  0.0000E+00  0.0000E+00  0.0000E+00  0.0000E+00  0.0000E+00  0.0000E+00  0.0000E+00  0.0000E+00  0.0000E+00  0.0000E+00  0.0000E+00  0.0000E+00  0.0000E+00
    -40.924  0.0000E+00  0.0000E+00  0.0000E+00  0.0000E+00  0.0000E+00  0.0000E+00  0.0000E+00  0.0000E+00  0.0000E+00  0.0000E+00  0.0000E+00  0.0000E+00  0.0000E+00  0.0000E+00  0.0000E+00  0.0000E+00  0.0000E+00  0.0000E+00
    -40.733  0.0000E+00  0.0000E+00  0.0000E+00  0.0000E+00  0.0000E+00  0.0000E+00  0.0000E+00  0.0000E+00  0.0000E+00  0.0000E+00  0.0000E+00  0.0000E+00  0.0000E+00  0.0000E+00  0.0000E+00  0.0000E+00  0.0000E+00  0.0000E+00
    -40.542  0.0000E+00  0.0000E+00  0.0000E+00  0.0000E+00  0.0000E+00  0.0000E+00  0.0000E+00  0.0000E+00  0.0000E+00  0.0000E+00  0.0000E+00  0.0000E+00  0.0000E+00  0.0000E+00  0.0000E+00  0.0000E+00  0.0000E+00  0.0000E+00
    -40.351  0.0000E+00  0.0000E+00  0.0000E+00  0.0000E+00  0.0000E+00  0.0000E+00  0.0000E+00  0.0000E+00  0.0000E+00  0.0000E+00  0.0000E+00  0.0000E+00  0.0000E+00  0.0000E+00  0.0000E+00  0.0000E+00  0.0000E+00  0.0000E+00
    -40.160  0.0000E+00  0.0000E+00  0.0000E+00  0.0000E+00  0.0000E+00  0.0000E+00  0.0000E+00  0.0000E+00  0.0000E+00  0.0000E+00  0.0000E+00  0.0000E+00  0.0000E+00  0.0000E+00  0.0000E+00  0.0000E+00  0.0000E+00  0.0000E+00
    -39.969  0.0000E+00  0.0000E+00  0.0000E+00  0.0000E+00  0.0000E+00  0.0000E+00  0.0000E+00  0.0000E+00  0.0000E+00  0.0000E+00  0.0000E+00  0.0000E+00  0.0000E+00  0.0000E+00  0.0000E+00  0.0000E+00  0.0000E+00  0.0000E+00
    -39.778  0.0000E+00  0.0000E+00  0.0000E+00  0.0000E+00  0.0000E+00  0.0000E+00  0.0000E+00  0.0000E+00  0.0000E+00  0.0000E+00  0.0000E+00  0.0000E+00  0.0000E+00  0.0000E+00  0.0000E+00  0.0000E+00  0.0000E+00  0.0000E+00
    -39.587  0.0000E+00  0.0000E+00  0.0000E+00  0.0000E+00  0.0000E+00  0.0000E+00  0.0000E+00  0.0000E+00  0.0000E+00  0.0000E+00  0.0000E+00  0.0000E+00  0.0000E+00  0.0000E+00  0.0000E+00  0.0000E+00  0.0000E+00  0.0000E+00
    -39.396  0.0000E+00  0.0000E+00  0.0000E+00  0.0000E+00  0.0000E+00  0.0000E+00  0.0000E+00  0.0000E+00  0.0000E+00  0.0000E+00  0.0000E+00  0.0000E+00  0.0000E+00  0.0000E+00  0.0000E+00  0.0000E+00  0.0000E+00  0.0000E+00
    -39.205  0.0000E+00  0.0000E+00  0.0000E+00  0.0000E+00  0.0000E+00  0.0000E+00  0.0000E+00  0.0000E+00  0.0000E+00  0.0000E+00  0.0000E+00  0.0000E+00  0.0000E+00  0.0000E+00  0.0000E+00  0.0000E+00  0.0000E+00  0.0000E+00
    -39.014  0.0000E+00  0.0000E+00  0.0000E+00  0.0000E+00  0.0000E+00  0.0000E+00  0.0000E+00  0.0000E+00  0.0000E+00  0.0000E+00  0.0000E+00  0.0000E+00  0.0000E+00  0.0000E+00  0.0000E+00  0.0000E+00  0.0000E+00  0.0000E+00
    -38.822  0.0000E+00  0.0000E+00  0.0000E+00  0.0000E+00  0.0000E+00  0.0000E+00  0.0000E+00  0.0000E+00  0.0000E+00  0.0000E+00  0.0000E+00  0.0000E+00  0.0000E+00  0.0000E+00  0.0000E+00  0.0000E+00  0.0000E+00  0.0000E+00
    -38.631  0.0000E+00  0.0000E+00  0.0000E+00  0.0000E+00  0.0000E+00  0.0000E+00  0.0000E+00  0.0000E+00  0.0000E+00  0.0000E+00  0.0000E+00  0.0000E+00  0.0000E+00  0.0000E+00  0.0000E+00  0.0000E+00  0.0000E+00  0.0000E+00
    -38.440  0.0000E+00  0.0000E+00  0.0000E+00  0.0000E+00  0.0000E+00  0.0000E+00  0.0000E+00  0.0000E+00  0.0000E+00  0.0000E+00  0.0000E+00  0.0000E+00  0.0000E+00  0.0000E+00  0.0000E+00  0.0000E+00  0.0000E+00  0.0000E+00
    -38.249  0.0000E+00  0.0000E+00  0.0000E+00  0.0000E+00  0.0000E+00  0.0000E+00  0.0000E+00  0.0000E+00  0.0000E+00  0.0000E+00  0.0000E+00  0.0000E+00  0.0000E+00  0.0000E+00  0.0000E+00  0.0000E+00  0.0000E+00  0.0000E+00
    -38.058  0.0000E+00  0.0000E+00  0.0000E+00  0.0000E+00  0.0000E+00  0.0000E+00  0.0000E+00  0.0000E+00  0.0000E+00  0.0000E+00  0.0000E+00  0.0000E+00  0.0000E+00  0.0000E+00  0.0000E+00  0.0000E+00  0.0000E+00  0.0000E+00
    -37.867  0.0000E+00  0.0000E+00  0.0000E+00  0.0000E+00  0.0000E+00  0.0000E+00  0.0000E+00  0.0000E+00  0.0000E+00  0.0000E+00  0.0000E+00  0.0000E+00  0.0000E+00  0.0000E+00  0.0000E+00  0.0000E+00  0.0000E+00  0.0000E+00
    -37.676  0.0000E+00  0.0000E+00  0.0000E+00  0.0000E+00  0.0000E+00  0.0000E+00  0.0000E+00  0.0000E+00  0.0000E+00  0.0000E+00  0.0000E+00  0.0000E+00  0.0000E+00  0.0000E+00  0.0000E+00  0.0000E+00  0.0000E+00  0.0000E+00
    -37.485  0.0000E+00  0.0000E+00  0.0000E+00  0.0000E+00  0.0000E+00  0.0000E+00  0.0000E+00  0.0000E+00  0.0000E+00  0.0000E+00  0.0000E+00  0.0000E+00  0.0000E+00  0.0000E+00  0.0000E+00  0.0000E+00  0.0000E+00  0.0000E+00
    -37.294  0.0000E+00  0.0000E+00  0.0000E+00  0.0000E+00  0.0000E+00  0.0000E+00  0.0000E+00  0.0000E+00  0.0000E+00  0.0000E+00  0.0000E+00  0.0000E+00  0.0000E+00  0.0000E+00  0.0000E+00  0.0000E+00  0.0000E+00  0.0000E+00
    -37.103  0.0000E+00  0.0000E+00  0.0000E+00  0.0000E+00  0.0000E+00  0.0000E+00  0.0000E+00  0.0000E+00  0.0000E+00  0.0000E+00  0.0000E+00  0.0000E+00  0.0000E+00  0.0000E+00  0.0000E+00  0.0000E+00  0.0000E+00  0.0000E+00
    -36.912  0.0000E+00  0.0000E+00  0.0000E+00  0.0000E+00  0.0000E+00  0.0000E+00  0.0000E+00  0.0000E+00  0.0000E+00  0.0000E+00  0.0000E+00  0.0000E+00  0.0000E+00  0.0000E+00  0.0000E+00  0.0000E+00  0.0000E+00  0.0000E+00
    -36.721  0.0000E+00  0.0000E+00  0.0000E+00  0.0000E+00  0.0000E+00  0.0000E+00  0.0000E+00  0.0000E+00  0.0000E+00  0.0000E+00  0.0000E+00  0.0000E+00  0.0000E+00  0.0000E+00  0.0000E+00  0.0000E+00  0.0000E+00  0.0000E+00
    -36.530  0.0000E+00  0.0000E+00  0.0000E+00  0.0000E+00  0.0000E+00  0.0000E+00  0.0000E+00  0.0000E+00  0.0000E+00  0.0000E+00  0.0000E+00  0.0000E+00  0.0000E+00  0.0000E+00  0.0000E+00  0.0000E+00  0.0000E+00  0.0000E+00
    -36.339  0.0000E+00  0.0000E+00  0.0000E+00  0.0000E+00  0.0000E+00  0.0000E+00  0.0000E+00  0.0000E+00  0.0000E+00  0.0000E+00  0.0000E+00  0.0000E+00  0.0000E+00  0.0000E+00  0.0000E+00  0.0000E+00  0.0000E+00  0.0000E+00
    -36.148  0.0000E+00  0.0000E+00  0.0000E+00  0.0000E+00  0.0000E+00  0.0000E+00  0.0000E+00  0.0000E+00  0.0000E+00  0.0000E+00  0.0000E+00  0.0000E+00  0.0000E+00  0.0000E+00  0.0000E+00  0.0000E+00  0.0000E+00  0.0000E+00
    -35.957  0.0000E+00  0.0000E+00  0.0000E+00  0.0000E+00  0.0000E+00  0.0000E+00  0.0000E+00  0.0000E+00  0.0000E+00  0.0000E+00  0.0000E+00  0.0000E+00  0.0000E+00  0.0000E+00  0.0000E+00  0.0000E+00  0.0000E+00  0.0000E+00