       N       E                     dE             d eps       ncg     rms          rms(c)
DAV:   1     0.152265189093E+03    0.15227E+03   -0.12552E+04  2880   0.144E+03
DAV:   2    -0.108364866520E+01   -0.15335E+03   -0.14722E+03  3268   0.338E+02
DAV:   3    -0.258567685881E+02   -0.24773E+02   -0.24664E+02  5060   0.780E+01
DAV:   4    -0.284986913288E+02   -0.26419E+01   -0.26295E+01  4384   0.369E+01
DAV:   5    -0.287691955250E+02   -0.27050E+00   -0.27045E+00  4784   0.848E+00    0.522E+00
RMM:   6    -0.280143811744E+02    0.75481E+00   -0.16284E+00  3257   0.427E+00    0.352E+00
RMM:   7    -0.279201729981E+02    0.94208E-01   -0.74369E-01  3428   0.283E+00    0.148E+00
RMM:   8    -0.279207798648E+02   -0.60687E-03   -0.11958E-01  4016   0.160E+00    0.343E-01
RMM:   9    -0.279255130163E+02   -0.47332E-02   -0.49815E-02  4212   0.791E-01    0.243E-01
RMM:  10    -0.279270722845E+02   -0.15593E-02   -0.16695E-02  3667   0.533E-01    0.667E-02
RMM:  11    -0.279277912903E+02   -0.71901E-03   -0.85632E-03  3372   0.326E-01    0.429E-02
RMM:  12    -0.279282912696E+02   -0.49998E-03   -0.48801E-03  3349   0.225E-01    0.438E-02
RMM:  13    -0.279284428804E+02   -0.15161E-03   -0.19450E-03  3340   0.157E-01    0.198E-02
RMM:  14    -0.279285358723E+02   -0.92992E-04   -0.10896E-03  3160   0.114E-01    0.130E-02
RMM:  15    -0.279285959734E+02   -0.60101E-04   -0.66248E-04  2796   0.886E-02    0.891E-03
RMM:  16    -0.279286307186E+02   -0.34745E-04   -0.38023E-04  2737   0.712E-02    0.393E-03
RMM:  17    -0.279286554117E+02   -0.24693E-04   -0.25721E-04  2450   0.585E-02    0.363E-03
RMM:  18    -0.279286685484E+02   -0.13137E-04   -0.14955E-04  2326   0.504E-02    0.934E-04
RMM:  19    -0.279286794348E+02   -0.10886E-04   -0.11417E-04  2302   0.454E-02    0.235E-03
RMM:  20    -0.279286862124E+02   -0.67776E-05   -0.80891E-05  2282   0.413E-02
   1 F= -.27928686E+02 E0= -.27928686E+02  d E =-.279287E+02  mag=    -0.0000
       N       E                     dE             d eps       ncg     rms          rms(c)
DAV:   1    -0.279300352369E+02   -0.13558E-02   -0.14972E-02  3932   0.810E-01    0.182E-01
RMM:   2    -0.279294980595E+02    0.53718E-03   -0.25536E-03  3367   0.360E-01    0.105E-01
RMM:   3    -0.279293988327E+02    0.99227E-04   -0.12381E-03  3781   0.175E-01    0.478E-02
RMM:   4    -0.279293836139E+02    0.15219E-04   -0.11551E-04  3326   0.675E-02    0.288E-02
RMM:   5    -0.279293783730E+02    0.52409E-05   -0.22834E-05  2423   0.383E-02
   2 F= -.27929378E+02 E0= -.27929378E+02  d E =-.692161E-03  mag=     0.0000
       N       E                     dE             d eps       ncg     rms          rms(c)
DAV:   1    -0.279300030520E+02   -0.61944E-03   -0.10722E-02  3492   0.710E-01    0.154E-01
RMM:   2    -0.279296346027E+02    0.36845E-03   -0.22961E-03  3497   0.320E-01    0.949E-02
RMM:   3    -0.279295676805E+02    0.66922E-04   -0.10162E-03  3861   0.160E-01    0.445E-02
RMM:   4    -0.279295609065E+02    0.67741E-05   -0.14007E-04  3251   0.688E-02    0.267E-02
RMM:   5    -0.279295554011E+02    0.55054E-05   -0.74883E-07  1963   0.392E-02
   3 F= -.27929555E+02 E0= -.27929555E+02  d E =-.869189E-03  mag=    -0.0000
