 vasp.5.4.4.18Apr17-6-g9f103f2a35 (build Aug 12 2020 11:57:02) complex          
  
 executed on             LinuxIFC date 2021.02.02  18:37:46
 running on   24 total cores
 distrk:  each k-point on   24 cores,    1 groups
 distr:  one band on NCORES_PER_BAND=   6 cores,    4 groups


--------------------------------------------------------------------------------------------------------


 INCAR:
 POTCAR:    PAW_PBE Li_sv 10Sep2004               
 POTCAR:    PAW_PBE P 06Sep2000                   
 POTCAR:    PAW_PBE Li_sv 10Sep2004               
   VRHFIN =Li: 1s2s2p                                                           
   LEXCH  = PE                                                                  
   EATOM  =   202.7858 eV,   14.9043 Ry                                         
                                                                                
   TITEL  = PAW_PBE Li_sv 10Sep2004                                             
   LULTRA =        F    use ultrasoft PP ?                                      
   IUNSCR =        0    unscreen: 0-lin 1-nonlin 2-no                           
   RPACOR =    0.000    partial core radius                                     
   POMASS =    7.010; ZVAL   =    3.000    mass and valenz                      
   RCORE  =    1.700    outmost cutoff radius                                   
   RWIGS  =    2.050; RWIGS  =    1.085    wigner-seitz radius (au A)           
   ENMAX  =  499.034; ENMIN  =  374.276 eV                                      
   ICORE  =        2    local potential                                         
   LCOR   =        T    correct aug charges                                     
   LPAW   =        T    paw PP                                                  
   EAUG   =  628.945                                                            
   RMAX   =    1.732    core radius for proj-oper                               
   RAUG   =    1.300    factor for augmentation sphere                          
   RDEP   =    1.728    radius for radial grids                                 
   RDEPT  =    1.329    core radius for aug-charge                              
                                                                                
   Atomic configuration                                                         
    4 entries                                                                   
     n  l   j            E        occ.                                          
     1  0  0.50       -51.8549   2.0000                                         
     2  0  0.50        -2.8742   1.0000                                         
     2  1  0.50        -1.3606   0.0000                                         
     3  2  1.50        -1.3606   0.0000                                         
   Description                                                                  
     l       E           TYP  RCUT    TYP  RCUT                                 
     0    -51.8548813     23  1.400                                             
     0     -2.8742052     23  1.700                                             
     1     -1.3605826     23  1.400                                             
     2     -1.3605826     23  1.400                                             
  local pseudopotential read in
  atomic valenz-charges read in
  non local Contribution for L=           0  read in
    real space projection operators read in
  non local Contribution for L=           0  read in
    real space projection operators read in
  non local Contribution for L=           1  read in
    real space projection operators read in
    PAW grid and wavefunctions read in
 
   number of l-projection  operators is LMAX  =           3
   number of lm-projection operators is LMMAX =           5
 
 POTCAR:    PAW_PBE P 06Sep2000                   
   VRHFIN =P : s2p3                                                             
   LEXCH  = PE                                                                  
   EATOM  =   176.0430 eV,   12.9388 Ry                                         
                                                                                
   TITEL  = PAW_PBE P 06Sep2000                                                 
   LULTRA =        F    use ultrasoft PP ?                                      
   IUNSCR =        1    unscreen: 0-lin 1-nonlin 2-no                           
   RPACOR =    1.500    partial core radius                                     
   POMASS =   30.974; ZVAL   =    5.000    mass and valenz                      
   RCORE  =    1.900    outmost cutoff radius                                   
   RWIGS  =    2.330; RWIGS  =    1.233    wigner-seitz radius (au A)           
   ENMAX  =  255.040; ENMIN  =  191.280 eV                                      
   ICORE  =        2    local potential                                         
   LCOR   =        T    correct aug charges                                     
   LPAW   =        T    paw PP                                                  
   EAUG   =  342.924                                                            
   DEXC   =    0.000                                                            
   RMAX   =    1.935    core radius for proj-oper                               
   RAUG   =    1.300    factor for augmentation sphere                          
   RDEP   =    1.931    radius for radial grids                                 
   RDEPT  =    1.794    core radius for aug-charge                              
                                                                                
   Atomic configuration                                                         
    6 entries                                                                   
     n  l   j            E        occ.                                          
     1  0  0.50     -2084.0982   2.0000                                         
     2  0  0.50      -173.9859   2.0000                                         
     2  1  1.50      -124.4865   6.0000                                         
     3  0  0.50       -13.9692   2.0000                                         
     3  1  0.50        -5.5067   3.0000                                         
     3  2  1.50        -5.4423   0.0000                                         
   Description                                                                  
     l       E           TYP  RCUT    TYP  RCUT                                 
     0    -13.9691527     23  1.900                                             
     0    -11.7794650     23  1.900                                             
     1     -5.5066937     23  1.900                                             
     1     -0.2556953     23  1.900                                             
     2     -5.4423304     23  1.900                                             
  local pseudopotential read in
  partial core-charges read in
  partial kinetic energy density read in
  atomic valenz-charges read in
  non local Contribution for L=           0  read in
    real space projection operators read in
  non local Contribution for L=           0  read in
    real space projection operators read in
  non local Contribution for L=           1  read in
    real space projection operators read in
  non local Contribution for L=           1  read in
    real space projection operators read in
    PAW grid and wavefunctions read in
 
   number of l-projection  operators is LMAX  =           4
   number of lm-projection operators is LMMAX =           8
 

 ----------------------------------------------------------------------------- 
|                                                                             |
|  ADVICE TO THIS USER RUNNING 'VASP/VAMP'   (HEAR YOUR MASTER'S VOICE ...):  |
|                                                                             |
|      You have a (more or less) 'small supercell' and for smaller cells      |
|      it is recommended  to use the reciprocal-space projection scheme!      |
|      The real space optimization is not  efficient for small cells and it   |
|      is also less accurate ...                                              |
|      Therefore set LREAL=.FALSE. in the  INCAR file                         |
|                                                                             |
 ----------------------------------------------------------------------------- 

 Optimization of the real space projectors (new method)

 maximal supplied QI-value         = 22.11
 optimisation between [QCUT,QGAM] = [ 11.50, 23.22] = [ 37.02,150.92] Ry 
 Optimized for a Real-space Cutoff    1.08 Angstroem

   l    n(q)    QCUT    max X(q) W(low)/X(q) W(high)/X(q)  e(spline) 
   0      7    11.497    10.506    0.36E-04    0.62E-04    0.14E-07
   0      7    11.497     8.367    0.65E-04    0.14E-03    0.28E-07
   1      7    11.497     8.983    0.21E-03    0.43E-03    0.90E-07
 Optimization of the real space projectors (new method)

 maximal supplied QI-value         = 19.84
 optimisation between [QCUT,QGAM] = [ 11.51, 23.22] = [ 37.09,150.92] Ry 
 Optimized for a Real-space Cutoff    1.21 Angstroem

   l    n(q)    QCUT    max X(q) W(low)/X(q) W(high)/X(q)  e(spline) 
   0      8    11.508   160.924    0.96E-04    0.17E-03    0.52E-07
   0      8    11.508   130.086    0.95E-04    0.17E-03    0.51E-07
   1      8    11.508    74.434    0.16E-03    0.74E-04    0.91E-07
   1      8    11.508    49.120    0.16E-03    0.71E-04    0.89E-07
  PAW_PBE Li_sv 10Sep2004               :
 energy of atom  1       EATOM= -202.7858
 kinetic energy error for atom=    0.0130 (will be added to EATOM!!)
  PAW_PBE P 06Sep2000                   :
 energy of atom  2       EATOM= -176.0430
 kinetic energy error for atom=    0.0011 (will be added to EATOM!!)
 
 
 POSCAR: Li6 P2                                  
  positions in direct lattice
  No initial velocities read in
 exchange correlation table for  LEXCH =        8
   RHO(1)=    0.500       N(1)  =     2000
   RHO(2)=  100.500       N(2)  =     4000
 


--------------------------------------------------------------------------------------------------------


 ion  position               nearest neighbor table
   1  0.000  0.000  0.250-   7 2.45   7 2.45   7 2.45
   2  0.000  0.000  0.750-   8 2.45   8 2.45   8 2.45
   3  0.333  0.667  0.584-   6 2.51   7 2.53   8 2.75   8 2.75   8 2.75
   4  0.667  0.333  0.084-   5 2.51   8 2.53   7 2.75   7 2.75   7 2.75
   5  0.667  0.333  0.416-   4 2.51   8 2.53   7 2.75   7 2.75   7 2.75
   6  0.333  0.667  0.916-   3 2.51   7 2.53   8 2.75   8 2.75   8 2.75
   7  0.333  0.667  0.250-   1 2.45   1 2.45   1 2.45   6 2.53   3 2.53   4 2.75   5 2.75   4 2.75
                             5 2.75   4 2.75   5 2.75
   8  0.667  0.333  0.750-   2 2.45   2 2.45   2 2.45   5 2.53   4 2.53   6 2.75   3 2.75   6 2.75
                             3 2.75   6 2.75   3 2.75
 
  LATTYP: Found a hexagonal cell.
 ALAT       =     4.2358580000
 C/A-ratio  =     1.7872926807
  
  Lattice vectors:
  
 A1 = (   2.1179290000,  -3.6683610000,   0.0000000000)
 A2 = (   2.1179290000,   3.6683610000,   0.0000000000)
 A3 = (   0.0000000000,   0.0000000000,   7.5707180000)


Analysis of symmetry for initial positions (statically):
=====================================================================
 Subroutine PRICEL returns:
 Original cell was already a primitive cell.
 

 Routine SETGRP: Setting up the symmetry group for a 
 hexagonal supercell.


 Subroutine GETGRP returns: Found 24 space group operations
 (whereof 12 operations were pure point group operations)
 out of a pool of 24 trial point group operations.


The static configuration has the point symmetry D_3d.
 The point group associated with its full space group is D_6h.


Analysis of symmetry for dynamics (positions and initial velocities):
=====================================================================
 Subroutine PRICEL returns:
 Original cell was already a primitive cell.
 

 Routine SETGRP: Setting up the symmetry group for a 
 hexagonal supercell.


 Subroutine GETGRP returns: Found 24 space group operations
 (whereof 12 operations were pure point group operations)
 out of a pool of 24 trial point group operations.


The dynamic configuration has the point symmetry D_3d.
 The point group associated with its full space group is D_6h.


Analysis of structural, dynamic, and magnetic symmetry:
=====================================================================
 Subroutine PRICEL returns:
 Original cell was already a primitive cell.
 

 Routine SETGRP: Setting up the symmetry group for a 
 hexagonal supercell.


 Subroutine GETGRP returns: Found 24 space group operations
 (whereof 12 operations were pure point group operations)
 out of a pool of 24 trial point group operations.


The magnetic configuration has the point symmetry D_3d.
 The point group associated with its full space group is D_6h.


 Subroutine INISYM returns: Found 24 space group operations
 (whereof 12 operations are pure point group operations),
 and found     1 'primitive' translations

 
 
 KPOINTS: Fully automatic kpoint scheme           

Automatic generation of k-mesh.
 generate k-points for:    9    9    4
Space group operators:
 irot       det(A)        alpha          n_x          n_y          n_z        tau_x        tau_y        tau_z
    1     1.000000     0.000001     1.000000     0.000000     0.000000     0.000000     0.000000     0.000000
    2    -1.000000     0.000001     1.000000     0.000000     0.000000     0.000000     0.000000     0.000000
    3     1.000000   120.000000     0.000000     0.000000    -1.000000     0.000000     0.000000     0.000000
    4    -1.000000   120.000000     0.000000     0.000000    -1.000000     0.000000     0.000000     0.000000
    5     1.000000   120.000000     0.000000     0.000000     1.000000     0.000000     0.000000     0.000000
    6    -1.000000   120.000000     0.000000     0.000000     1.000000     0.000000     0.000000     0.000000
    7     1.000000   180.000000     0.500000    -0.866025     0.000000     0.000000     0.000000     0.000000
    8    -1.000000   180.000000     0.500000    -0.866025     0.000000     0.000000     0.000000     0.000000
    9     1.000000   180.000000    -0.500000    -0.866025     0.000000     0.000000     0.000000     0.000000
   10    -1.000000   180.000000    -0.500000    -0.866025     0.000000     0.000000     0.000000     0.000000
   11     1.000000   180.000000     1.000000     0.000000     0.000000     0.000000     0.000000     0.000000
   12    -1.000000   180.000000     1.000000     0.000000     0.000000     0.000000     0.000000     0.000000
   13     1.000000    60.000000     0.000000     0.000000    -1.000000     0.000001     0.000000     0.500000
   14    -1.000000    60.000000     0.000000     0.000000    -1.000000     0.000001     0.000000     0.500000
   15     1.000000   180.000000     0.000000     0.000000     1.000000     0.000000     0.000000     0.500000
   16    -1.000000   180.000000     0.000000     0.000000     1.000000     0.000000     0.000000     0.500000
   17     1.000000    60.000000     0.000000     0.000000     1.000000     0.000000     0.000000     0.500000
   18    -1.000000    60.000000     0.000000     0.000000     1.000000     0.000000     0.000000     0.500000
   19     1.000000   180.000000     0.000000     1.000000     0.000000     0.000000     0.000000     0.500000
   20    -1.000000   180.000000     0.000000     1.000000     0.000000     0.000000     0.000000     0.500000
   21     1.000000   180.000000     0.866025     0.500000     0.000000     0.000001     0.000000     0.500000
   22    -1.000000   180.000000     0.866025     0.500000     0.000000     0.000001     0.000000     0.500000
   23     1.000000   180.000000     0.866025    -0.500000     0.000000     0.000000     0.000000     0.500000
   24    -1.000000   180.000000     0.866025    -0.500000     0.000000     0.000000     0.000000     0.500000
 
 Subroutine IBZKPT returns following result:
 ===========================================
 
 Found     36 irreducible k-points:
 
 Following reciprocal coordinates:
            Coordinates               Weight
  0.000000  0.000000  0.000000      1.000000
  0.111111  0.000000  0.000000      6.000000
  0.222222 -0.000000  0.000000      6.000000
  0.333333  0.000000  0.000000      6.000000
  0.444444 -0.000000  0.000000      6.000000
  0.111111  0.111111  0.000000      6.000000
  0.222222  0.111111  0.000000     12.000000
  0.333333  0.111111  0.000000     12.000000
  0.444444  0.111111  0.000000      6.000000
  0.222222  0.222222  0.000000      6.000000
  0.333333  0.222222  0.000000     12.000000
  0.333333  0.333333  0.000000      2.000000
  0.000000  0.000000  0.250000      2.000000
  0.111111  0.000000  0.250000     12.000000
  0.222222 -0.000000  0.250000     12.000000
  0.333333  0.000000  0.250000     12.000000
  0.444444 -0.000000  0.250000     12.000000
  0.111111  0.111111  0.250000     12.000000
  0.222222  0.111111  0.250000     24.000000
  0.333333  0.111111  0.250000     24.000000
  0.444444  0.111111  0.250000     12.000000
  0.222222  0.222222  0.250000     12.000000
  0.333333  0.222222  0.250000     24.000000
  0.333333  0.333333  0.250000      4.000000
  0.000000  0.000000  0.500000      1.000000
  0.111111  0.000000  0.500000      6.000000
  0.222222 -0.000000  0.500000      6.000000
  0.333333  0.000000  0.500000      6.000000
  0.444444 -0.000000  0.500000      6.000000
  0.111111  0.111111  0.500000      6.000000
  0.222222  0.111111  0.500000     12.000000
  0.333333  0.111111  0.500000     12.000000
  0.444444  0.111111  0.500000      6.000000
  0.222222  0.222222  0.500000      6.000000
  0.333333  0.222222  0.500000     12.000000
  0.333333  0.333333  0.500000      2.000000
 
 Following cartesian coordinates:
            Coordinates               Weight
  0.000000  0.000000  0.000000      1.000000
  0.026231 -0.015145  0.000000      6.000000
  0.052462 -0.030289  0.000000      6.000000
  0.078693 -0.045434  0.000000      6.000000
  0.104924 -0.060578  0.000000      6.000000
  0.052462  0.000000  0.000000      6.000000
  0.078693 -0.015145  0.000000     12.000000
  0.104924 -0.030289  0.000000     12.000000
  0.131155 -0.045434  0.000000      6.000000
  0.104924  0.000000  0.000000      6.000000
  0.131155 -0.015145  0.000000     12.000000
  0.157386  0.000000  0.000000      2.000000
  0.000000  0.000000  0.033022      2.000000
  0.026231 -0.015145  0.033022     12.000000
  0.052462 -0.030289  0.033022     12.000000
  0.078693 -0.045434  0.033022     12.000000
  0.104924 -0.060578  0.033022     12.000000
  0.052462  0.000000  0.033022     12.000000
  0.078693 -0.015145  0.033022     24.000000
  0.104924 -0.030289  0.033022     24.000000
  0.131155 -0.045434  0.033022     12.000000
  0.104924  0.000000  0.033022     12.000000
  0.131155 -0.015145  0.033022     24.000000
  0.157386  0.000000  0.033022      4.000000
  0.000000  0.000000  0.066044      1.000000
  0.026231 -0.015145  0.066044      6.000000
  0.052462 -0.030289  0.066044      6.000000
  0.078693 -0.045434  0.066044      6.000000
  0.104924 -0.060578  0.066044      6.000000
  0.052462  0.000000  0.066044      6.000000
  0.078693 -0.015145  0.066044     12.000000
  0.104924 -0.030289  0.066044     12.000000
  0.131155 -0.045434  0.066044      6.000000
  0.104924  0.000000  0.066044      6.000000
  0.131155 -0.015145  0.066044     12.000000
  0.157386  0.000000  0.066044      2.000000
 
 TETIRR: Found    328 inequivalent tetrahedra from     1944


--------------------------------------------------------------------------------------------------------




 Dimension of arrays:
   k-points           NKPTS =     36   k-points in BZ     NKDIM =     36   number of bands    NBANDS=     20
   number of dos      NEDOS =    301   number of ions     NIONS =      8
   non local maximal  LDIM  =      4   non local SUM 2l+1 LMDIM =      8
   total plane-waves  NPLWV =  57344
   max r-space proj   IRMAX =   3674   max aug-charges    IRDMAX=  15032
   dimension x,y,z NGX =    32 NGY =   32 NGZ =   56
   dimension x,y,z NGXF=    64 NGYF=   64 NGZF=  112
   support grid    NGXF=    64 NGYF=   64 NGZF=  112
   ions per type =               6   2
   NGX,Y,Z   is equivalent  to a cutoff of  12.56, 12.56, 12.30 a.u.
   NGXF,Y,Z  is equivalent  to a cutoff of  25.12, 25.12, 24.59 a.u.

 SYSTEM =  unknown system                          
 POSCAR =  Li6 P2                                  

 Startparameter for this run:
   NWRITE =      2    write-flag & timer
   PREC   = accura    normal or accurate (medium, high low for compatibility)
   ISTART =      0    job   : 0-new  1-cont  2-samecut
   ICHARG =      2    charge: 1-file 2-atom 10-const
   ISPIN  =      2    spin polarized calculation?
   LNONCOLLINEAR =      F non collinear calculations
   LSORBIT =      F    spin-orbit coupling
   INIWAV =      1    electr: 0-lowe 1-rand  2-diag
   LASPH  =      T    aspherical Exc in radial PAW
   METAGGA=      F    non-selfconsistent MetaGGA calc.

 Electronic Relaxation 1
   ENCUT  =  520.0 eV  38.22 Ry    6.18 a.u.   7.88  7.88 14.08*2*pi/ulx,y,z
   ENINI  =  520.0     initial cutoff
   ENAUG  =  628.9 eV  augmentation charge cutoff
   NELM   =    100;   NELMIN=  2; NELMDL= -5     # of ELM steps 
   EDIFF  = 0.1E-04   stopping-criterion for ELM
   LREAL  =      T    real-space projection
   NLSPLINE    = F    spline interpolate recip. space projectors
   LCOMPAT=      F    compatible to vasp.4.4
   GGA_COMPAT  = T    GGA compatible to vasp.4.4-vasp.4.6
   LMAXPAW     = -100 max onsite density
   LMAXMIX     =    2 max onsite mixed and CHGCAR
   VOSKOWN=      0    Vosko Wilk Nusair interpolation
   ROPT   =   -0.00025  -0.00025
 Ionic relaxation
   EDIFFG = 0.1E-03   stopping-criterion for IOM
   NSW    =     99    number of steps for IOM
   NBLOCK =      1;   KBLOCK =     99    inner block; outer block 
   IBRION =      2    ionic relax: 0-MD 1-quasi-New 2-CG
   NFREE  =      1    steps in history (QN), initial steepest desc. (CG)
   ISIF   =      3    stress and relaxation
   IWAVPR =     11    prediction:  0-non 1-charg 2-wave 3-comb
   ISYM   =      2    0-nonsym 1-usesym 2-fastsym
   LCORR  =      T    Harris-Foulkes like correction to forces

   POTIM  = 0.5000    time-step for ionic-motion
   TEIN   =    0.0    initial temperature
   TEBEG  =    0.0;   TEEND  =   0.0 temperature during run
   SMASS  =  -3.00    Nose mass-parameter (am)
   estimated Nose-frequenzy (Omega)   =  0.10E-29 period in steps =****** mass=  -0.410E-27a.u.
   SCALEE = 1.0000    scale energy and forces
   NPACO  =    256;   APACO  = 16.0  distance and # of slots for P.C.
   PSTRESS=    0.0 pullay stress

  Mass of Ions in am
   POMASS =   7.01 30.97
  Ionic Valenz
   ZVAL   =   3.00  5.00
  Atomic Wigner-Seitz radii
   RWIGS  =  -1.00 -1.00
  virtual crystal weights 
   VCA    =   1.00  1.00
   NELECT =      28.0000    total number of electrons
   NUPDOWN=      -1.0000    fix difference up-down

 DOS related values:
   EMIN   =  10.00;   EMAX   =-10.00  energy-range for DOS
   EFERMI =   0.00
   ISMEAR =    -5;   SIGMA  =   0.05  broadening in eV -4-tet -1-fermi 0-gaus

 Electronic relaxation 2 (details)
   IALGO  =     68    algorithm
   LDIAG  =      T    sub-space diagonalisation (order eigenvalues)
   LSUBROT=      F    optimize rotation matrix (better conditioning)
   TURBO    =      0    0=normal 1=particle mesh
   IRESTART =      0    0=no restart 2=restart with 2 vectors
   NREBOOT  =      0    no. of reboots
   NMIN     =      0    reboot dimension
   EREF     =   0.00    reference energy to select bands
   IMIX   =      4    mixing-type and parameters
     AMIX     =   0.40;   BMIX     =  1.00
     AMIX_MAG =   1.60;   BMIX_MAG =  1.00
     AMIN     =   0.10
     WC   =   100.;   INIMIX=   1;  MIXPRE=   1;  MAXMIX= -45

 Intra band minimization:
   WEIMIN = 0.0010     energy-eigenvalue tresh-hold
   EBREAK =  0.13E-06  absolut break condition
   DEPER  =   0.30     relativ break condition  

   TIME   =   0.40     timestep for ELM

  volume/ion in A,a.u.               =      14.70        99.23
  Fermi-wavevector in a.u.,A,eV,Ry     =   1.014559  1.917239 14.004886  1.029330
  Thomas-Fermi vector in A             =   2.147794
 
 Write flags
   LWAVE        =      F    write WAVECAR
   LDOWNSAMPLE  =      F    k-point downsampling of WAVECAR
   LCHARG       =      F    write CHGCAR
   LVTOT        =      F    write LOCPOT, total local potential
   LVHAR        =      F    write LOCPOT, Hartree potential only
   LELF         =      F    write electronic localiz. function (ELF)
   LORBIT       =     11    0 simple, 1 ext, 2 COOP (PROOUT), +10 PAW based schemes


 Dipole corrections
   LMONO  =      F    monopole corrections only (constant potential shift)
   LDIPOL =      F    correct potential (dipole corrections)
   IDIPOL =      0    1-x, 2-y, 3-z, 4-all directions 
   EPSILON=  1.0000000 bulk dielectric constant

 Exchange correlation treatment:
   GGA     =    --    GGA type
   LEXCH   =     8    internal setting for exchange type
   VOSKOWN=      0    Vosko Wilk Nusair interpolation
   LHFCALC =     F    Hartree Fock is set to
   LHFONE  =     F    Hartree Fock one center treatment
   AEXX    =    0.0000 exact exchange contribution

 Linear response parameters
   LEPSILON=     F    determine dielectric tensor
   LRPA    =     F    only Hartree local field effects (RPA)
   LNABLA  =     F    use nabla operator in PAW spheres
   LVEL    =     F    velocity operator in full k-point grid
   LINTERFAST=   F  fast interpolation
   KINTER  =     0    interpolate to denser k-point grid
   CSHIFT  =0.1000    complex shift for real part using Kramers Kronig
   OMEGAMAX=  -1.0    maximum frequency
   DEG_THRESHOLD= 0.2000000E-02 threshold for treating states as degnerate
   RTIME   =   -0.100 relaxation time in fs
  (WPLASMAI=    0.000 imaginary part of plasma frequency in eV, 0.658/RTIME)
   DFIELD  = 0.0000000 0.0000000 0.0000000 field for delta impulse in time
 
 Orbital magnetization related:
   ORBITALMAG=     F  switch on orbital magnetization
   LCHIMAG   =     F  perturbation theory with respect to B field
   DQ        =  0.001000  dq finite difference perturbation B field
   LLRAUG    =     F  two centre corrections for induced B field



--------------------------------------------------------------------------------------------------------


 conjugate gradient relaxation of ions
 charge density and potential will be updated during run
 spin polarized calculation
 RMM-DIIS sequential band-by-band and
  variant of blocked Davidson during initial phase
 perform sub-space diagonalisation
    before iterative eigenvector-optimisation
 modified Broyden-mixing scheme, WC =      100.0
 initial mixing is a Kerker type mixing with AMIX =  0.4000 and BMIX =      1.0000
 Hartree-type preconditioning will be used
 using additional bands            6
 real space projection scheme for non local part
 use partial core corrections
 calculate Harris-corrections to forces 
   (improved forces if not selfconsistent)
 use gradient corrections 
 use of overlap-Matrix (Vanderbilt PP)
 Fermi weights with tetrahedron method with Bloechl corrections


--------------------------------------------------------------------------------------------------------


  energy-cutoff  :      520.00
  volume of cell :      117.64
      direct lattice vectors                 reciprocal lattice vectors
     2.117929000 -3.668361000  0.000000000     0.236079680 -0.136300653  0.000000000
     2.117929000  3.668361000  0.000000000     0.236079680  0.136300653  0.000000000
     0.000000000  0.000000000  7.570718000     0.000000000  0.000000000  0.132087868

  length of vectors
     4.235858316  4.235858316  7.570718000     0.272601326  0.272601326  0.132087868


 
 k-points in units of 2pi/SCALE and weight: Fully automatic kpoint scheme           
   0.00000000  0.00000000  0.00000000       0.003
   0.02623108 -0.01514452  0.00000000       0.019
   0.05246215 -0.03028903  0.00000000       0.019
   0.07869323 -0.04543355  0.00000000       0.019
   0.10492430 -0.06057807  0.00000000       0.019
   0.05246215  0.00000000  0.00000000       0.019
   0.07869323 -0.01514452  0.00000000       0.037
   0.10492430 -0.03028903  0.00000000       0.037
   0.13115538 -0.04543355  0.00000000       0.019
   0.10492430  0.00000000  0.00000000       0.019
   0.13115538 -0.01514452  0.00000000       0.037
   0.15738645  0.00000000  0.00000000       0.006
   0.00000000  0.00000000  0.03302197       0.006
   0.02623108 -0.01514452  0.03302197       0.037
   0.05246215 -0.03028903  0.03302197       0.037
   0.07869323 -0.04543355  0.03302197       0.037
   0.10492430 -0.06057807  0.03302197       0.037
   0.05246215  0.00000000  0.03302197       0.037
   0.07869323 -0.01514452  0.03302197       0.074
   0.10492430 -0.03028903  0.03302197       0.074
   0.13115538 -0.04543355  0.03302197       0.037
   0.10492430  0.00000000  0.03302197       0.037
   0.13115538 -0.01514452  0.03302197       0.074
   0.15738645  0.00000000  0.03302197       0.012
   0.00000000  0.00000000  0.06604393       0.003
   0.02623108 -0.01514452  0.06604393       0.019
   0.05246215 -0.03028903  0.06604393       0.019
   0.07869323 -0.04543355  0.06604393       0.019
   0.10492430 -0.06057807  0.06604393       0.019
   0.05246215  0.00000000  0.06604393       0.019
   0.07869323 -0.01514452  0.06604393       0.037
   0.10492430 -0.03028903  0.06604393       0.037
   0.13115538 -0.04543355  0.06604393       0.019
   0.10492430  0.00000000  0.06604393       0.019
   0.13115538 -0.01514452  0.06604393       0.037
   0.15738645  0.00000000  0.06604393       0.006
 
 k-points in reciprocal lattice and weights: Fully automatic kpoint scheme           
   0.00000000  0.00000000  0.00000000       0.003
   0.11111111  0.00000000  0.00000000       0.019
   0.22222222 -0.00000000  0.00000000       0.019
   0.33333333  0.00000000  0.00000000       0.019
   0.44444444 -0.00000000  0.00000000       0.019
   0.11111111  0.11111111  0.00000000       0.019
   0.22222222  0.11111111  0.00000000       0.037
   0.33333333  0.11111111  0.00000000       0.037
   0.44444444  0.11111111  0.00000000       0.019
   0.22222222  0.22222222  0.00000000       0.019
   0.33333333  0.22222222  0.00000000       0.037
   0.33333333  0.33333333  0.00000000       0.006
   0.00000000  0.00000000  0.25000000       0.006
   0.11111111  0.00000000  0.25000000       0.037
   0.22222222 -0.00000000  0.25000000       0.037
   0.33333333  0.00000000  0.25000000       0.037
   0.44444444 -0.00000000  0.25000000       0.037
   0.11111111  0.11111111  0.25000000       0.037
   0.22222222  0.11111111  0.25000000       0.074
   0.33333333  0.11111111  0.25000000       0.074
   0.44444444  0.11111111  0.25000000       0.037
   0.22222222  0.22222222  0.25000000       0.037
   0.33333333  0.22222222  0.25000000       0.074
   0.33333333  0.33333333  0.25000000       0.012
   0.00000000  0.00000000  0.50000000       0.003
   0.11111111  0.00000000  0.50000000       0.019
   0.22222222 -0.00000000  0.50000000       0.019
   0.33333333  0.00000000  0.50000000       0.019
   0.44444444 -0.00000000  0.50000000       0.019
   0.11111111  0.11111111  0.50000000       0.019
   0.22222222  0.11111111  0.50000000       0.037
   0.33333333  0.11111111  0.50000000       0.037
   0.44444444  0.11111111  0.50000000       0.019
   0.22222222  0.22222222  0.50000000       0.019
   0.33333333  0.22222222  0.50000000       0.037
   0.33333333  0.33333333  0.50000000       0.006
 
 position of ions in fractional coordinates (direct lattice) 
   0.00000000  0.00000000  0.25000000
   0.00000000  0.00000000  0.75000000
   0.33333300  0.66666700  0.58411900
   0.66666700  0.33333300  0.08411900
   0.66666700  0.33333300  0.41588100
   0.33333300  0.66666700  0.91588100
   0.33333300  0.66666700  0.25000000
   0.66666700  0.33333300  0.75000000
 
 position of ions in cartesian coordinates  (Angst):
   0.00000000  0.00000000  1.89267950
   0.00000000  0.00000000  5.67803850
   2.11792900  1.22278945  4.42220023
   2.11792900 -1.22278945  0.63684123
   2.11792900 -1.22278945  3.14851777
   2.11792900  1.22278945  6.93387677
   2.11792900  1.22278945  1.89267950
   2.11792900 -1.22278945  5.67803850
 


--------------------------------------------------------------------------------------------------------


 k-point  1 :   0.0000 0.0000 0.0000  plane waves:    3119
 k-point  2 :   0.1111 0.0000 0.0000  plane waves:    3141
 k-point  3 :   0.2222-0.0000 0.0000  plane waves:    3164
 k-point  4 :   0.3333 0.0000 0.0000  plane waves:    3168
 k-point  5 :   0.4444-0.0000 0.0000  plane waves:    3180
 k-point  6 :   0.1111 0.1111 0.0000  plane waves:    3158
 k-point  7 :   0.2222 0.1111 0.0000  plane waves:    3156
 k-point  8 :   0.3333 0.1111 0.0000  plane waves:    3163
 k-point  9 :   0.4444 0.1111 0.0000  plane waves:    3162
 k-point 10 :   0.2222 0.2222 0.0000  plane waves:    3170
 k-point 11 :   0.3333 0.2222 0.0000  plane waves:    3187
 k-point 12 :   0.3333 0.3333 0.0000  plane waves:    3216
 k-point 13 :   0.0000 0.0000 0.2500  plane waves:    3160
 k-point 14 :   0.1111 0.0000 0.2500  plane waves:    3158
 k-point 15 :   0.2222-0.0000 0.2500  plane waves:    3158
 k-point 16 :   0.3333 0.0000 0.2500  plane waves:    3163
 k-point 17 :   0.4444-0.0000 0.2500  plane waves:    3171
 k-point 18 :   0.1111 0.1111 0.2500  plane waves:    3149
 k-point 19 :   0.2222 0.1111 0.2500  plane waves:    3168
 k-point 20 :   0.3333 0.1111 0.2500  plane waves:    3171
 k-point 21 :   0.4444 0.1111 0.2500  plane waves:    3181
 k-point 22 :   0.2222 0.2222 0.2500  plane waves:    3171
 k-point 23 :   0.3333 0.2222 0.2500  plane waves:    3179
 k-point 24 :   0.3333 0.3333 0.2500  plane waves:    3177
 k-point 25 :   0.0000 0.0000 0.5000  plane waves:    3160
 k-point 26 :   0.1111 0.0000 0.5000  plane waves:    3156
 k-point 27 :   0.2222-0.0000 0.5000  plane waves:    3170
 k-point 28 :   0.3333 0.0000 0.5000  plane waves:    3164
 k-point 29 :   0.4444-0.0000 0.5000  plane waves:    3184
 k-point 30 :   0.1111 0.1111 0.5000  plane waves:    3170
 k-point 31 :   0.2222 0.1111 0.5000  plane waves:    3162
 k-point 32 :   0.3333 0.1111 0.5000  plane waves:    3172
 k-point 33 :   0.4444 0.1111 0.5000  plane waves:    3182
 k-point 34 :   0.2222 0.2222 0.5000  plane waves:    3168
 k-point 35 :   0.3333 0.2222 0.5000  plane waves:    3176
 k-point 36 :   0.3333 0.3333 0.5000  plane waves:    3162

 maximum and minimum number of plane-waves per node :       548      512

 maximum number of plane-waves:      3216
 maximum index in each direction: 
   IXMAX=    7   IYMAX=    7   IZMAX=   14
   IXMIN=   -8   IYMIN=   -8   IZMIN=  -14


 real space projection operators:
  total allocation   :       1014.80 KBytes
  max/ min on nodes  :        178.44        162.33


 parallel 3D FFT for wavefunctions:
    minimum data exchange during FFTs selected (reduces bandwidth)
 parallel 3D FFT for charge:
    minimum data exchange during FFTs selected (reduces bandwidth)


 total amount of memory used by VASP MPI-rank0    37555. kBytes
=======================================================================

   base      :      30000. kBytes
   nonlr-proj:        711. kBytes
   fftplans  :       1042. kBytes
   grid      :       2611. kBytes
   one-center:         12. kBytes
   wavefun   :       3179. kBytes
 
     INWAV:  cpu time    0.0000: real time    0.0001
 Broyden mixing: mesh for mixing (old mesh)
   NGX = 15   NGY = 15   NGZ = 29
  (NGX  = 64   NGY  = 64   NGZ  =112)
  gives a total of   6525 points

 initial charge density was supplied:
 charge density of overlapping atoms calculated
 number of electron      28.0000000 magnetization       0.0000000
 keeping initial charge density in first step


--------------------------------------------------------------------------------------------------------


 Maximum index for non-local projection operator          592
 Maximum index for augmentation-charges          625 (set IRDMAX)


--------------------------------------------------------------------------------------------------------


 First call to EWALD:  gamma=   0.362
 Maximum number of real-space cells 4x 4x 2
 Maximum number of reciprocal cells 2x 2x 4

    FEWALD:  cpu time    0.0029: real time    0.0072


--------------------------------------- Iteration      1(   1)  ---------------------------------------


    POTLOK:  cpu time    0.0394: real time    0.0804
    SETDIJ:  cpu time    0.2328: real time    0.2411
     EDDAV:  cpu time    0.7730: real time    0.8856
 BZINTS: Fermi energy: 11.500659; 28.000000 electrons
         Band energy:-351.655973;  BLOECHL correction: -0.087360
       DOS:  cpu time    0.0279: real time    0.0301
    --------------------------------------------
      LOOP:  cpu time    1.0732: real time    1.2373

 eigenvalue-minimisations  :  2880
 total energy-change (2. order) : 0.1522652E+03  (-0.1255215E+04)
 number of electron      28.0000000 magnetization       0.0000000
 augmentation part       28.0000000 magnetization       0.0000000

 Free energy of the ion-electron system (eV)
  ---------------------------------------------------
  alpha Z        PSCENC =        20.50366002
  Ewald energy   TEWEN  =      -836.20080173
  -Hartree energ DENC   =      -253.83226653
  -exchange      EXHF   =         0.00000000
  -V(xc)+E(xc)   XCENC  =        80.83934098
  PAW double counting   =       758.08981490     -834.19955962
  entropy T*S    EENTRO =         0.00000000
  eigenvalues    EBANDS =      -351.65597343
  atomic energy  EATOM  =      1568.72097452
  Solvation  Ediel_sol  =         0.00000000
  ---------------------------------------------------
  free energy    TOTEN  =       152.26518909 eV

  energy without entropy =      152.26518909  energy(sigma->0) =      152.26518909


--------------------------------------------------------------------------------------------------------




--------------------------------------- Iteration      1(   2)  ---------------------------------------


     EDDAV:  cpu time    0.7349: real time    0.7355
 BZINTS: Fermi energy:  3.314761; 28.000000 electrons
         Band energy:-505.004811;  BLOECHL correction:  0.000000
       DOS:  cpu time    0.0059: real time    0.0059
    --------------------------------------------
      LOOP:  cpu time    0.7408: real time    0.7414

 eigenvalue-minimisations  :  3268
 total energy-change (2. order) :-0.1533488E+03  (-0.1472248E+03)
 number of electron      28.0000000 magnetization       0.0000000
 augmentation part       28.0000000 magnetization       0.0000000

 Free energy of the ion-electron system (eV)
  ---------------------------------------------------
  alpha Z        PSCENC =        20.50366002
  Ewald energy   TEWEN  =      -836.20080173
  -Hartree energ DENC   =      -253.83226653
  -exchange      EXHF   =         0.00000000
  -V(xc)+E(xc)   XCENC  =        80.83934098
  PAW double counting   =       758.08981490     -834.19955962
  entropy T*S    EENTRO =         0.00000000
  eigenvalues    EBANDS =      -505.00481119
  atomic energy  EATOM  =      1568.72097452
  Solvation  Ediel_sol  =         0.00000000
  ---------------------------------------------------
  free energy    TOTEN  =        -1.08364867 eV

  energy without entropy =       -1.08364867  energy(sigma->0) =       -1.08364867


--------------------------------------------------------------------------------------------------------




--------------------------------------- Iteration      1(   3)  ---------------------------------------


     EDDAV:  cpu time    1.0659: real time    1.0666
 BZINTS: Fermi energy:  1.859509; 28.000000 electrons
         Band energy:-529.777931;  BLOECHL correction:  0.000000
       DOS:  cpu time    0.0045: real time    0.0044
    --------------------------------------------
      LOOP:  cpu time    1.0704: real time    1.0710

 eigenvalue-minimisations  :  5060
 total energy-change (2. order) :-0.2477312E+02  (-0.2466361E+02)
 number of electron      28.0000000 magnetization       0.0000000
 augmentation part       28.0000000 magnetization       0.0000000

 Free energy of the ion-electron system (eV)
  ---------------------------------------------------
  alpha Z        PSCENC =        20.50366002
  Ewald energy   TEWEN  =      -836.20080173
  -Hartree energ DENC   =      -253.83226653
  -exchange      EXHF   =         0.00000000
  -V(xc)+E(xc)   XCENC  =        80.83934098
  PAW double counting   =       758.08981490     -834.19955962
  entropy T*S    EENTRO =         0.00000000
  eigenvalues    EBANDS =      -529.77793111
  atomic energy  EATOM  =      1568.72097452
  Solvation  Ediel_sol  =         0.00000000
  ---------------------------------------------------
  free energy    TOTEN  =       -25.85676859 eV

  energy without entropy =      -25.85676859  energy(sigma->0) =      -25.85676859


--------------------------------------------------------------------------------------------------------




--------------------------------------- Iteration      1(   4)  ---------------------------------------


     EDDAV:  cpu time    0.9313: real time    0.9322
 BZINTS: Fermi energy:  1.747246; 28.000000 electrons
         Band energy:-532.419854;  BLOECHL correction:  0.000000
       DOS:  cpu time    0.0043: real time    0.0043
    --------------------------------------------
      LOOP:  cpu time    0.9356: real time    0.9365

 eigenvalue-minimisations  :  4384
 total energy-change (2. order) :-0.2641923E+01  (-0.2629455E+01)
 number of electron      28.0000000 magnetization       0.0000000
 augmentation part       28.0000000 magnetization       0.0000000

 Free energy of the ion-electron system (eV)
  ---------------------------------------------------
  alpha Z        PSCENC =        20.50366002
  Ewald energy   TEWEN  =      -836.20080173
  -Hartree energ DENC   =      -253.83226653
  -exchange      EXHF   =         0.00000000
  -V(xc)+E(xc)   XCENC  =        80.83934098
  PAW double counting   =       758.08981490     -834.19955962
  entropy T*S    EENTRO =         0.00000000
  eigenvalues    EBANDS =      -532.41985385
  atomic energy  EATOM  =      1568.72097452
  Solvation  Ediel_sol  =         0.00000000
  ---------------------------------------------------
  free energy    TOTEN  =       -28.49869133 eV

  energy without entropy =      -28.49869133  energy(sigma->0) =      -28.49869133


--------------------------------------------------------------------------------------------------------




--------------------------------------- Iteration      1(   5)  ---------------------------------------


     EDDAV:  cpu time    1.0069: real time    1.0075
 BZINTS: Fermi energy:  1.798796; 28.000000 electrons
         Band energy:-532.690358;  BLOECHL correction:  0.000000
       DOS:  cpu time    0.0041: real time    0.0041
    CHARGE:  cpu time    0.0543: real time    0.0659
    MIXING:  cpu time    0.0066: real time    0.0136
    --------------------------------------------
      LOOP:  cpu time    1.0718: real time    1.0910

 eigenvalue-minimisations  :  4784
 total energy-change (2. order) :-0.2705042E+00  (-0.2704534E+00)
 number of electron      28.0000012 magnetization       0.0000000
 augmentation part        4.6963990 magnetization       0.0009967

 Broyden mixing:
  rms(total) = 0.52210E+00    rms(broyden)= 0.52162E+00
  rms(prec ) = 0.83253E+00
  weight for this iteration     100.00

 Free energy of the ion-electron system (eV)
  ---------------------------------------------------
  alpha Z        PSCENC =        20.50366002
  Ewald energy   TEWEN  =      -836.20080173
  -Hartree energ DENC   =      -253.83226653
  -exchange      EXHF   =         0.00000000
  -V(xc)+E(xc)   XCENC  =        80.83934098
  PAW double counting   =       758.08981490     -834.19955962
  entropy T*S    EENTRO =         0.00000000
  eigenvalues    EBANDS =      -532.69035805
  atomic energy  EATOM  =      1568.72097452
  Solvation  Ediel_sol  =         0.00000000
  ---------------------------------------------------
  free energy    TOTEN  =       -28.76919552 eV

  energy without entropy =      -28.76919552  energy(sigma->0) =      -28.76919552


--------------------------------------------------------------------------------------------------------




--------------------------------------- Iteration      1(   6)  ---------------------------------------


    POTLOK:  cpu time    0.0251: real time    0.0255
    SETDIJ:  cpu time    0.2510: real time    0.2512
    EDDIAG:  cpu time    0.1459: real time    0.1522
  RMM-DIIS:  cpu time    0.4996: real time    0.5037
    ORTHCH:  cpu time    0.0148: real time    0.0148
 BZINTS: Fermi energy:  2.316049; 28.000000 electrons
         Band energy:-529.498278;  BLOECHL correction:  0.000000
       DOS:  cpu time    0.0041: real time    0.0041
    CHARGE:  cpu time    0.0454: real time    0.0455
    MIXING:  cpu time    0.0016: real time    0.0044
    --------------------------------------------
      LOOP:  cpu time    0.9885: real time    1.0013

 eigenvalue-minimisations  :  3257
 total energy-change (2. order) : 0.7548144E+00  (-0.1628431E+00)
 number of electron      28.0000012 magnetization       0.0000000
 augmentation part        4.7123240 magnetization       0.0006663

 Broyden mixing:
  rms(total) = 0.35179E+00    rms(broyden)= 0.35179E+00
  rms(prec ) = 0.45267E+00
  weight for this iteration     100.00

 eigenvalues of (default mixing * dielectric matrix)
  average eigenvalue GAMMA=   1.8985
  1.8985

 Free energy of the ion-electron system (eV)
  ---------------------------------------------------
  alpha Z        PSCENC =        20.50366002
  Ewald energy   TEWEN  =      -836.20080173
  -Hartree energ DENC   =      -255.90951488
  -exchange      EXHF   =         0.00000000
  -V(xc)+E(xc)   XCENC  =        81.21755408
  PAW double counting   =       961.42349546    -1038.27147074
  entropy T*S    EENTRO =         0.00000000
  eigenvalues    EBANDS =      -529.49827789
  atomic energy  EATOM  =      1568.72097452
  Solvation  Ediel_sol  =         0.00000000
  ---------------------------------------------------
  free energy    TOTEN  =       -28.01438117 eV

  energy without entropy =      -28.01438117  energy(sigma->0) =      -28.01438117


--------------------------------------------------------------------------------------------------------




--------------------------------------- Iteration      1(   7)  ---------------------------------------


    POTLOK:  cpu time    0.0242: real time    0.0243
    SETDIJ:  cpu time    0.2510: real time    0.2511
    EDDIAG:  cpu time    0.1428: real time    0.1429
  RMM-DIIS:  cpu time    0.4710: real time    0.4713
    ORTHCH:  cpu time    0.0148: real time    0.0148
 BZINTS: Fermi energy:  2.656179; 28.000000 electrons
         Band energy:-528.388264;  BLOECHL correction:  0.000000
       DOS:  cpu time    0.0040: real time    0.0040
    CHARGE:  cpu time    0.0453: real time    0.0453
    MIXING:  cpu time    0.0007: real time    0.0006
    --------------------------------------------
      LOOP:  cpu time    0.9529: real time    0.9544

 eigenvalue-minimisations  :  3428
 total energy-change (2. order) : 0.9420818E-01  (-0.7436915E-01)
 number of electron      28.0000012 magnetization       0.0000000
 augmentation part        4.6978111 magnetization       0.0000703

 Broyden mixing:
  rms(total) = 0.14797E+00    rms(broyden)= 0.14794E+00
  rms(prec ) = 0.17637E+00
  weight for this iteration     100.00

 eigenvalues of (default mixing * dielectric matrix)
  average eigenvalue GAMMA=   1.8169
  1.8169  1.8169

 Free energy of the ion-electron system (eV)
  ---------------------------------------------------
  alpha Z        PSCENC =        20.50366002
  Ewald energy   TEWEN  =      -836.20080173
  -Hartree energ DENC   =      -256.57216453
  -exchange      EXHF   =         0.00000000
  -V(xc)+E(xc)   XCENC  =        81.43407753
  PAW double counting   =      1283.07455827    -1360.49221343
  entropy T*S    EENTRO =         0.00000000
  eigenvalues    EBANDS =      -528.38826364
  atomic energy  EATOM  =      1568.72097452
  Solvation  Ediel_sol  =         0.00000000
  ---------------------------------------------------
  free energy    TOTEN  =       -27.92017300 eV

  energy without entropy =      -27.92017300  energy(sigma->0) =      -27.92017300


--------------------------------------------------------------------------------------------------------




--------------------------------------- Iteration      1(   8)  ---------------------------------------


    POTLOK:  cpu time    0.0241: real time    0.0243
    SETDIJ:  cpu time    0.2510: real time    0.2511
    EDDIAG:  cpu time    0.1425: real time    0.1426
  RMM-DIIS:  cpu time    0.5632: real time    0.5634
    ORTHCH:  cpu time    0.0156: real time    0.0156
 BZINTS: Fermi energy:  2.657351; 28.000000 electrons
         Band energy:-529.116815;  BLOECHL correction:  0.000000
       DOS:  cpu time    0.0042: real time    0.0042
    CHARGE:  cpu time    0.0465: real time    0.0467
    MIXING:  cpu time    0.0009: real time    0.0009
    --------------------------------------------
      LOOP:  cpu time    1.0479: real time    1.0487

 eigenvalue-minimisations  :  4016
 total energy-change (2. order) :-0.6068667E-03  (-0.1195835E-01)
 number of electron      28.0000012 magnetization       0.0000000
 augmentation part        4.6591326 magnetization      -0.0000045

 Broyden mixing:
  rms(total) = 0.34262E-01    rms(broyden)= 0.34130E-01
  rms(prec ) = 0.43478E-01
  weight for this iteration     100.00

 eigenvalues of (default mixing * dielectric matrix)
  average eigenvalue GAMMA=   1.3494
  1.8608  1.7275  0.4598

 Free energy of the ion-electron system (eV)
  ---------------------------------------------------
  alpha Z        PSCENC =        20.50366002
  Ewald energy   TEWEN  =      -836.20080173
  -Hartree energ DENC   =      -255.71882656
  -exchange      EXHF   =         0.00000000
  -V(xc)+E(xc)   XCENC  =        81.40671749
  PAW double counting   =      1454.18932637    -1531.70501447
  entropy T*S    EENTRO =         0.00000000
  eigenvalues    EBANDS =      -529.11681549
  atomic energy  EATOM  =      1568.72097452
  Solvation  Ediel_sol  =         0.00000000
  ---------------------------------------------------
  free energy    TOTEN  =       -27.92077986 eV

  energy without entropy =      -27.92077986  energy(sigma->0) =      -27.92077986


--------------------------------------------------------------------------------------------------------




--------------------------------------- Iteration      1(   9)  ---------------------------------------


    POTLOK:  cpu time    0.0253: real time    0.0255
    SETDIJ:  cpu time    0.2518: real time    0.2519
    EDDIAG:  cpu time    0.1432: real time    0.1433
  RMM-DIIS:  cpu time    0.5865: real time    0.5875
    ORTHCH:  cpu time    0.0150: real time    0.0150
 BZINTS: Fermi energy:  2.668498; 28.000000 electrons
         Band energy:-528.733586;  BLOECHL correction:  0.000000
       DOS:  cpu time    0.0040: real time    0.0040
    CHARGE:  cpu time    0.0454: real time    0.0454
    MIXING:  cpu time    0.0007: real time    0.0007
    --------------------------------------------
      LOOP:  cpu time    1.0719: real time    1.0733

 eigenvalue-minimisations  :  4212
 total energy-change (2. order) :-0.4733151E-02  (-0.4981466E-02)
 number of electron      28.0000012 magnetization      -0.0000000
 augmentation part        4.6393881 magnetization      -0.0001751

 Broyden mixing:
  rms(total) = 0.24322E-01    rms(broyden)= 0.24188E-01
  rms(prec ) = 0.30338E-01
  weight for this iteration     100.00

 eigenvalues of (default mixing * dielectric matrix)
  average eigenvalue GAMMA=   1.8208
  2.4849  2.4849  1.0079  1.3054

 Free energy of the ion-electron system (eV)
  ---------------------------------------------------
  alpha Z        PSCENC =        20.50366002
  Ewald energy   TEWEN  =      -836.20080173
  -Hartree energ DENC   =      -256.13171801
  -exchange      EXHF   =         0.00000000
  -V(xc)+E(xc)   XCENC  =        81.45763073
  PAW double counting   =      1443.15923924    -1520.70091219
  entropy T*S    EENTRO =         0.00000000
  eigenvalues    EBANDS =      -528.73358558
  atomic energy  EATOM  =      1568.72097452
  Solvation  Ediel_sol  =         0.00000000
  ---------------------------------------------------
  free energy    TOTEN  =       -27.92551302 eV

  energy without entropy =      -27.92551302  energy(sigma->0) =      -27.92551302


--------------------------------------------------------------------------------------------------------




--------------------------------------- Iteration      1(  10)  ---------------------------------------


    POTLOK:  cpu time    0.0248: real time    0.0249
    SETDIJ:  cpu time    0.2509: real time    0.2511
    EDDIAG:  cpu time    0.1426: real time    0.1427
  RMM-DIIS:  cpu time    0.4876: real time    0.4879
    ORTHCH:  cpu time    0.0148: real time    0.0148
 BZINTS: Fermi energy:  2.667705; 28.000000 electrons
         Band energy:-528.446182;  BLOECHL correction:  0.000000
       DOS:  cpu time    0.0040: real time    0.0040
    CHARGE:  cpu time    0.0455: real time    0.0454
    MIXING:  cpu time    0.0007: real time    0.0007
    --------------------------------------------
      LOOP:  cpu time    0.9708: real time    0.9714

 eigenvalue-minimisations  :  3667
 total energy-change (2. order) :-0.1559268E-02  (-0.1669471E-02)
 number of electron      28.0000012 magnetization      -0.0000000
 augmentation part        4.6296772 magnetization      -0.0000131

 Broyden mixing:
  rms(total) = 0.66727E-02    rms(broyden)= 0.65659E-02
  rms(prec ) = 0.10871E-01
  weight for this iteration     100.00

 eigenvalues of (default mixing * dielectric matrix)
  average eigenvalue GAMMA=   1.7495
  2.6086  2.6086  1.4121  1.4121  0.7061

 Free energy of the ion-electron system (eV)
  ---------------------------------------------------
  alpha Z        PSCENC =        20.50366002
  Ewald energy   TEWEN  =      -836.20080173
  -Hartree energ DENC   =      -256.54819024
  -exchange      EXHF   =         0.00000000
  -V(xc)+E(xc)   XCENC  =        81.50150141
  PAW double counting   =      1412.25156828    -1489.70960222
  entropy T*S    EENTRO =         0.00000000
  eigenvalues    EBANDS =      -528.44618231
  atomic energy  EATOM  =      1568.72097452
  Solvation  Ediel_sol  =         0.00000000
  ---------------------------------------------------
  free energy    TOTEN  =       -27.92707228 eV

  energy without entropy =      -27.92707228  energy(sigma->0) =      -27.92707228


--------------------------------------------------------------------------------------------------------




--------------------------------------- Iteration      1(  11)  ---------------------------------------


    POTLOK:  cpu time    0.0241: real time    0.0242
    SETDIJ:  cpu time    0.2509: real time    0.2510
    EDDIAG:  cpu time    0.1426: real time    0.1426
  RMM-DIIS:  cpu time    0.4471: real time    0.4473
    ORTHCH:  cpu time    0.0148: real time    0.0148
 BZINTS: Fermi energy:  2.669718; 28.000000 electrons
         Band energy:-528.385796;  BLOECHL correction:  0.000000
       DOS:  cpu time    0.0040: real time    0.0040
    CHARGE:  cpu time    0.0454: real time    0.0454
    MIXING:  cpu time    0.0007: real time    0.0007
    --------------------------------------------
      LOOP:  cpu time    0.9295: real time    0.9301

 eigenvalue-minimisations  :  3372
 total energy-change (2. order) :-0.7190058E-03  (-0.8563193E-03)
 number of electron      28.0000012 magnetization      -0.0000000
 augmentation part        4.6241297 magnetization      -0.0001676

 Broyden mixing:
  rms(total) = 0.42877E-02    rms(broyden)= 0.41991E-02
  rms(prec ) = 0.47572E-02
  weight for this iteration     100.00

 eigenvalues of (default mixing * dielectric matrix)
  average eigenvalue GAMMA=   1.7275
  3.1691  2.0862  2.0862  1.1936  1.1936  0.6365

 Free energy of the ion-electron system (eV)
  ---------------------------------------------------
  alpha Z        PSCENC =        20.50366002
  Ewald energy   TEWEN  =      -836.20080173
  -Hartree energ DENC   =      -256.62632298
  -exchange      EXHF   =         0.00000000
  -V(xc)+E(xc)   XCENC  =        81.51209542
  PAW double counting   =      1421.89916912    -1499.35077007
  entropy T*S    EENTRO =         0.00000000
  eigenvalues    EBANDS =      -528.38579559
  atomic energy  EATOM  =      1568.72097452
  Solvation  Ediel_sol  =         0.00000000
  ---------------------------------------------------
  free energy    TOTEN  =       -27.92779129 eV

  energy without entropy =      -27.92779129  energy(sigma->0) =      -27.92779129


--------------------------------------------------------------------------------------------------------




--------------------------------------- Iteration      1(  12)  ---------------------------------------


    POTLOK:  cpu time    0.0241: real time    0.0242
    SETDIJ:  cpu time    0.2509: real time    0.2510
    EDDIAG:  cpu time    0.1424: real time    0.1425
  RMM-DIIS:  cpu time    0.4432: real time    0.4435
    ORTHCH:  cpu time    0.0148: real time    0.0148
 BZINTS: Fermi energy:  2.670143; 28.000000 electrons
         Band energy:-528.323315;  BLOECHL correction:  0.000000
       DOS:  cpu time    0.0040: real time    0.0040
    CHARGE:  cpu time    0.0454: real time    0.0453
    MIXING:  cpu time    0.0007: real time    0.0007
    --------------------------------------------
      LOOP:  cpu time    0.9255: real time    0.9261

 eigenvalue-minimisations  :  3349
 total energy-change (2. order) :-0.4999793E-03  (-0.4880116E-03)
 number of electron      28.0000012 magnetization      -0.0000000
 augmentation part        4.6200244 magnetization      -0.0000675

 Broyden mixing:
  rms(total) = 0.43792E-02    rms(broyden)= 0.43355E-02
  rms(prec ) = 0.60516E-02
  weight for this iteration     100.00

 eigenvalues of (default mixing * dielectric matrix)
  average eigenvalue GAMMA=   1.7899
  3.7133  2.5185  2.5185  1.2698  1.2698  0.6478  0.5915

 Free energy of the ion-electron system (eV)
  ---------------------------------------------------
  alpha Z        PSCENC =        20.50366002
  Ewald energy   TEWEN  =      -836.20080173
  -Hartree energ DENC   =      -256.72914146
  -exchange      EXHF   =         0.00000000
  -V(xc)+E(xc)   XCENC  =        81.52230862
  PAW double counting   =      1422.40106663    -1499.82304285
  entropy T*S    EENTRO =         0.00000000
  eigenvalues    EBANDS =      -528.32331501
  atomic energy  EATOM  =      1568.72097452
  Solvation  Ediel_sol  =         0.00000000
  ---------------------------------------------------
  free energy    TOTEN  =       -27.92829127 eV

  energy without entropy =      -27.92829127  energy(sigma->0) =      -27.92829127


--------------------------------------------------------------------------------------------------------




--------------------------------------- Iteration      1(  13)  ---------------------------------------


    POTLOK:  cpu time    0.0241: real time    0.0242
    SETDIJ:  cpu time    0.2510: real time    0.2511
    EDDIAG:  cpu time    0.1423: real time    0.1424
  RMM-DIIS:  cpu time    0.4428: real time    0.4430
    ORTHCH:  cpu time    0.0148: real time    0.0148
 BZINTS: Fermi energy:  2.668374; 28.000000 electrons
         Band energy:-528.301526;  BLOECHL correction:  0.000000
       DOS:  cpu time    0.0040: real time    0.0040
    CHARGE:  cpu time    0.0453: real time    0.0453
    MIXING:  cpu time    0.0008: real time    0.0008
    --------------------------------------------
      LOOP:  cpu time    0.9251: real time    0.9256

 eigenvalue-minimisations  :  3340
 total energy-change (2. order) :-0.1516107E-03  (-0.1945031E-03)
 number of electron      28.0000012 magnetization      -0.0000000
 augmentation part        4.6178614 magnetization      -0.0000563

 Broyden mixing:
  rms(total) = 0.19757E-02    rms(broyden)= 0.19504E-02
  rms(prec ) = 0.29720E-02
  weight for this iteration     100.00

 eigenvalues of (default mixing * dielectric matrix)
  average eigenvalue GAMMA=   1.7988
  4.5659  2.6478  2.6478  1.3929  1.1698  0.6609  0.6609  0.6442

 Free energy of the ion-electron system (eV)
  ---------------------------------------------------
  alpha Z        PSCENC =        20.50366002
  Ewald energy   TEWEN  =      -836.20080173
  -Hartree energ DENC   =      -256.81292910
  -exchange      EXHF   =         0.00000000
  -V(xc)+E(xc)   XCENC  =        81.52873055
  PAW double counting   =      1423.36565964    -1500.73221054
  entropy T*S    EENTRO =         0.00000000
  eigenvalues    EBANDS =      -528.30152623
  atomic energy  EATOM  =      1568.72097452
  Solvation  Ediel_sol  =         0.00000000
  ---------------------------------------------------
  free energy    TOTEN  =       -27.92844288 eV

  energy without entropy =      -27.92844288  energy(sigma->0) =      -27.92844288


--------------------------------------------------------------------------------------------------------




--------------------------------------- Iteration      1(  14)  ---------------------------------------


    POTLOK:  cpu time    0.0241: real time    0.0242
    SETDIJ:  cpu time    0.2508: real time    0.2510
    EDDIAG:  cpu time    0.1443: real time    0.1450
  RMM-DIIS:  cpu time    0.4298: real time    0.4300
    ORTHCH:  cpu time    0.0147: real time    0.0147
 BZINTS: Fermi energy:  2.666226; 28.000000 electrons
         Band energy:-528.298338;  BLOECHL correction:  0.000000
       DOS:  cpu time    0.0040: real time    0.0040
    CHARGE:  cpu time    0.0456: real time    0.0456
    MIXING:  cpu time    0.0008: real time    0.0008
    --------------------------------------------
      LOOP:  cpu time    0.9141: real time    0.9153

 eigenvalue-minimisations  :  3160
 total energy-change (2. order) :-0.9299189E-04  (-0.1089580E-03)
 number of electron      28.0000012 magnetization      -0.0000000
 augmentation part        4.6167086 magnetization      -0.0000323

 Broyden mixing:
  rms(total) = 0.12966E-02    rms(broyden)= 0.12851E-02
  rms(prec ) = 0.17948E-02
  weight for this iteration     100.00

 eigenvalues of (default mixing * dielectric matrix)
  average eigenvalue GAMMA=   1.7787
  4.5088  2.9475  2.3356  1.5015  1.4698  1.0120  1.0120  0.6339  0.5876

 Free energy of the ion-electron system (eV)
  ---------------------------------------------------
  alpha Z        PSCENC =        20.50366002
  Ewald energy   TEWEN  =      -836.20080173
  -Hartree energ DENC   =      -256.83061068
  -exchange      EXHF   =         0.00000000
  -V(xc)+E(xc)   XCENC  =        81.52986639
  PAW double counting   =      1422.71107689    -1500.06436311
  entropy T*S    EENTRO =         0.00000000
  eigenvalues    EBANDS =      -528.29833817
  atomic energy  EATOM  =      1568.72097452
  Solvation  Ediel_sol  =         0.00000000
  ---------------------------------------------------
  free energy    TOTEN  =       -27.92853587 eV

  energy without entropy =      -27.92853587  energy(sigma->0) =      -27.92853587


--------------------------------------------------------------------------------------------------------




--------------------------------------- Iteration      1(  15)  ---------------------------------------


    POTLOK:  cpu time    0.0244: real time    0.0250
    SETDIJ:  cpu time    0.2507: real time    0.2512
    EDDIAG:  cpu time    0.1424: real time    0.1425
  RMM-DIIS:  cpu time    0.3997: real time    0.4000
    ORTHCH:  cpu time    0.0148: real time    0.0148
 BZINTS: Fermi energy:  2.664338; 28.000000 electrons
         Band energy:-528.297264;  BLOECHL correction:  0.000000
       DOS:  cpu time    0.0040: real time    0.0040
    CHARGE:  cpu time    0.0453: real time    0.0453
    MIXING:  cpu time    0.0008: real time    0.0008
    --------------------------------------------
      LOOP:  cpu time    0.8822: real time    0.8835

 eigenvalue-minimisations  :  2796
 total energy-change (2. order) :-0.6010110E-04  (-0.6624799E-04)
 number of electron      28.0000012 magnetization      -0.0000000
 augmentation part        4.6160568 magnetization      -0.0000401

 Broyden mixing:
  rms(total) = 0.89136E-03    rms(broyden)= 0.88578E-03
  rms(prec ) = 0.10787E-02
  weight for this iteration     100.00

 eigenvalues of (default mixing * dielectric matrix)
  average eigenvalue GAMMA=   1.8633
  5.2895  3.2026  2.4133  2.4133  1.4341  1.1258  0.8716  0.6492  0.6492  0.5847

 Free energy of the ion-electron system (eV)
  ---------------------------------------------------
  alpha Z        PSCENC =        20.50366002
  Ewald energy   TEWEN  =      -836.20080173
  -Hartree energ DENC   =      -256.83422557
  -exchange      EXHF   =         0.00000000
  -V(xc)+E(xc)   XCENC  =        81.53045309
  PAW double counting   =      1422.43668110    -1499.78807329
  entropy T*S    EENTRO =         0.00000000
  eigenvalues    EBANDS =      -528.29726410
  atomic energy  EATOM  =      1568.72097452
  Solvation  Ediel_sol  =         0.00000000
  ---------------------------------------------------
  free energy    TOTEN  =       -27.92859597 eV

  energy without entropy =      -27.92859597  energy(sigma->0) =      -27.92859597


--------------------------------------------------------------------------------------------------------




--------------------------------------- Iteration      1(  16)  ---------------------------------------


    POTLOK:  cpu time    0.0244: real time    0.0245
    SETDIJ:  cpu time    0.2508: real time    0.2509
    EDDIAG:  cpu time    0.1425: real time    0.1426
  RMM-DIIS:  cpu time    0.3902: real time    0.3904
    ORTHCH:  cpu time    0.0147: real time    0.0147
 BZINTS: Fermi energy:  2.662841; 28.000000 electrons
         Band energy:-528.292931;  BLOECHL correction:  0.000000
       DOS:  cpu time    0.0040: real time    0.0040
    CHARGE:  cpu time    0.0453: real time    0.0454
    MIXING:  cpu time    0.0012: real time    0.0012
    --------------------------------------------
      LOOP:  cpu time    0.8733: real time    0.8738

 eigenvalue-minimisations  :  2737
 total energy-change (2. order) :-0.3474522E-04  (-0.3802337E-04)
 number of electron      28.0000012 magnetization      -0.0000000
 augmentation part        4.6156896 magnetization      -0.0000204

 Broyden mixing:
  rms(total) = 0.39339E-03    rms(broyden)= 0.38893E-03
  rms(prec ) = 0.44254E-03
  weight for this iteration     100.00

 eigenvalues of (default mixing * dielectric matrix)
  average eigenvalue GAMMA=   1.7972
  5.0743  3.2421  2.4533  2.4533  1.4044  1.2009  0.9792  0.9792  0.7668  0.6345
  0.5809

 Free energy of the ion-electron system (eV)
  ---------------------------------------------------
  alpha Z        PSCENC =        20.50366002
  Ewald energy   TEWEN  =      -836.20080173
  -Hartree energ DENC   =      -256.84813477
  -exchange      EXHF   =         0.00000000
  -V(xc)+E(xc)   XCENC  =        81.53182656
  PAW double counting   =      1422.58694500    -1499.93016959
  entropy T*S    EENTRO =         0.00000000
  eigenvalues    EBANDS =      -528.29293072
  atomic energy  EATOM  =      1568.72097452
  Solvation  Ediel_sol  =         0.00000000
  ---------------------------------------------------
  free energy    TOTEN  =       -27.92863072 eV

  energy without entropy =      -27.92863072  energy(sigma->0) =      -27.92863072


--------------------------------------------------------------------------------------------------------




--------------------------------------- Iteration      1(  17)  ---------------------------------------


    POTLOK:  cpu time    0.0242: real time    0.0242
    SETDIJ:  cpu time    0.2509: real time    0.2511
    EDDIAG:  cpu time    0.1426: real time    0.1427
  RMM-DIIS:  cpu time    0.3720: real time    0.3724
    ORTHCH:  cpu time    0.0147: real time    0.0147
 BZINTS: Fermi energy:  2.661665; 28.000000 electrons
         Band energy:-528.292294;  BLOECHL correction:  0.000000
       DOS:  cpu time    0.0040: real time    0.0040
    CHARGE:  cpu time    0.0453: real time    0.0454
    MIXING:  cpu time    0.0010: real time    0.0010
    --------------------------------------------
      LOOP:  cpu time    0.8548: real time    0.8555

 eigenvalue-minimisations  :  2450
 total energy-change (2. order) :-0.2469311E-04  (-0.2572067E-04)
 number of electron      28.0000012 magnetization      -0.0000000
 augmentation part        4.6154724 magnetization      -0.0000186

 Broyden mixing:
  rms(total) = 0.36331E-03    rms(broyden)= 0.36114E-03
  rms(prec ) = 0.44884E-03
  weight for this iteration     100.00

 eigenvalues of (default mixing * dielectric matrix)
  average eigenvalue GAMMA=   1.8404
  5.8669  3.3073  2.4617  2.4617  1.7107  1.7107  1.0604  1.0604  0.6900  0.6364
  0.6032  0.5152

 Free energy of the ion-electron system (eV)
  ---------------------------------------------------
  alpha Z        PSCENC =        20.50366002
  Ewald energy   TEWEN  =      -836.20080173
  -Hartree energ DENC   =      -256.85336765
  -exchange      EXHF   =         0.00000000
  -V(xc)+E(xc)   XCENC  =        81.53235862
  PAW double counting   =      1422.82409741    -1500.16328275
  entropy T*S    EENTRO =         0.00000000
  eigenvalues    EBANDS =      -528.29229384
  atomic energy  EATOM  =      1568.72097452
  Solvation  Ediel_sol  =         0.00000000
  ---------------------------------------------------
  free energy    TOTEN  =       -27.92865541 eV

  energy without entropy =      -27.92865541  energy(sigma->0) =      -27.92865541


--------------------------------------------------------------------------------------------------------




--------------------------------------- Iteration      1(  18)  ---------------------------------------


    POTLOK:  cpu time    0.0243: real time    0.0267
    SETDIJ:  cpu time    0.2509: real time    0.2511
    EDDIAG:  cpu time    0.1427: real time    0.1428
  RMM-DIIS:  cpu time    0.3585: real time    0.3587
    ORTHCH:  cpu time    0.0147: real time    0.0147
 BZINTS: Fermi energy:  2.660403; 28.000000 electrons
         Band energy:-528.290854;  BLOECHL correction:  0.000000
       DOS:  cpu time    0.0040: real time    0.0040
    CHARGE:  cpu time    0.0453: real time    0.0454
    MIXING:  cpu time    0.0010: real time    0.0010
    --------------------------------------------
      LOOP:  cpu time    0.8424: real time    0.8444

 eigenvalue-minimisations  :  2326
 total energy-change (2. order) :-0.1313666E-04  (-0.1495495E-04)
 number of electron      28.0000012 magnetization      -0.0000000
 augmentation part        4.6153849 magnetization      -0.0000129

 Broyden mixing:
  rms(total) = 0.93428E-04    rms(broyden)= 0.90635E-04
  rms(prec ) = 0.14145E-03
  weight for this iteration     100.00

 eigenvalues of (default mixing * dielectric matrix)
  average eigenvalue GAMMA=   1.8251
  4.4312  4.4312  2.7554  2.7554  2.1757  1.5703  1.0793  1.0793  0.7546  0.7546
  0.7269  0.6304  0.5821

 Free energy of the ion-electron system (eV)
  ---------------------------------------------------
  alpha Z        PSCENC =        20.50366002
  Ewald energy   TEWEN  =      -836.20080173
  -Hartree energ DENC   =      -256.86162165
  -exchange      EXHF   =         0.00000000
  -V(xc)+E(xc)   XCENC  =        81.53314116
  PAW double counting   =      1422.89583221    -1500.22899871
  entropy T*S    EENTRO =         0.00000000
  eigenvalues    EBANDS =      -528.29085435
  atomic energy  EATOM  =      1568.72097452
  Solvation  Ediel_sol  =         0.00000000
  ---------------------------------------------------
  free energy    TOTEN  =       -27.92866855 eV

  energy without entropy =      -27.92866855  energy(sigma->0) =      -27.92866855


--------------------------------------------------------------------------------------------------------




--------------------------------------- Iteration      1(  19)  ---------------------------------------


    POTLOK:  cpu time    0.0242: real time    0.0243
    SETDIJ:  cpu time    0.2509: real time    0.2510
    EDDIAG:  cpu time    0.1425: real time    0.1425
  RMM-DIIS:  cpu time    0.3464: real time    0.3466
    ORTHCH:  cpu time    0.0147: real time    0.0147
 BZINTS: Fermi energy:  2.659213; 28.000000 electrons
         Band energy:-528.293306;  BLOECHL correction:  0.000000
       DOS:  cpu time    0.0040: real time    0.0040
    CHARGE:  cpu time    0.0453: real time    0.0453
    MIXING:  cpu time    0.0010: real time    0.0011
    --------------------------------------------
      LOOP:  cpu time    0.8281: real time    0.8295

 eigenvalue-minimisations  :  2302
 total energy-change (2. order) :-0.1088644E-04  (-0.1141657E-04)
 number of electron      28.0000012 magnetization      -0.0000000
 augmentation part        4.6152979 magnetization       0.0000003

 Broyden mixing:
  rms(total) = 0.23515E-03    rms(broyden)= 0.23437E-03
  rms(prec ) = 0.28800E-03
  weight for this iteration     100.00

 eigenvalues of (default mixing * dielectric matrix)
  average eigenvalue GAMMA=   1.7350
  4.6593  4.6593  2.7442  2.7442  2.1400  1.5798  1.0834  1.0834  0.7605  0.7605
  0.7232  0.6291  0.5815  0.1413

 Free energy of the ion-electron system (eV)
  ---------------------------------------------------
  alpha Z        PSCENC =        20.50366002
  Ewald energy   TEWEN  =      -836.20080173
  -Hartree energ DENC   =      -256.85699488
  -exchange      EXHF   =         0.00000000
  -V(xc)+E(xc)   XCENC  =        81.53266851
  PAW double counting   =      1422.82994122    -1500.16482113
  entropy T*S    EENTRO =         0.00000000
  eigenvalues    EBANDS =      -528.29330596
  atomic energy  EATOM  =      1568.72097452
  Solvation  Ediel_sol  =         0.00000000
  ---------------------------------------------------
  free energy    TOTEN  =       -27.92867943 eV

  energy without entropy =      -27.92867943  energy(sigma->0) =      -27.92867943


--------------------------------------------------------------------------------------------------------




--------------------------------------- Iteration      1(  20)  ---------------------------------------


    POTLOK:  cpu time    0.0243: real time    0.0244
    SETDIJ:  cpu time    0.2509: real time    0.2510
    EDDIAG:  cpu time    0.1425: real time    0.1426
  RMM-DIIS:  cpu time    0.3608: real time    0.3610
    ORTHCH:  cpu time    0.0149: real time    0.0149
 BZINTS: Fermi energy:  2.658076; 28.000000 electrons
         Band energy:-528.292754;  BLOECHL correction:  0.000000
       DOS:  cpu time    0.0041: real time    0.0042
    --------------------------------------------
      LOOP:  cpu time    0.7975: real time    0.7982

 eigenvalue-minimisations  :  2282
 total energy-change (2. order) :-0.6777636E-05  (-0.8089107E-05)
 number of electron      28.0000012 magnetization      -0.0000000
 augmentation part        4.6152979 magnetization       0.0000003

 Free energy of the ion-electron system (eV)
  ---------------------------------------------------
  alpha Z        PSCENC =        20.50366002
  Ewald energy   TEWEN  =      -836.20080173
  -Hartree energ DENC   =      -256.85994364
  -exchange      EXHF   =         0.00000000
  -V(xc)+E(xc)   XCENC  =        81.53295604
  PAW double counting   =      1422.85292559    -1500.18570316
  entropy T*S    EENTRO =         0.00000000
  eigenvalues    EBANDS =      -528.29275384
  atomic energy  EATOM  =      1568.72097452
  Solvation  Ediel_sol  =         0.00000000
  ---------------------------------------------------
  free energy    TOTEN  =       -27.92868621 eV

  energy without entropy =      -27.92868621  energy(sigma->0) =      -27.92868621


--------------------------------------------------------------------------------------------------------




 average (electrostatic) potential at core
  the test charge radii are     0.7079  0.9587
  (the norm of the test charge is              1.0000)
       1 -61.6735       2 -61.6735       3 -62.0193       4 -62.0193       5 -62.0193
       6 -62.0193       7 -84.3489       8 -84.3490
 
 
 
 E-fermi :   2.6581     XC(G=0):  -8.5683     alpha+bet :-11.3830


 spin component 1

 k-point     1 :       0.0000    0.0000    0.0000
  band No.  band energies     occupation 
      1     -42.9599      1.00000
      2     -42.9345      1.00000
      3     -42.9309      1.00000
      4     -42.9059      1.00000
      5     -42.5810      1.00000
      6     -42.5808      1.00000
      7      -6.7167      1.00000
      8      -6.3370      1.00000
      9      -0.7288      1.00000
     10       1.9974      1.00000
     11       2.1538      1.00000
     12       2.1538      1.00000
     13       2.5618      1.00000
     14       2.5618      1.00000
     15       4.9268      0.00000
     16       6.4383      0.00000
     17       6.4909      0.00000
     18       6.5007      0.00000
     19       6.8337      0.00000
     20       6.8340      0.00000

 k-point     2 :       0.1111    0.0000    0.0000
  band No.  band energies     occupation 
      1     -42.9591      1.00000
      2     -42.9337      1.00000
      3     -42.9316      1.00000
      4     -42.9067      1.00000
      5     -42.5811      1.00000
      6     -42.5809      1.00000
      7      -6.6681      1.00000
      8      -6.3031      1.00000
      9      -0.6400      1.00000
     10       1.6699      1.00000
     11       1.9045      1.00000
     12       1.9812      1.00000
     13       2.1279      1.00000
     14       2.4750      1.00000
     15       5.1195      0.00000
     16       6.2741      0.00000
     17       6.6760      0.00000
     18       6.8551      0.00000
     19       7.2855      0.00000
     20       7.3659      0.00000

 k-point     3 :       0.2222   -0.0000    0.0000
  band No.  band energies     occupation 
      1     -42.9565      1.00000
      2     -42.9334      1.00000
      3     -42.9315      1.00000
      4     -42.9089      1.00000
      5     -42.5814      1.00000
      6     -42.5811      1.00000
      7      -6.5346      1.00000
      8      -6.2161      1.00000
      9      -0.3774      1.00000
     10       0.7536      1.00000
     11       1.3126      1.00000
     12       1.4622      1.00000
     13       1.9009      1.00000
     14       2.2048      1.00000
     15       5.2540      0.00000
     16       6.0677      0.00000
     17       6.4966      0.00000
     18       6.8118      0.00000
     19       7.2398      0.00000
     20       7.9697      0.00000

 k-point     4 :       0.3333    0.0000    0.0000
  band No.  band energies     occupation 
      1     -42.9528      1.00000
      2     -42.9362      1.00000
      3     -42.9284      1.00000
      4     -42.9119      1.00000
      5     -42.5817      1.00000
      6     -42.5814      1.00000
      7      -6.3560      1.00000
      8      -6.1198      1.00000
      9      -0.0423      1.00000
     10       0.0422      1.00000
     11       0.5825      1.00000
     12       1.0942      1.00000
     13       1.6687      1.00000
     14       1.9215      1.00000
     15       5.1128      0.00000
     16       5.3224      0.00000
     17       6.6538      0.00000
     18       6.7588      0.00000
     19       7.1507      0.00000
     20       8.4116      0.00000

 k-point     5 :       0.4444   -0.0000    0.0000
  band No.  band energies     occupation 
      1     -42.9496      1.00000
      2     -42.9389      1.00000
      3     -42.9254      1.00000
[...]
      4     -42.8564      1.00000
      5     -42.5237      1.00000
      6     -42.5237      1.00000
      7      -6.5150      1.00000
      8      -6.5150      1.00000
      9       0.3381      1.00000
     10       0.3381      1.00000
     11       2.3987      1.00000
     12       2.3987      1.00000
     13       2.3987      1.00000
     14       2.3987      1.00000
     15       6.3759      0.00000
     16       6.3759      0.00000
     17       6.4687      0.00000
     18       6.4687      0.00000
     19       6.4687      0.00000
     20       6.4687      0.00000

 k-point    26 :       0.1111    0.0000    0.5000
  band No.  band energies     occupation 
      1     -42.8950      1.00000
      2     -42.8950      1.00000
      3     -42.8570      1.00000
      4     -42.8570      1.00000
      5     -42.5238      1.00000
      6     -42.5238      1.00000
      7      -6.4722      1.00000
      8      -6.4721      1.00000
      9       0.3818      1.00000
     10       0.3818      1.00000
     11       1.9736      1.00000
     12       1.9736      1.00000
     13       2.2106      1.00000
     14       2.2106      1.00000
     15       6.2016      0.00000
     16       6.2016      0.00000
     17       6.7758      0.00000
     18       6.7759      0.00000
     19       6.8647      0.00000
     20       6.8647      0.00000

 k-point    27 :       0.2222   -0.0000    0.5000
  band No.  band energies     occupation 
      1     -42.8930      1.00000
      2     -42.8930      1.00000
      3     -42.8585      1.00000
      4     -42.8585      1.00000
      5     -42.5241      1.00000
      6     -42.5241      1.00000
      7      -6.3574      1.00000
      8      -6.3574      1.00000
      9       0.4153      1.00000
     10       0.4153      1.00000
     11       1.2616      1.00000
     12       1.2616      1.00000
     13       1.8273      1.00000
     14       1.8273      1.00000
     15       5.6843      0.00000
     16       5.6843      0.00000
     17       7.1632      0.00000
     18       7.1632      0.00000
     19       7.7492      0.00000
     20       7.7492      0.00000

 k-point    28 :       0.3333    0.0000    0.5000
  band No.  band energies     occupation 
      1     -42.8905      1.00000
      2     -42.8905      1.00000
      3     -42.8604      1.00000
      4     -42.8604      1.00000
      5     -42.5244      1.00000
      6     -42.5244      1.00000
      7      -6.2136      1.00000
      8      -6.2136      1.00000
      9       0.0520      1.00000
     10       0.0520      1.00000
     11       1.1124      1.00000
     12       1.1124      1.00000
     13       1.4860      1.00000
     14       1.4860      1.00000
     15       5.0744      0.00000
     16       5.0744      0.00000
     17       7.1467      0.00000
     18       7.1467      0.00000
     19       8.1897      0.00000
     20       8.1897      0.00000

 k-point    29 :       0.4444   -0.0000    0.5000
  band No.  band energies     occupation 
      1     -42.8888      1.00000
      2     -42.8888      1.00000
      3     -42.8619      1.00000
      4     -42.8618      1.00000
      5     -42.5246      1.00000
      6     -42.5246      1.00000
      7      -6.1103      1.00000
      8      -6.1103      1.00000
      9      -0.3240      1.00000
     10      -0.3240      1.00000
     11       1.2571      1.00000
     12       1.2571      1.00000
     13       1.2969      1.00000
     14       1.2969      1.00000
     15       4.6318      0.00000
     16       4.6318      0.00000
     17       7.0730      0.00000
     18       7.0730      0.00000
     19       8.1284      0.00000
     20       8.1284      0.00000

 k-point    30 :       0.1111    0.1111    0.5000
  band No.  band energies     occupation 
      1     -42.8936      1.00000
      2     -42.8936      1.00000
      3     -42.8580      1.00000
      4     -42.8580      1.00000
      5     -42.5240      1.00000
      6     -42.5240      1.00000
      7      -6.3932      1.00000
      8      -6.3932      1.00000
      9       0.4314      1.00000
     10       0.4314      1.00000
     11       1.4639      1.00000
     12       1.4639      1.00000
     13       1.8670      1.00000
     14       1.8670      1.00000
     15       6.1266      0.00000
     16       6.1266      0.00000
     17       6.6502      0.00000
     18       6.6502      0.00000
     19       7.7222      0.00000
     20       7.7223      0.00000

 k-point    31 :       0.2222    0.1111    0.5000
  band No.  band energies     occupation 
      1     -42.8914      1.00000
      2     -42.8914      1.00000
      3     -42.8597      1.00000
      4     -42.8597      1.00000
      5     -42.5243      1.00000
      6     -42.5243      1.00000
      7      -6.2624      1.00000
      8      -6.2624      1.00000
      9       0.2737      1.00000
     10       0.2737      1.00000
     11       1.1110      1.00000
     12       1.1110      1.00000
     13       1.4404      1.00000
     14       1.4404      1.00000
     15       5.5906      0.00000
     16       5.5906      0.00000
     17       7.0756      0.00000
     18       7.0756      0.00000
     19       7.9063      0.00000
     20       7.9063      0.00000

 k-point    32 :       0.3333    0.1111    0.5000
  band No.  band energies     occupation 
      1     -42.8892      1.00000
      2     -42.8892      1.00000
      3     -42.8615      1.00000
      4     -42.8615      1.00000
      5     -42.5246      1.00000
      6     -42.5245      1.00000
      7      -6.1356      1.00000
      8      -6.1356      1.00000
      9      -0.1450      1.00000
     10      -0.1450      1.00000
     11       1.1100      1.00000
     12       1.1100      1.00000
     13       1.2400      1.00000
     14       1.2400      1.00000
     15       5.0266      0.00000
     16       5.0266      0.00000
     17       7.2645      0.00000
     18       7.2645      0.00000
     19       7.6709      0.00000
     20       7.6709      0.00000

 k-point    33 :       0.4444    0.1111    0.5000
  band No.  band energies     occupation 
      1     -42.8883      1.00000
      2     -42.8883      1.00000
      3     -42.8623      1.00000
      4     -42.8623      1.00000
      5     -42.5247      1.00000
      6     -42.5246      1.00000
      7      -6.0818      1.00000
      8      -6.0818      1.00000
      9      -0.3318      1.00000
     10      -0.3318      1.00000
     11       1.0270      1.00000
     12       1.0270      1.00000
     13       1.3091      1.00000
     14       1.3091      1.00000
     15       4.7870      0.00000
     16       4.7870      0.00000
     17       7.2853      0.00000
     18       7.2853      0.00000
     19       7.5784      0.00000
     20       7.5784      0.00000

 k-point    34 :       0.2222    0.2222    0.5000
  band No.  band energies     occupation 
      1     -42.8894      1.00000
      2     -42.8894      1.00000
      3     -42.8613      1.00000
      4     -42.8613      1.00000
      5     -42.5245      1.00000
      6     -42.5245      1.00000
      7      -6.1456      1.00000
      8      -6.1456      1.00000
      9       0.0108      1.00000
     10       0.0108      1.00000
     11       0.9098      1.00000
     12       0.9098      1.00000
     13       1.2202      1.00000
     14       1.2202      1.00000
     15       5.4145      0.00000
     16       5.4145      0.00000
     17       7.0371      0.00000
     18       7.0372      0.00000
     19       7.9416      0.00000
     20       7.9417      0.00000

 k-point    35 :       0.3333    0.2222    0.5000
  band No.  band energies     occupation 
      1     -42.8880      1.00000
      2     -42.8879      1.00000
      3     -42.8625      1.00000
      4     -42.8625      1.00000
      5     -42.5247      1.00000
      6     -42.5247      1.00000
      7      -6.0634      1.00000
      8      -6.0634      1.00000
      9      -0.1813      1.00000
     10      -0.1813      1.00000
     11       0.6064      1.00000
     12       0.6064      1.00000
     13       1.3400      1.00000
     14       1.3400      1.00000
     15       5.1569      0.00000
     16       5.1569      0.00000
     17       6.8584      0.00000
     18       6.8584      0.00000
     19       8.1901      0.00000
     20       8.1901      0.00000

 k-point    36 :       0.3333    0.3333    0.5000
  band No.  band energies     occupation 
      1     -42.8874      1.00000
      2     -42.8874      1.00000
      3     -42.8629      1.00000
      4     -42.8629      1.00000
      5     -42.5247      1.00000
      6     -42.5247      1.00000
      7      -6.0338      1.00000
      8      -6.0338      1.00000
      9      -0.1084      1.00000
     10      -0.1084      1.00000
     11       0.3135      1.00000
     12       0.3135      1.00000
     13       1.3913      1.00000
     14       1.3913      1.00000
     15       5.2169      0.00000
     16       5.2170      0.00000
     17       6.5902      0.00000
     18       6.5902      0.00000
     19       9.1984      0.00000
     20       9.1988      0.00000


--------------------------------------------------------------------------------------------------------


 soft charge-density along one line, spin component           1
         0         1         2         3         4         5         6         7         8         9
 total charge-density along one line
 
 soft charge-density along one line, spin component           2
         0         1         2         3         4         5         6         7         8         9
 total charge-density along one line
 
 pseudopotential strength for first ion, spin component:           1
-38.987   3.409   0.000  -0.000  -0.000
  3.409  -9.811   0.000  -0.000  -0.000
  0.000   0.000   0.130   0.000   0.000
 -0.000  -0.000   0.000   0.138  -0.000
 -0.000  -0.000   0.000  -0.000   0.130
 pseudopotential strength for first ion, spin component:           2
-38.987   3.409   0.000  -0.000  -0.000
  3.409  -9.811   0.000  -0.000  -0.000
  0.000   0.000   0.130   0.000   0.000
 -0.000  -0.000   0.000   0.138  -0.000
 -0.000  -0.000   0.000  -0.000   0.130
 total augmentation occupancy for first ion, spin component:           1
  2.001   0.008  -0.000   0.000   0.000
  0.008   0.940   0.000  -0.000   0.000
  0.000   0.000   0.045  -0.000   0.000
  0.000   0.000   0.000   0.012  -0.000
  0.000  -0.000   0.000  -0.000   0.045
 total augmentation occupancy for first ion, spin component:           2
 -0.000  -0.000   0.000   0.000  -0.000
 -0.000   0.000   0.000   0.000   0.000
  0.000   0.000   0.000   0.000   0.000
  0.000   0.000   0.000   0.000   0.000
 -0.000   0.000   0.000   0.000   0.000


------------------------ aborting loop because EDIFF is reached ----------------------------------------


 


 total charge     
 
# of ion       s       p       d       tot
------------------------------------------
    1        2.033   0.073   0.000   2.106
    2        2.033   0.073   0.000   2.106
    3        2.025   0.061   0.000   2.085
    4        2.024   0.061   0.000   2.085
    5        2.025   0.061   0.000   2.085
    6        2.024   0.061   0.000   2.085
    7        1.000   1.535   0.000   2.536
    8        1.000   1.535   0.000   2.536
--------------------------------------------------
tot         14.164   3.460   0.000  17.624
 


 magnetization (x)
 
# of ion       s       p       d       tot
------------------------------------------
    1        0.000   0.000   0.000   0.000
    2        0.000   0.000   0.000   0.000
    3        0.000   0.000   0.000   0.000
    4        0.000   0.000   0.000   0.000
    5        0.000   0.000   0.000   0.000
    6        0.000   0.000   0.000   0.000
    7       -0.000  -0.000   0.000  -0.000
    8       -0.000  -0.000   0.000  -0.000
--------------------------------------------------
tot         -0.000   0.000   0.000   0.000
 
    CHARGE:  cpu time    0.0453: real time    0.0453
    FORLOC:  cpu time    0.0014: real time    0.0014
    FORNL :  cpu time    0.1679: real time    0.1680
    STRESS:  cpu time    0.5121: real time    0.5124
    FORCOR:  cpu time    0.0233: real time    0.0233
    FORHAR:  cpu time    0.0031: real time    0.0031
    MIXING:  cpu time    0.0006: real time    0.0006
    OFIELD:  cpu time    0.0000: real time    0.0000

  FORCE on cell =-STRESS in cart. coord.  units (eV):
  Direction    XX          YY          ZZ          XY          YZ          ZX
  --------------------------------------------------------------------------------------
  Alpha Z    20.66042    20.66042    20.66042
  Ewald    -265.05344  -265.05414  -308.21627     0.00000    -0.00000     0.00000
  Hartree    94.15319    94.15306    67.90414     0.00000    -0.00000    -0.00000
  E(xc)    -115.26127  -115.26120  -115.33559    -0.00000     0.00000     0.00000
  Local    -175.27228  -175.27246  -103.51627     0.00000     0.00000     0.00000
  n-local     5.12875     5.68969     4.97376     0.58444     0.12318    -0.09564
  augment    84.41412    84.41495    84.49950     0.00000     0.00000     0.00000
  Kinetic   347.03553   354.88900   349.01987     5.18360     0.44010    -0.35115
  Fock        0.00000     0.00000     0.00000     0.00000     0.00000     0.00000
  -------------------------------------------------------------------------------------
  Total       0.01217     0.01217    -0.01043     0.00000     0.00000    -0.00000
  in kB       0.16708     0.16708    -0.14318     0.00000     0.00000    -0.00000
  external pressure =        0.06 kB  Pullay stress =        0.00 kB


 VOLUME and BASIS-vectors are now :
 -----------------------------------------------------------------------------
  energy-cutoff  :      520.00
  volume of cell :      116.75
      direct lattice vectors                 reciprocal lattice vectors
     2.112421492 -3.658821714  0.000000000     0.236695187 -0.136656016 -0.000000000
     2.112421492  3.658821714 -0.000000000     0.236695187  0.136656016 -0.000000000
     0.000000000  0.000000000  7.552502859     0.000000000  0.000000000  0.132406438

  length of vectors
     4.224843298  4.224843298  7.552502859     0.273312053  0.273312053  0.132406438


 FORCES acting on ions
    electron-ion (+dipol)            ewald-force                    non-local-force                 convergence-correction
 -----------------------------------------------------------------------------------------------
   0.349E-13 0.344E-03 -.173E-06   0.722E-14 0.386E-04 -.181E-14   -.260E-17 0.781E-17 0.136E-19   -.522E-15 -.423E-06 -.322E-09
   -.141E-13 0.300E-03 -.174E-06   -.665E-14 -.386E-04 0.181E-14   -.173E-17 -.954E-17 -.271E-19   -.386E-14 0.406E-06 -.322E-09
   0.125E-06 -.753E-03 0.609E+01   0.994E-15 -.151E-03 -.644E+01   -.865E-18 0.868E-18 0.353E+00   0.262E-14 -.300E-07 -.171E-03
   0.125E-06 0.131E-02 0.609E+01   0.104E-14 0.151E-03 -.644E+01   -.540E-18 -.217E-18 0.353E+00   -.223E-14 0.334E-08 -.171E-03
   -.125E-06 0.136E-02 -.609E+01   -.220E-14 0.151E-03 0.644E+01   0.648E-18 -.290E-21 -.353E+00   0.955E-15 0.746E-08 0.171E-03
   -.125E-06 -.803E-03 -.609E+01   -.339E-15 -.151E-03 0.644E+01   0.648E-18 -.217E-18 -.353E+00   0.268E-14 -.342E-07 0.171E-03
   0.412E-12 -.435E-03 0.623E-06   -.798E-14 -.239E-03 0.408E-14   0.104E-16 -.139E-16 0.477E-17   0.304E-14 0.293E-06 0.317E-09
   -.318E-13 0.591E-03 0.623E-06   0.735E-14 0.239E-03 0.101E-13   0.208E-16 -.139E-16 0.130E-17   -.162E-14 -.283E-06 0.317E-09
 -----------------------------------------------------------------------------------------------
   0.967E-12 0.191E-02 0.536E-05   -.571E-15 -.523E-15 -.355E-14   0.268E-16 -.291E-16 -.494E-16   0.106E-14 -.617E-07 -.150E-08
 
 
 POSITION                                       TOTAL-FORCE (eV/Angst)
 -----------------------------------------------------------------------------------
      0.00000      0.00000      1.88813         0.000000      0.000000     -0.000000
      0.00000      0.00000      5.66438        -0.000000      0.000000     -0.000000
      2.11242      1.21961      4.41145         0.000000     -0.000000      0.000218
      2.11242     -1.21961      0.63520         0.000000      0.000000      0.000218
      2.11242     -1.21961      3.14105        -0.000000     -0.000000     -0.000218
      2.11242      1.21961      6.91730        -0.000000     -0.000000     -0.000218
      2.11242      1.21961      1.88813         0.000000     -0.000000     -0.000000
      2.11242     -1.21961      5.66438        -0.000000      0.000000     -0.000000
 -----------------------------------------------------------------------------------
    total drift:                                0.000000      0.001911      0.000005


--------------------------------------------------------------------------------------------------------



  FREE ENERGIE OF THE ION-ELECTRON SYSTEM (eV)
  ---------------------------------------------------
  free  energy   TOTEN  =       -27.92955540 eV

  energy  without entropy=      -27.92955540  energy(sigma->0) =      -27.92955540
 
 d Force = 0.1376555E-06[-0.445E-07, 0.320E-06]  d Energy = 0.1770281E-03-0.177E-03
 d Force = 0.1315222E-02[ 0.132E-02, 0.131E-02]  d Ewald  = 0.9887603E+00-0.987E+00


--------------------------------------------------------------------------------------------------------


    POTLOK:  cpu time    0.2648: real time    0.2649


--------------------------------------------------------------------------------------------------------




--------------------------------------------------------------------------------------------------------


  
 reached required accuracy - stopping structural energy minimisation
     LOOP+:  cpu time    6.0235: real time    6.0347
    4ORBIT:  cpu time    0.0000: real time    0.0000
 


 total charge     
 
# of ion       s       p       d       tot
------------------------------------------
    1        2.033   0.073   0.000   2.106
    2        2.033   0.073   0.000   2.106
    3        2.025   0.061   0.000   2.085
    4        2.024   0.061   0.000   2.085
    5        2.025   0.061   0.000   2.085
    6        2.024   0.061   0.000   2.085
    7        1.000   1.535   0.000   2.536
    8        1.000   1.535   0.000   2.536
--------------------------------------------------
tot         14.164   3.460   0.000  17.624
 


 magnetization (x)
 
# of ion       s       p       d       tot
------------------------------------------
    1        0.000   0.000   0.000   0.000
    2        0.000   0.000   0.000   0.000
    3        0.000   0.000   0.000   0.000
    4        0.000   0.000   0.000   0.000
    5        0.000   0.000   0.000   0.000
    6        0.000   0.000   0.000   0.000
    7       -0.000  -0.000   0.000  -0.000
    8       -0.000  -0.000   0.000  -0.000
--------------------------------------------------
tot         -0.000   0.000   0.000   0.000
 
 BZINTS: Fermi energy:  2.681617; 28.000000 electrons
         Band energy:-527.103586;  BLOECHL correction:  0.000000

 total amount of memory used by VASP MPI-rank0    37555. kBytes
=======================================================================

   base      :      30000. kBytes
   nonlr-proj:        711. kBytes
   fftplans  :       1042. kBytes
   grid      :       2611. kBytes
   one-center:         12. kBytes
   wavefun   :       3179. kBytes
 
  
  
 General timing and accounting informations for this job:
 ========================================================
  
                  Total CPU time used (sec):       34.044
                            User time (sec):       32.634
                          System time (sec):        1.410
                         Elapsed time (sec):       35.107
  
                   Maximum memory used (kb):       73076.
                   Average memory used (kb):           0.
  
                          Minor page faults:        23936
                          Major page faults:            0
                 Voluntary context switches:        58980
