PROCAR lm decomposed
# of k-points:   36         # of bands:   20         # of ions:    8

 k-point     1 :    0.00000000 0.00000000 0.00000000     weight = 0.00308642

band     1 # energy  -42.90386002 # occ.  1.00000000
 
ion      s     py     pz     px    dxy    dyz    dz2    dxz  x2-y2    tot
    1  0.002  0.000  0.000  0.000  0.000  0.000  0.000  0.000  0.000  0.002
    2  0.002  0.000  0.000  0.000  0.000  0.000  0.000  0.000  0.000  0.002
    3  0.246  0.000  0.000  0.000  0.000  0.000  0.000  0.000  0.000  0.246
    4  0.246  0.000  0.000  0.000  0.000  0.000  0.000  0.000  0.000  0.246
    5  0.246  0.000  0.000  0.000  0.000  0.000  0.000  0.000  0.000  0.246
    6  0.246  0.000  0.000  0.000  0.000  0.000  0.000  0.000  0.000  0.246
    7  0.000  0.000  0.000  0.000  0.000  0.000  0.000  0.000  0.000  0.000
    8  0.000  0.000  0.000  0.000  0.000  0.000  0.000  0.000  0.000  0.000
tot    0.988  0.000  0.000  0.000  0.000  0.000  0.000  0.000  0.000  0.988
 
band     2 # energy  -42.87773155 # occ.  1.00000000
 
ion      s     py     pz     px    dxy    dyz    dz2    dxz  x2-y2    tot
    1  0.000  0.000  0.000  0.000  0.000  0.000  0.000  0.000  0.000  0.000
    2  0.000  0.000  0.000  0.000  0.000  0.000  0.000  0.000  0.000  0.000
    3  0.247  0.000  0.000  0.000  0.000  0.000  0.000  0.000  0.000  0.247
    4  0.247  0.000  0.000  0.000  0.000  0.000  0.000  0.000  0.000  0.247
    5  0.247  0.000  0.000  0.000  0.000  0.000  0.000  0.000  0.000  0.247
    6  0.247  0.000  0.000  0.000  0.000  0.000  0.000  0.000  0.000  0.247
    7  0.000  0.000  0.000  0.000  0.000  0.000  0.000  0.000  0.000  0.000
    8  0.000  0.000  0.000  0.000  0.000  0.000  0.000  0.000  0.000  0.000
tot    0.989  0.000  0.000  0.000  0.000  0.000  0.000  0.000  0.000  0.989
 
band     3 # energy  -42.87400749 # occ.  1.00000000
 
ion      s     py     pz     px    dxy    dyz    dz2    dxz  x2-y2    tot
    1  0.002  0.000  0.000  0.000  0.000  0.000  0.000  0.000  0.000  0.002
    2  0.002  0.000  0.000  0.000  0.000  0.000  0.000  0.000  0.000  0.002
    3  0.246  0.000  0.000  0.000  0.000  0.000  0.000  0.000  0.000  0.246
    4  0.247  0.000  0.000  0.000  0.000  0.000  0.000  0.000  0.000  0.247
    5  0.246  0.000  0.000  0.000  0.000  0.000  0.000  0.000  0.000  0.246
    6  0.246  0.000  0.000  0.000  0.000  0.000  0.000  0.000  0.000  0.246
    7  0.000  0.000  0.000  0.000  0.000  0.000  0.000  0.000  0.000  0.000
    8  0.000  0.000  0.000  0.000  0.000  0.000  0.000  0.000  0.000  0.000
tot    0.989  0.000  0.000  0.000  0.000  0.000  0.000  0.000  0.000  0.989
 
band     4 # energy  -42.84838352 # occ.  1.00000000
 
ion      s     py     pz     px    dxy    dyz    dz2    dxz  x2-y2    tot
    1  0.000  0.000  0.000  0.000  0.000  0.000  0.000  0.000  0.000  0.000
    2  0.000  0.000  0.000  0.000  0.000  0.000  0.000  0.000  0.000  0.000
    3  0.248  0.000  0.000  0.000  0.000  0.000  0.000  0.000  0.000  0.248
    4  0.248  0.000  0.000  0.000  0.000  0.000  0.000  0.000  0.000  0.248
    5  0.248  0.000  0.000  0.000  0.000  0.000  0.000  0.000  0.000  0.248
    6  0.248  0.000  0.000  0.000  0.000  0.000  0.000  0.000  0.000  0.248
    7  0.000  0.000  0.000  0.000  0.000  0.000  0.000  0.000  0.000  0.000
    8  0.000  0.000  0.000  0.000  0.000  0.000  0.000  0.000  0.000  0.000
tot    0.990  0.000  0.000  0.000  0.000  0.000  0.000  0.000  0.000  0.990
 
band     5 # energy  -42.52376785 # occ.  1.00000000
 
ion      s     py     pz     px    dxy    dyz    dz2    dxz  x2-y2    tot
    1  0.560  0.000  0.000  0.000  0.000  0.000  0.000  0.000  0.000  0.560
    2  0.425  0.000  0.000  0.000  0.000  0.000  0.000  0.000  0.000  0.425
    3  0.001  0.000  0.000  0.000  0.000  0.000  0.000  0.000  0.000  0.001
    4  0.001  0.000  0.000  0.000  0.000  0.000  0.000  0.000  0.000  0.001
    5  0.001  0.000  0.000  0.000  0.000  0.000  0.000  0.000  0.000  0.001
    6  0.001  0.000  0.000  0.000  0.000  0.000  0.000  0.000  0.000  0.001
    7  0.000  0.000  0.000  0.000  0.000  0.000  0.000  0.000  0.000  0.000
    8  0.000  0.000  0.000  0.000  0.000  0.000  0.000  0.000  0.000  0.000
tot    0.989  0.000  0.000  0.000  0.000  0.000  0.000  0.000  0.000  0.989
 
band     6 # energy  -42.52352772 # occ.  1.00000000
 
ion      s     py     pz     px    dxy    dyz    dz2    dxz  x2-y2    tot
    1  0.425  0.000  0.000  0.000  0.000  0.000  0.000  0.000  0.000  0.425
    2  0.561  0.000  0.000  0.000  0.000  0.000  0.000  0.000  0.000  0.561
    3  0.001  0.000  0.000  0.000  0.000  0.000  0.000  0.000  0.000  0.001
    4  0.001  0.000  0.000  0.000  0.000  0.000  0.000  0.000  0.000  0.001
    5  0.001  0.000  0.000  0.000  0.000  0.000  0.000  0.000  0.000  0.001
    6  0.001  0.000  0.000  0.000  0.000  0.000  0.000  0.000  0.000  0.001
    7  0.000  0.000  0.000  0.000  0.000  0.000  0.000  0.000  0.000  0.000
    8  0.000  0.000  0.000  0.000  0.000  0.000  0.000  0.000  0.000  0.000
tot    0.989  0.000  0.000  0.000  0.000  0.000  0.000  0.000  0.000  0.989
 
band     7 # energy   -6.69238991 # occ.  1.00000000
 
ion      s     py     pz     px    dxy    dyz    dz2    dxz  x2-y2    tot
    1  0.005  0.000  0.000  0.000  0.000  0.000  0.000  0.000  0.000  0.005
    2  0.005  0.000  0.000  0.000  0.000  0.000  0.000  0.000  0.000  0.005
    3  0.004  0.000  0.000  0.000  0.000  0.000  0.000  0.000  0.000  0.004
    4  0.004  0.000  0.000  0.000  0.000  0.000  0.000  0.000  0.000  0.004
    5  0.004  0.000  0.000  0.000  0.000  0.000  0.000  0.000  0.000  0.004
    6  0.004  0.000  0.000  0.000  0.000  0.000  0.000  0.000  0.000  0.004
    7  0.220  0.000  0.000  0.000  0.000  0.000  0.000  0.000  0.000  0.220
    8  0.220  0.000  0.000  0.000  0.000  0.000  0.000  0.000  0.000  0.220
tot    0.469  0.000  0.000  0.000  0.000  0.000  0.000  0.000  0.000  0.469
 
band     8 # energy   -6.30882298 # occ.  1.00000000
 
ion      s     py     pz     px    dxy    dyz    dz2    dxz  x2-y2    tot
    1  0.005  0.000  0.000  0.000  0.000  0.000  0.000  0.000  0.000  0.005
    2  0.005  0.000  0.000  0.000  0.000  0.000  0.000  0.000  0.000  0.005
    3  0.001  0.000  0.001  0.000  0.000  0.000  0.000  0.000  0.000  0.002
    4  0.001  0.000  0.001  0.000  0.000  0.000  0.000  0.000  0.000  0.002
    5  0.001  0.000  0.001  0.000  0.000  0.000  0.000  0.000  0.000  0.002
    6  0.001  0.000  0.001  0.000  0.000  0.000  0.000  0.000  0.000  0.002
    7  0.241  0.000  0.000  0.000  0.000  0.000  0.000  0.000  0.000  0.241
    8  0.241  0.000  0.000  0.000  0.000  0.000  0.000  0.000  0.000  0.241
tot    0.495  0.000  0.005  0.000  0.000  0.000  0.000  0.000  0.000  0.501
 
band     9 # energy   -0.70611251 # occ.  1.00000000
 
ion      s     py     pz     px    dxy    dyz    dz2    dxz  x2-y2    tot
    1  0.000  0.000  0.004  0.000  0.000  0.000  0.000  0.000  0.000  0.004
    2  0.000  0.000  0.004  0.000  0.000  0.000  0.000  0.000  0.000  0.004
    3  0.012  0.000  0.002  0.000  0.000  0.000  0.000  0.000  0.000  0.014
    4  0.012  0.000  0.002  0.000  0.000  0.000  0.000  0.000  0.000  0.014
    5  0.012  0.000  0.002  0.000  0.000  0.000  0.000  0.000  0.000  0.014
    6  0.012  0.000  0.002  0.000  0.000  0.000  0.000  0.000  0.000  0.014
    7  0.000  0.000  0.085  0.000  0.000  0.000  0.000  0.000  0.000  0.085
    8  0.000  0.000  0.085  0.000  0.000  0.000  0.000  0.000  0.000  0.085
tot    0.048  0.000  0.186  0.000  0.000  0.000  0.000  0.000  0.000  0.234
 
band    10 # energy    2.03549783 # occ.  1.00000000
 
ion      s     py     pz     px    dxy    dyz    dz2    dxz  x2-y2    tot
    1  0.000  0.000  0.004  0.000  0.000  0.000  0.000  0.000  0.000  0.004
    2  0.000  0.000  0.004  0.000  0.000  0.000  0.000  0.000  0.000  0.004
    3  0.000  0.000  0.005  0.000  0.000  0.000  0.000  0.000  0.000  0.005
    4  0.000  0.000  0.005  0.000  0.000  0.000  0.000  0.000  0.000  0.005
    5  0.000  0.000  0.005  0.000  0.000  0.000  0.000  0.000  0.000  0.005
    6  0.000  0.000  0.005  0.000  0.000  0.000  0.000  0.000  0.000  0.005
    7  0.000  0.000  0.170  0.000  0.000  0.000  0.000  0.000  0.000  0.170
    8  0.000  0.000  0.170  0.000  0.000  0.000  0.000  0.000  0.000  0.170
tot    0.000  0.000  0.369  0.000  0.000  0.000  0.000  0.000  0.000  0.369
 
band    11 # energy    2.19498028 # occ.  1.00000000
 
ion      s     py     pz     px    dxy    dyz    dz2    dxz  x2-y2    tot
    1  0.000  0.000  0.000  0.005  0.000  0.000  0.000  0.000  0.000  0.005
    2  0.000  0.000  0.000  0.005  0.000  0.000  0.000  0.000  0.000  0.005
    3  0.000  0.000  0.000  0.005  0.000  0.000  0.000  0.000  0.000  0.005
    4  0.000  0.000  0.000  0.005  0.000  0.000  0.000  0.000  0.000  0.005
    5  0.000  0.000  0.000  0.005  0.000  0.000  0.000  0.000  0.000  0.005
    6  0.000  0.000  0.000  0.005  0.000  0.000  0.000  0.000  0.000  0.005
    7  0.000  0.000  0.000  0.174  0.000  0.000  0.000  0.000  0.000  0.174
    8  0.000  0.000  0.000  0.174  0.000  0.000  0.000  0.000  0.000  0.174
tot    0.000  0.000  0.000  0.377  0.000  0.000  0.000  0.000  0.000  0.377
 
band    12 # energy    2.19499751 # occ.  1.00000000
 
ion      s     py     pz     px    dxy    dyz    dz2    dxz  x2-y2    tot
    1  0.000  0.005  0.000  0.000  0.000  0.000  0.000  0.000  0.000  0.005
    2  0.000  0.005  0.000  0.000  0.000  0.000  0.000  0.000  0.000  0.005
    3  0.000  0.005  0.000  0.000  0.000  0.000  0.000  0.000  0.000  0.005
    4  0.000  0.005  0.000  0.000  0.000  0.000  0.000  0.000  0.000  0.005
    5  0.000  0.005  0.000  0.000  0.000  0.000  0.000  0.000  0.000  0.005
    6  0.000  0.005  0.000  0.000  0.000  0.000  0.000  0.000  0.000  0.005
    7  0.000  0.174  0.000  0.000  0.000  0.000  0.000  0.000  0.000  0.174
    8  0.000  0.174  0.000  0.000  0.000  0.000  0.000  0.000  0.000  0.174
tot    0.000  0.377  0.000  0.000  0.000  0.000  0.000  0.000  0.000  0.377
 
band    13 # energy    2.60656392 # occ.  1.00000000
 
ion      s     py     pz     px    dxy    dyz    dz2    dxz  x2-y2    tot
    1  0.000  0.010  0.000  0.000  0.000  0.000  0.000  0.000  0.000  0.010
    2  0.000  0.010  0.000  0.000  0.000  0.000  0.000  0.000  0.000  0.010
    3  0.000  0.000  0.000  0.000  0.000  0.000  0.000  0.000  0.000  0.000
    4  0.000  0.000  0.000  0.000  0.000  0.000  0.000  0.000  0.000  0.000
    5  0.000  0.000  0.000  0.000  0.000  0.000  0.000  0.000  0.000  0.000
    6  0.000  0.000  0.000  0.000  0.000  0.000  0.000  0.000  0.000  0.000
    7  0.000  0.190  0.000  0.000  0.000  0.000  0.000  0.000  0.000  0.190
    8  0.000  0.190  0.000  0.000  0.000  0.000  0.000  0.000  0.000  0.190
tot    0.000  0.401  0.000  0.000  0.000  0.000  0.000  0.000  0.000  0.401
 
band    14 # energy    2.60656448 # occ.  1.00000000
 
ion      s     py     pz     px    dxy    dyz    dz2    dxz  x2-y2    tot
    1  0.000  0.000  0.000  0.010  0.000  0.000  0.000  0.000  0.000  0.010
    2  0.000  0.000  0.000  0.010  0.000  0.000  0.000  0.000  0.000  0.010
    3  0.000  0.000  0.000  0.000  0.000  0.000  0.000  0.000  0.000  0.000
    4  0.000  0.000  0.000  0.000  0.000  0.000  0.000  0.000  0.000  0.000
    5  0.000  0.000  0.000  0.000  0.000  0.000  0.000  0.000  0.000  0.000
    6  0.000  0.000  0.000  0.000  0.000  0.000  0.000  0.000  0.000  0.000
    7  0.000  0.000  0.000  0.190  0.000  0.000  0.000  0.000  0.000  0.190
    8  0.000  0.000  0.000  0.190  0.000  0.000  0.000  0.000  0.000  0.190
tot    0.000  0.000  0.000  0.401  0.000  0.000  0.000  0.000  0.000  0.401
 
band    15 # energy    4.99960418 # occ.  0.00000000
 
ion      s     py     pz     px    dxy    dyz    dz2    dxz  x2-y2    tot
    1  0.007  0.000  0.000  0.000  0.000  0.000  0.000  0.000  0.000  0.007
    2  0.007  0.000  0.000  0.000  0.000  0.000  0.000  0.000  0.000  0.007
    3  0.014  0.000  0.003  0.000  0.000  0.000  0.000  0.000  0.000  0.017
    4  0.014  0.000  0.003  0.000  0.000  0.000  0.000  0.000  0.000  0.017
    5  0.014  0.000  0.003  0.000  0.000  0.000  0.000  0.000  0.000  0.017
    6  0.014  0.000  0.003  0.000  0.000  0.000  0.000  0.000  0.000  0.017
    7  0.089  0.000  0.000  0.000  0.000  0.000  0.000  0.000  0.000  0.089
    8  0.089  0.000  0.000  0.000  0.000  0.000  0.000  0.000  0.000  0.089
tot    0.247  0.000  0.012  0.000  0.000  0.000  0.000  0.000  0.000  0.259
 
band    16 # energy    6.48387452 # occ.  0.00000000
 
ion      s     py     pz     px    dxy    dyz    dz2    dxz  x2-y2    tot
    1  0.015  0.000  0.000  0.000  0.000  0.000  0.000  0.000  0.000  0.015
    2  0.013  0.000  0.000  0.000  0.000  0.000  0.000  0.000  0.000  0.013
    3  0.001  0.000  0.037  0.000  0.000  0.000  0.000  0.000  0.000  0.038
    4  0.002  0.000  0.038  0.000  0.000  0.000  0.000  0.000  0.000  0.040
    5  0.002  0.000  0.038  0.000  0.000  0.000  0.000  0.000  0.000  0.040
    6  0.001  0.000  0.037  0.000  0.000  0.000  0.000  0.000  0.000  0.038
    7  0.024  0.000  0.000  0.000  0.000  0.000  0.000  0.000  0.000  0.024
    8  0.020  0.000  0.000  0.000  0.000  0.000  0.000  0.000  0.000  0.020
tot    0.079  0.000  0.150  0.000  0.000  0.000  0.000  0.000  0.000  0.229
 
band    17 # energy    6.53854855 # occ.  0.00000000
 
ion      s     py     pz     px    dxy    dyz    dz2    dxz  x2-y2    tot
    1  0.000  0.019  0.000  0.015  0.000  0.000  0.000  0.000  0.000  0.034
    2  0.000  0.019  0.000  0.015  0.000  0.000  0.000  0.000  0.000  0.034
    3  0.000  0.010  0.000  0.008  0.000  0.000  0.000  0.000  0.000  0.018
    4  0.000  0.010  0.000  0.008  0.000  0.000  0.000  0.000  0.000  0.018
    5  0.000  0.010  0.000  0.008  0.000  0.000  0.000  0.000  0.000  0.018
    6  0.000  0.010  0.000  0.008  0.000  0.000  0.000  0.000  0.000  0.018
    7  0.000  0.004  0.000  0.003  0.000  0.000  0.000  0.000  0.000  0.006
    8  0.000  0.004  0.000  0.003  0.000  0.000  0.000  0.000  0.000  0.006
tot    0.000  0.086  0.000  0.068  0.000  0.000  0.000  0.000  0.000  0.155
 
band    18 # energy    6.53859794 # occ.  0.00000000
 
ion      s     py     pz     px    dxy    dyz    dz2    dxz  x2-y2    tot
    1  0.000  0.015  0.000  0.019  0.000  0.000  0.000  0.000  0.000  0.034
    2  0.000  0.015  0.000  0.019  0.000  0.000  0.000  0.000  0.000  0.034
    3  0.000  0.008  0.000  0.010  0.000  0.000  0.000  0.000  0.000  0.018
    4  0.000  0.008  0.000  0.010  0.000  0.000  0.000  0.000  0.000  0.018
    5  0.000  0.008  0.000  0.010  0.000  0.000  0.000  0.000  0.000  0.018
    6  0.000  0.008  0.000  0.010  0.000  0.000  0.000  0.000  0.000  0.018
    7  0.000  0.003  0.000  0.004  0.000  0.000  0.000  0.000  0.000  0.006
    8  0.000  0.003  0.000  0.004  0.000  0.000  0.000  0.000  0.000  0.006
tot    0.000  0.068  0.000  0.086  0.000  0.000  0.000  0.000  0.000  0.155
 
band    19 # energy    6.88322080 # occ.  0.00000000
 
ion      s     py     pz     px    dxy    dyz    dz2    dxz  x2-y2    tot
    1  0.000  0.011  0.000  0.038  0.000  0.000  0.000  0.000  0.000  0.050
    2  0.000  0.011  0.000  0.038  0.000  0.000  0.000  0.000  0.000  0.050
    3  0.000  0.005  0.000  0.015  0.000  0.000  0.000  0.000  0.000  0.020
    4  0.000  0.005  0.000  0.015  0.000  0.000  0.000  0.000  0.000  0.020
    5  0.000  0.005  0.000  0.015  0.000  0.000  0.000  0.000  0.000  0.020
    6  0.000  0.005  0.000  0.015  0.000  0.000  0.000  0.000  0.000  0.020
    7  0.000  0.001  0.000  0.005  0.000  0.000  0.000  0.000  0.000  0.006
    8  0.000  0.001  0.000  0.005  0.000  0.000  0.000  0.000  0.000  0.006
tot    0.000  0.044  0.000  0.147  0.000  0.000  0.000  0.000  0.000  0.191
 
band    20 # energy    6.88349456 # occ.  0.00000000
 
ion      s     py     pz     px    dxy    dyz    dz2    dxz  x2-y2    tot
    1  0.000  0.038  0.000  0.011  0.000  0.000  0.000  0.000  0.000  0.049
    2  0.000  0.038  0.000  0.011  0.000  0.000  0.000  0.000  0.000  0.049
    3  0.000  0.015  0.000  0.005  0.000  0.000  0.000  0.000  0.000  0.020
    4  0.000  0.015  0.000  0.005  0.000  0.000  0.000  0.000  0.000  0.020
    5  0.000  0.015  0.000  0.005  0.000  0.000  0.000  0.000  0.000  0.020
    6  0.000  0.015  0.000  0.005  0.000  0.000  0.000  0.000  0.000  0.020
    7  0.000  0.005  0.000  0.001  0.000  0.000  0.000  0.000  0.000  0.006
    8  0.000  0.005  0.000  0.001  0.000  0.000  0.000  0.000  0.000  0.006
tot    0.001  0.146  0.000  0.044  0.000  0.000  0.000  0.000  0.000  0.192
 

 k-point     2 :    0.11111111 0.00000000 0.00000000     weight = 0.01851852

band     1 # energy  -42.90296222 # occ.  1.00000000
 
ion      s     py     pz     px    dxy    dyz    dz2    dxz  x2-y2    tot
    1  0.002  0.000  0.000  0.000  0.000  0.000  0.000  0.000  0.000  0.002
    2  0.002  0.000  0.000  0.000  0.000  0.000  0.000  0.000  0.000  0.002
    3  0.246  0.000  0.000  0.000  0.000  0.000  0.000  0.000  0.000  0.246
    4  0.246  0.000  0.000  0.000  0.000  0.000  0.000  0.000  0.000  0.246
    5  0.246  0.000  0.000  0.000  0.000  0.000  0.000  0.000  0.000  0.246
    6  0.246  0.000  0.000  0.000  0.000  0.000  0.000  0.000  0.000  0.246
    7  0.000  0.000  0.000  0.000  0.000  0.000  0.000  0.000  0.000  0.000
    8  0.000  0.000  0.000  0.000  0.000  0.000  0.000  0.000  0.000  0.000
tot    0.988  0.000  0.000  0.000  0.000  0.000  0.000  0.000  0.000  0.988
 
band     2 # energy  -42.87694396 # occ.  1.00000000
 
ion      s     py     pz     px    dxy    dyz    dz2    dxz  x2-y2    tot
    1  0.000  0.000  0.000  0.000  0.000  0.000  0.000  0.000  0.000  0.000
    2  0.000  0.000  0.000  0.000  0.000  0.000  0.000  0.000  0.000  0.000
    3  0.247  0.000  0.000  0.000  0.000  0.000  0.000  0.000  0.000  0.247
    4  0.247  0.000  0.000  0.000  0.000  0.000  0.000  0.000  0.000  0.247
    5  0.247  0.000  0.000  0.000  0.000  0.000  0.000  0.000  0.000  0.247
    6  0.247  0.000  0.000  0.000  0.000  0.000  0.000  0.000  0.000  0.247
    7  0.000  0.000  0.000  0.000  0.000  0.000  0.000  0.000  0.000  0.000
    8  0.000  0.000  0.000  0.000  0.000  0.000  0.000  0.000  0.000  0.000
tot    0.989  0.000  0.000  0.000  0.000  0.000  0.000  0.000  0.000  0.989
 
band     3 # energy  -42.87464633 # occ.  1.00000000
 
ion      s     py     pz     px    dxy    dyz    dz2    dxz  x2-y2    tot
    1  0.002  0.000  0.000  0.000  0.000  0.000  0.000  0.000  0.000  0.002
    2  0.002  0.000  0.000  0.000  0.000  0.000  0.000  0.000  0.000  0.002
    3  0.247  0.000  0.000  0.000  0.000  0.000  0.000  0.000  0.000  0.247
    4  0.247  0.000  0.000  0.000  0.000  0.000  0.000  0.000  0.000  0.247
    5  0.247  0.000  0.000  0.000  0.000  0.000  0.000  0.000  0.000  0.247
    6  0.246  0.000  0.000  0.000  0.000  0.000  0.000  0.000  0.000  0.246
    7  0.000  0.000  0.000  0.000  0.000  0.000  0.000  0.000  0.000  0.000
    8  0.000  0.000  0.000  0.000  0.000  0.000  0.000  0.000  0.000  0.000
tot    0.989  0.000  0.000  0.000  0.000  0.000  0.000  0.000  0.000  0.989
 
band     4 # energy  -42.84917823 # occ.  1.00000000
 
ion      s     py     pz     px    dxy    dyz    dz2    dxz  x2-y2    tot
    1  0.000  0.000  0.000  0.000  0.000  0.000  0.000  0.000  0.000  0.000
    2  0.000  0.000  0.000  0.000  0.000  0.000  0.000  0.000  0.000  0.000
    3  0.248  0.000  0.000  0.000  0.000  0.000  0.000  0.000  0.000  0.248
    4  0.248  0.000  0.000  0.000  0.000  0.000  0.000  0.000  0.000  0.248
    5  0.248  0.000  0.000  0.000  0.000  0.000  0.000  0.000  0.000  0.248
    6  0.248  0.000  0.000  0.000  0.000  0.000  0.000  0.000  0.000  0.248
    7  0.000  0.000  0.000  0.000  0.000  0.000  0.000  0.000  0.000  0.000
    8  0.000  0.000  0.000  0.000  0.000  0.000  0.000  0.000  0.000  0.000
tot    0.990  0.000  0.000  0.000  0.000  0.000  0.000  0.000  0.000  0.990
 
band     5 # energy  -42.52390676 # occ.  1.00000000
 
ion      s     py     pz     px    dxy    dyz    dz2    dxz  x2-y2    tot
    1  0.554  0.000  0.000  0.000  0.000  0.000  0.000  0.000  0.000  0.554
    2  0.431  0.000  0.000  0.000  0.000  0.000  0.000  0.000  0.000  0.431
    3  0.001  0.000  0.000  0.000  0.000  0.000  0.000  0.000  0.000  0.001
    4  0.001  0.000  0.000  0.000  0.000  0.000  0.000  0.000  0.000  0.001
    5  0.001  0.000  0.000  0.000  0.000  0.000  0.000  0.000  0.000  0.001
    6  0.001  0.000  0.000  0.000  0.000  0.000  0.000  0.000  0.000  0.001
    7  0.000  0.000  0.000  0.000  0.000  0.000  0.000  0.000  0.000  0.000
    8  0.000  0.000  0.000  0.000  0.000  0.000  0.000  0.000  0.000  0.000
tot    0.989  0.000  0.000  0.000  0.000  0.000  0.000  0.000  0.000  0.989
 
band     6 # energy  -42.52364147 # occ.  1.00000000
 
ion      s     py     pz     px    dxy    dyz    dz2    dxz  x2-y2    tot
    1  0.432  0.000  0.000  0.000  0.000  0.000  0.000  0.000  0.000  0.432
    2  0.554  0.000  0.000  0.000  0.000  0.000  0.000  0.000  0.000  0.554
    3  0.001  0.000  0.000  0.000  0.000  0.000  0.000  0.000  0.000  0.001
    4  0.001  0.000  0.000  0.000  0.000  0.000  0.000  0.000  0.000  0.001
    5  0.001  0.000  0.000  0.000  0.000  0.000  0.000  0.000  0.000  0.001
    6  0.001  0.000  0.000  0.000  0.000  0.000  0.000  0.000  0.000  0.001
    7  0.000  0.000  0.000  0.000  0.000  0.000  0.000  0.000  0.000  0.000
    8  0.000  0.000  0.000  0.000  0.000  0.000  0.000  0.000  0.000  0.000
tot    0.989  0.000  0.000  0.000  0.000  0.000  0.000  0.000  0.000  0.989
 
band     7 # energy   -6.64340553 # occ.  1.00000000
 
ion      s     py     pz     px    dxy    dyz    dz2    dxz  x2-y2    tot
    1  0.005  0.000  0.000  0.000  0.000  0.000  0.000  0.000  0.000  0.005
    2  0.005  0.000  0.000  0.000  0.000  0.000  0.000  0.000  0.000  0.005
    3  0.004  0.000  0.000  0.000  0.000  0.000  0.000  0.000  0.000  0.004
    4  0.004  0.000  0.000  0.000  0.000  0.000  0.000  0.000  0.000  0.004
    5  0.004  0.000  0.000  0.000  0.000  0.000  0.000  0.000  0.000  0.004
    6  0.004  0.000  0.000  0.000  0.000  0.000  0.000  0.000  0.000  0.004
    7  0.222  0.000  0.000  0.000  0.000  0.000  0.000  0.000  0.000  0.222
    8  0.222  0.000  0.000  0.000  0.000  0.000  0.000  0.000  0.000  0.222
tot    0.471  0.000  0.000  0.001  0.000  0.000  0.000  0.000  0.000  0.471
 
band     8 # energy   -6.27459752 # occ.  1.00000000
 
ion      s     py     pz     px    dxy    dyz    dz2    dxz  x2-y2    tot
    1  0.005  0.000  0.000  0.000  0.000  0.000  0.000  0.000  0.000  0.005
    2  0.005  0.000  0.000  0.000  0.000  0.000  0.000  0.000  0.000  0.005
    3  0.001  0.000  0.001  0.000  0.000  0.000  0.000  0.000  0.000  0.002
    4  0.001  0.000  0.001  0.000  0.000  0.000  0.000  0.000  0.000  0.002
    5  0.001  0.000  0.001  0.000  0.000  0.000  0.000  0.000  0.000  0.002
    6  0.001  0.000  0.001  0.000  0.000  0.000  0.000  0.000  0.000  0.002
    7  0.243  0.000  0.000  0.000  0.000  0.000  0.000  0.000  0.000  0.243
    8  0.243  0.000  0.000  0.000  0.000  0.000  0.000  0.000  0.000  0.243
tot    0.497  0.000  0.005  0.000  0.000  0.000  0.000  0.000  0.000  0.503
 
band     9 # energy   -0.61691049 # occ.  1.00000000
 
ion      s     py     pz     px    dxy    dyz    dz2    dxz  x2-y2    tot
    1  0.000  0.000  0.004  0.000  0.000  0.000  0.000  0.000  0.000  0.004
    2  0.000  0.000  0.004  0.000  0.000  0.000  0.000  0.000  0.000  0.004
    3  0.012  0.000  0.002  0.000  0.000  0.000  0.000  0.000  0.000  0.014
    4  0.012  0.000  0.002  0.000  0.000  0.000  0.000  0.000  0.000  0.014
    5  0.012  0.000  0.002  0.000  0.000  0.000  0.000  0.000  0.000  0.014
    6  0.012  0.000  0.002  0.000  0.000  0.000  0.000  0.000  0.000  0.014
    7  0.000  0.000  0.086  0.000  0.000  0.000  0.000  0.000  0.000  0.086
    8  0.000  0.000  0.086  0.000  0.000  0.000  0.000  0.000  0.000  0.086
tot    0.046  0.000  0.189  0.001  0.000  0.000  0.000  0.000  0.000  0.236
 
band    10 # energy    1.70808634 # occ.  1.00000000
 
ion      s     py     pz     px    dxy    dyz    dz2    dxz  x2-y2    tot
    1  0.003  0.001  0.000  0.004  0.000  0.000  0.000  0.000  0.000  0.008
    2  0.003  0.001  0.000  0.004  0.000  0.000  0.000  0.000  0.000  0.008
    3  0.002  0.001  0.000  0.003  0.000  0.000  0.000  0.000  0.000  0.006
    4  0.002  0.001  0.000  0.003  0.000  0.000  0.000  0.000  0.000  0.006
    5  0.002  0.001  0.000  0.003  0.000  0.000  0.000  0.000  0.000  0.006
    6  0.002  0.001  0.000  0.003  0.000  0.000  0.000  0.000  0.000  0.006
    7  0.003  0.037  0.000  0.111  0.000  0.000  0.000  0.000  0.000  0.152
    8  0.003  0.037  0.000  0.111  0.000  0.000  0.000  0.000  0.000  0.152
tot    0.018  0.082  0.001  0.245  0.000  0.000  0.000  0.000  0.000  0.346
 
band    11 # energy    1.94294788 # occ.  1.00000000
 
ion      s     py     pz     px    dxy    dyz    dz2    dxz  x2-y2    tot
    1  0.000  0.006  0.000  0.002  0.000  0.000  0.000  0.000  0.000  0.008
    2  0.000  0.006  0.000  0.002  0.000  0.000  0.000  0.000  0.000  0.008
    3  0.000  0.004  0.000  0.001  0.000  0.000  0.000  0.000  0.000  0.005
    4  0.000  0.004  0.000  0.001  0.000  0.000  0.000  0.000  0.000  0.005
    5  0.000  0.004  0.000  0.001  0.000  0.000  0.000  0.000  0.000  0.005
    6  0.000  0.004  0.000  0.001  0.000  0.000  0.000  0.000  0.000  0.005
    7  0.000  0.120  0.000  0.040  0.000  0.000  0.000  0.000  0.000  0.160
    8  0.000  0.120  0.000  0.040  0.000  0.000  0.000  0.000  0.000  0.160
tot    0.000  0.267  0.000  0.089  0.000  0.000  0.000  0.000  0.000  0.357
 
band    12 # energy    2.01921213 # occ.  1.00000000
 
ion      s     py     pz     px    dxy    dyz    dz2    dxz  x2-y2    tot
    1  0.000  0.000  0.004  0.000  0.000  0.000  0.000  0.000  0.000  0.004
    2  0.000  0.000  0.004  0.000  0.000  0.000  0.000  0.000  0.000  0.004
    3  0.000  0.000  0.005  0.000  0.000  0.000  0.000  0.000  0.000  0.005
    4  0.000  0.000  0.005  0.000  0.000  0.000  0.000  0.000  0.000  0.005
    5  0.000  0.000  0.005  0.000  0.000  0.000  0.000  0.000  0.000  0.005
    6  0.000  0.000  0.005  0.000  0.000  0.000  0.000  0.000  0.000  0.005
    7  0.000  0.000  0.169  0.000  0.000  0.000  0.000  0.000  0.000  0.169
    8  0.000  0.000  0.169  0.000  0.000  0.000  0.000  0.000  0.000  0.169
tot    0.000  0.000  0.366  0.001  0.000  0.000  0.000  0.000  0.000  0.368
 
band    13 # energy    2.17194708 # occ.  1.00000000
 
ion      s     py     pz     px    dxy    dyz    dz2    dxz  x2-y2    tot
    1  0.004  0.002  0.000  0.005  0.000  0.000  0.000  0.000  0.000  0.010
    2  0.004  0.002  0.000  0.005  0.000  0.000  0.000  0.000  0.000  0.010
    3  0.002  0.000  0.001  0.000  0.000  0.000  0.000  0.000  0.000  0.003
    4  0.002  0.000  0.001  0.000  0.000  0.000  0.000  0.000  0.000  0.003
    5  0.002  0.000  0.001  0.000  0.000  0.000  0.000  0.000  0.000  0.003
    6  0.002  0.000  0.001  0.000  0.000  0.000  0.000  0.000  0.000  0.003
    7  0.009  0.041  0.000  0.124  0.000  0.000  0.000  0.000  0.000  0.175
    8  0.009  0.041  0.000  0.124  0.000  0.000  0.000  0.000  0.000  0.175
tot    0.032  0.087  0.002  0.260  0.000  0.000  0.000  0.000  0.000  0.382
 
band    14 # energy    2.51893780 # occ.  1.00000000
 
ion      s     py     pz     px    dxy    dyz    dz2    dxz  x2-y2    tot
    1  0.000  0.007  0.000  0.002  0.000  0.000  0.000  0.000  0.000  0.010
    2  0.000  0.007  0.000  0.002  0.000  0.000  0.000  0.000  0.000  0.010
    3  0.000  0.001  0.000  0.000  0.000  0.000  0.000  0.000  0.000  0.001
    4  0.000  0.001  0.000  0.000  0.000  0.000  0.000  0.000  0.000  0.001
    5  0.000  0.001  0.000  0.000  0.000  0.000  0.000  0.000  0.000  0.001
    6  0.000  0.001  0.000  0.000  0.000  0.000  0.000  0.000  0.000  0.001
    7  0.000  0.141  0.000  0.047  0.000  0.000  0.000  0.000  0.000  0.188
    8  0.000  0.141  0.000  0.047  0.000  0.000  0.000  0.000  0.000  0.188
tot    0.000  0.299  0.000  0.100  0.000  0.000  0.000  0.000  0.000  0.399
 
band    15 # energy    5.18372864 # occ.  0.00000000
 
ion      s     py     pz     px    dxy    dyz    dz2    dxz  x2-y2    tot
    1  0.004  0.000  0.000  0.001  0.000  0.000  0.000  0.000  0.000  0.005
    2  0.004  0.000  0.000  0.001  0.000  0.000  0.000  0.000  0.000  0.005
    3  0.009  0.001  0.007  0.002  0.000  0.000  0.000  0.000  0.000  0.019
    4  0.009  0.001  0.007  0.002  0.000  0.000  0.000  0.000  0.000  0.019
    5  0.009  0.001  0.007  0.002  0.000  0.000  0.000  0.000  0.000  0.019
    6  0.009  0.001  0.007  0.002  0.000  0.000  0.000  0.000  0.000  0.019
    7  0.062  0.003  0.000  0.009  0.000  0.000  0.000  0.000  0.000  0.074
    8  0.062  0.003  0.000  0.009  0.000  0.000  0.000  0.000  0.000  0.074
tot    0.168  0.009  0.029  0.027  0.000  0.000  0.000  0.000  0.000  0.233
 
band    16 # energy    6.33506782 # occ.  0.00000000
 
ion      s     py     pz     px    dxy    dyz    dz2    dxz  x2-y2    tot
    1  0.004  0.006  0.000  0.019  0.000  0.000  0.000  0.000  0.000  0.029
    2  0.004  0.006  0.000  0.019  0.000  0.000  0.000  0.000  0.000  0.029
    3  0.007  0.001  0.012  0.004  0.000  0.000  0.000  0.000  0.000  0.025
    4  0.007  0.001  0.012  0.004  0.000  0.000  0.000  0.000  0.000  0.025
    5  0.007  0.001  0.012  0.004  0.000  0.000  0.000  0.000  0.000  0.025
    6  0.007  0.001  0.012  0.004  0.000  0.000  0.000  0.000  0.000  0.025
    7  0.032  0.002  0.000  0.005  0.000  0.000  0.000  0.000  0.000  0.038
    8  0.033  0.002  0.000  0.005  0.000  0.000  0.000  0.000  0.000  0.039
tot    0.102  0.021  0.049  0.063  0.000  0.000  0.000  0.000  0.000  0.234
 
band    17 # energy    6.72955347 # occ.  0.00000000
 
ion      s     py     pz     px    dxy    dyz    dz2    dxz  x2-y2    tot
    1  0.005  0.007  0.000  0.021  0.000  0.000  0.000  0.000  0.000  0.033
    2  0.005  0.007  0.000  0.021  0.000  0.000  0.000  0.000  0.000  0.033
    3  0.007  0.002  0.012  0.005  0.000  0.000  0.000  0.000  0.000  0.026