<?xml version="1.0" encoding="ISO-8859-1"?>
<modeling>
 <generator>
  <i name="program" type="string">vasp </i>
  <i name="version" type="string">5.4.4.18Apr17-6-g9f103f2a35  </i>
  <i name="subversion" type="string">(build Aug 12 2020 11:57:02) complex            parallel </i>
  <i name="platform" type="string">LinuxIFC </i>
  <i name="date" type="string">2021 02 02 </i>
  <i name="time" type="string">18:37:46 </i>
 </generator>
 <incar>
  <i type="string" name="PREC">accurate</i>
  <i type="string" name="ALGO"> Fast</i>
  <i type="int" name="NSIM">     4</i>
  <i type="int" name="ISPIN">     2</i>
  <i type="int" name="NELM">   100</i>
  <i type="int" name="IBRION">     2</i>
  <i name="EDIFF">      0.00001000</i>
  <i type="int" name="NSW">    99</i>
  <i type="int" name="ISIF">     3</i>
  <i name="ENCUT">    520.00000000</i>
  <v name="MAGMOM">      0.00000000      0.00000000      0.00000000      0.00000000      0.00000000      0.00000000      0.00000000      0.00000000</v>
  <i type="string" name="LREAL"> Auto</i>
  <i type="logical" name="LPLANE"> T  </i>
  <i type="int" name="ISMEAR">    -5</i>
  <i name="SIGMA">      0.05000000</i>
  <i type="logical" name="LWAVE"> F  </i>
  <i type="logical" name="LCHARG"> F  </i>
  <i type="int" name="LORBIT">    11</i>
  <i type="logical" name="LASPH"> T  </i>
  <v type="int" name="KPOINT_BSE">    -1     0     0     0</v>
  <i type="int" name="NELM">   100</i>
  <i type="logical" name="LASPH"> T  </i>
 </incar>
 <structure name="primitive_cell" >
  <crystal>
   <varray name="basis" >
    <v>       2.11792900      -3.66836100       0.00000000 </v>
    <v>       2.11792900       3.66836100       0.00000000 </v>
    <v>       0.00000000       0.00000000       7.57071800 </v>
   </varray>
   <i name="volume">    117.63878486 </i>
   <varray name="rec_basis" >
    <v>       0.23607968      -0.13630065       0.00000000 </v>
    <v>       0.23607968       0.13630065       0.00000000 </v>
    <v>       0.00000000       0.00000000       0.13208787 </v>
   </varray>
  </crystal>
  <varray name="positions" >
   <v>       0.00000000       0.00000000       0.25000000 </v>
   <v>       0.33333300      -0.33333300       0.25000000 </v>
   <v>      -0.33333300       0.33333300       0.08411900 </v>
   <v>      -0.33333300       0.33333300       0.41588100 </v>
   <v>       0.33333300      -0.33333300      -0.41588100 </v>
   <v>       0.33333300      -0.33333300      -0.08411900 </v>
   <v>       0.00000000       0.00000000      -0.25000000 </v>
   <v>      -0.33333300       0.33333300      -0.25000000 </v>
  </varray>
 </structure>
 <varray name="primitive_index" >
  <v type="int" >        1 </v>
  <v type="int" >        7 </v>
  <v type="int" >        4 </v>
  <v type="int" >        5 </v>
  <v type="int" >        3 </v>
  <v type="int" >        6 </v>
  <v type="int" >        2 </v>
  <v type="int" >        8 </v>
 </varray>
 <kpoints>
  <generation param="Auto">
   <i name="subdivisionlength">     32.00000000 </i>
   <v type="int" name="divisions">       9        9        4 </v>
   <v name="usershift">      0.00000000       0.00000000       0.00000000 </v>
   <v name="genvec1">      0.11111111       0.00000000       0.00000000 </v>
   <v name="genvec2">      0.00000000       0.11111111       0.00000000 </v>
   <v name="genvec3">      0.00000000       0.00000000       0.25000000 </v>
   <v name="shift">      0.00000000       0.00000000       0.00000000 </v>
  </generation>
  <varray name="kpointlist" >
   <v>       0.00000000       0.00000000       0.00000000 </v>
   <v>       0.11111111       0.00000000       0.00000000 </v>
   <v>       0.22222222      -0.00000000       0.00000000 </v>
   <v>       0.33333333       0.00000000       0.00000000 </v>
   <v>       0.44444444      -0.00000000       0.00000000 </v>
   <v>       0.11111111       0.11111111       0.00000000 </v>
   <v>       0.22222222       0.11111111       0.00000000 </v>
   <v>       0.33333333       0.11111111       0.00000000 </v>
   <v>       0.44444444       0.11111111       0.00000000 </v>
   <v>       0.22222222       0.22222222       0.00000000 </v>
   <v>       0.33333333       0.22222222       0.00000000 </v>
   <v>       0.33333333       0.33333333       0.00000000 </v>
   <v>       0.00000000       0.00000000       0.25000000 </v>
   <v>       0.11111111       0.00000000       0.25000000 </v>
   <v>       0.22222222      -0.00000000       0.25000000 </v>
   <v>       0.33333333       0.00000000       0.25000000 </v>
   <v>       0.44444444      -0.00000000       0.25000000 </v>
   <v>       0.11111111       0.11111111       0.25000000 </v>
   <v>       0.22222222       0.11111111       0.25000000 </v>
   <v>       0.33333333       0.11111111       0.25000000 </v>
   <v>       0.44444444       0.11111111       0.25000000 </v>
   <v>       0.22222222       0.22222222       0.25000000 </v>
   <v>       0.33333333       0.22222222       0.25000000 </v>
   <v>       0.33333333       0.33333333       0.25000000 </v>
   <v>       0.00000000       0.00000000       0.50000000 </v>
   <v>       0.11111111       0.00000000       0.50000000 </v>
   <v>       0.22222222      -0.00000000       0.50000000 </v>
   <v>       0.33333333       0.00000000       0.50000000 </v>
   <v>       0.44444444      -0.00000000       0.50000000 </v>
   <v>       0.11111111       0.11111111       0.50000000 </v>
   <v>       0.22222222       0.11111111       0.50000000 </v>
   <v>       0.33333333       0.11111111       0.50000000 </v>
   <v>       0.44444444       0.11111111       0.50000000 </v>
   <v>       0.22222222       0.22222222       0.50000000 </v>
   <v>       0.33333333       0.22222222       0.50000000 </v>
   <v>       0.33333333       0.33333333       0.50000000 </v>
  </varray>
  <varray name="weights" >
   <v>       0.00308642 </v>
   <v>       0.01851852 </v>
   <v>       0.01851852 </v>
   <v>       0.01851852 </v>
   <v>       0.01851852 </v>
   <v>       0.01851852 </v>
   <v>       0.03703704 </v>
   <v>       0.03703704 </v>
   <v>       0.01851852 </v>
   <v>       0.01851852 </v>
   <v>       0.03703704 </v>
   <v>       0.00617284 </v>
   <v>       0.00617284 </v>
   <v>       0.03703704 </v>
   <v>       0.03703704 </v>
   <v>       0.03703704 </v>
   <v>       0.03703704 </v>
   <v>       0.03703704 </v>
   <v>       0.07407407 </v>
   <v>       0.07407407 </v>
   <v>       0.03703704 </v>
   <v>       0.03703704 </v>
   <v>       0.07407407 </v>
   <v>       0.01234568 </v>
   <v>       0.00308642 </v>
   <v>       0.01851852 </v>
   <v>       0.01851852 </v>
   <v>       0.01851852 </v>
   <v>       0.01851852 </v>
   <v>       0.01851852 </v>
   <v>       0.03703704 </v>
   <v>       0.03703704 </v>
   <v>       0.01851852 </v>
   <v>       0.01851852 </v>
   <v>       0.03703704 </v>
   <v>       0.00617284 </v>
  </varray>
  <varray name="tetrahedronlist"  type="int" >
   <v type="int" >        8        1        2        2       14 </v>
   <v type="int" >        8        2        2        6       14 </v>
   <v type="int" >        4        2        6       14       18 </v>
   <v type="int" >        4        1        2       13       14 </v>
   <v type="int" >        8        2       13       14       14 </v>
   <v type="int" >        8        2       14       14       18 </v>
   <v type="int" >        8        2        3        6       15 </v>
   <v type="int" >        8        3        6        7       15 </v>
   <v type="int" >        4        6        7       15       19 </v>
   <v type="int" >        4        2        6       14       15 </v>
   <v type="int" >        8        6       14       15       18 </v>
   <v type="int" >        8        6       15       18       19 </v>
   <v type="int" >        8        3        4        7       16 </v>
   <v type="int" >        8        4        7        8       16 </v>
   <v type="int" >        4        7        8       16       20 </v>
   <v type="int" >        4        3        7       15       16 </v>
   <v type="int" >        8        7       15       16       19 </v>
   <v type="int" >        8        7       16       19       20 </v>
   <v type="int" >        8        4        5        8       17 </v>
   <v type="int" >        8        5        8        9       17 </v>
   <v type="int" >        4        8        9       17       21 </v>
   <v type="int" >        4        4        8       16       17 </v>
   <v type="int" >        8        8       16       17       20 </v>
   <v type="int" >        8        8       17       20       21 </v>
   <v type="int" >        8        5        5        9       17 </v>
   <v type="int" >        4        8        9       17       20 </v>
   <v type="int" >        4        5        9       17       17 </v>
   <v type="int" >        4        9       17       17       21 </v>
   <v type="int" >        8        9       17       20       21 </v>
   <v type="int" >        8        4        5        8       16 </v>
   <v type="int" >        4        7        8       16       19 </v>
   <v type="int" >        4        5        8       16       17 </v>
   <v type="int" >        8        8       16       19       20 </v>
   <v type="int" >        8        3        4        7       15 </v>
   <v type="int" >        4        6        7       15       18 </v>
   <v type="int" >        4        4        7       15       16 </v>
   <v type="int" >        8        7       15       18       19 </v>
   <v type="int" >        8        2        3        6       14 </v>
   <v type="int" >        4        2        6       14       14 </v>
   <v type="int" >        4        3        6       14       15 </v>
   <v type="int" >        4        6       14       14       18 </v>
   <v type="int" >        4        1        2        2       13 </v>
   <v type="int" >        4        2        2       13       14 </v>
   <v type="int" >        8        2        3        6       18 </v>
   <v type="int" >        8        3        6        7       18 </v>
   <v type="int" >        4        3        7       18       19 </v>
   <v type="int" >        4        2        3       14       18 </v>
   <v type="int" >        8        3       14       15       18 </v>
   <v type="int" >        8        3       15       18       19 </v>
   <v type="int" >        8        6        7        7       19 </v>
   <v type="int" >        8        7        7       10       19 </v>
   <v type="int" >        4        7       10       19       22 </v>
   <v type="int" >        4        6        7       18       19 </v>
   <v type="int" >        8        7       18       19       19 </v>
   <v type="int" >        8        7       19       19       22 </v>
   <v type="int" >        8        7        8       10       20 </v>
   <v type="int" >        8        8       10       11       20 </v>
   <v type="int" >        4       10       11       20       23 </v>
   <v type="int" >        4        7       10       19       20 </v>
   <v type="int" >        8       10       19       20       22 </v>
   <v type="int" >        8       10       20       22       23 </v>
   <v type="int" >        8        8        9       11       21 </v>
   <v type="int" >        4        9       11       11       21 </v>
   <v type="int" >        4       11       11       21       23 </v>
   <v type="int" >        4        8       11       20       21 </v>
   <v type="int" >        8       11       20       21       23 </v>
   <v type="int" >        8       11       21       23       23 </v>
   <v type="int" >        8        8        9       11       20 </v>
   <v type="int" >        4       10       11       20       22 </v>
   <v type="int" >        4        9       11       20       21 </v>
   <v type="int" >        8       11       20       22       23 </v>
   <v type="int" >        8        7        8       10       19 </v>
   <v type="int" >        4        7       10       19       19 </v>
   <v type="int" >        4        8       10       19       20 </v>
   <v type="int" >        4       10       19       19       22 </v>
   <v type="int" >        4        6        7        7       18 </v>
   <v type="int" >        4        3        7       15       18 </v>
   <v type="int" >        4        7        7       18       19 </v>
   <v type="int" >        4        3        6       14       18 </v>
   <v type="int" >        8        3        4        7       19 </v>
   <v type="int" >        8        4        7        8       19 </v>
   <v type="int" >        4        4        8       19       20 </v>
   <v type="int" >        4        3        4       15       19 </v>
   <v type="int" >        8        4       15       16       19 </v>
   <v type="int" >        8        4       16       19       20 </v>
   <v type="int" >        8        7        8       10       22 </v>
   <v type="int" >        8        8       10       11       22 </v>
   <v type="int" >        4        8       11       22       23 </v>
   <v type="int" >        4        7        8       19       22 </v>
   <v type="int" >        8        8       19       20       22 </v>
   <v type="int" >        8        8       20       22       23 </v>
   <v type="int" >        8       10       11       11       23 </v>
   <v type="int" >       16       11       11       12       23 </v>
   <v type="int" >        8       11       12       23       24 </v>
   <v type="int" >        4       10       11       22       23 </v>
   <v type="int" >        8       11       22       23       23 </v>
   <v type="int" >       16       11       23       23       24 </v>
   <v type="int" >        8       11       12       23       23 </v>
   <v type="int" >        8       12       23       23       24 </v>
   <v type="int" >        4       10       11       11       22 </v>
   <v type="int" >        4        8       11       20       22 </v>
   <v type="int" >        4       11       11       22       23 </v>
   <v type="int" >        4        4        8       16       19 </v>
   <v type="int" >        4        8       10       19       22 </v>
   <v type="int" >        4        4        7       15       19 </v>
   <v type="int" >        8        4        5        8       20 </v>
   <v type="int" >        8        5        8        9       20 </v>
   <v type="int" >        4        5        9       20       21 </v>
   <v type="int" >        4        4        5       16       20 </v>
   <v type="int" >        8        5       16       17       20 </v>
   <v type="int" >        8        5       17       20       21 </v>
   <v type="int" >        8        8        9       11       23 </v>
   <v type="int" >        8        9       11       11       23 </v>
   <v type="int" >        4        9       11       23       23 </v>
   <v type="int" >        4        8        9       20       23 </v>
   <v type="int" >        8        9       20       21       23 </v>
   <v type="int" >        4        9       21       23       23 </v>
   <v type="int" >        8       11       11       12       24 </v>
   <v type="int" >        8       11       11       23       24 </v>
   <v type="int" >        4        9       11       21       23 </v>
   <v type="int" >        4        5        9       17       20 </v>
   <v type="int" >        4        9       11       20       23 </v>
   <v type="int" >        4        5        8       16       20 </v>
   <v type="int" >        4        5        5        9       21 </v>
   <v type="int" >        8        5        8        9       21 </v>
   <v type="int" >        4        5        8       20       21 </v>
   <v type="int" >        4        5        5       17       21 </v>
   <v type="int" >        8        5       17       17       21 </v>
   <v type="int" >        8        8       10       11       23 </v>
   <v type="int" >        4        8       10       22       23 </v>
   <v type="int" >        4        8        9       21       23 </v>
   <v type="int" >        8        8       20       21       23 </v>
   <v type="int" >        4        8       10       20       23 </v>
   <v type="int" >        4       10       11       23       23 </v>
   <v type="int" >        4       10       22       23       23 </v>
   <v type="int" >        4        5        8       17       21 </v>
   <v type="int" >        4        8       11       21       23 </v>
   <v type="int" >        4        5        9       17       21 </v>
   <v type="int" >        8        4        7        8       20 </v>
   <v type="int" >        4        4        7       19       20 </v>
   <v type="int" >        4        4        5       17       20 </v>
   <v type="int" >        8        4       16       17       20 </v>
   <v type="int" >        4        7        7       10       22 </v>
   <v type="int" >        4        7        7       19       22 </v>
   <v type="int" >        4        7        8       20       22 </v>
   <v type="int" >        8        7       19       20       22 </v>
   <v type="int" >        4        4        7       16       20 </v>
   <v type="int" >        4        7       10       20       22 </v>
   <v type="int" >        4        4        8       17       20 </v>
   <v type="int" >        8        3        6        7       19 </v>
   <v type="int" >        4        3        6       18       19 </v>
   <v type="int" >        4        3        4       16       19 </v>
   <v type="int" >        8        3       15       16       19 </v>
   <v type="int" >        4        3        6       15       19 </v>
   <v type="int" >        4        6        7       19       19 </v>
   <v type="int" >        4        6       18       19       19 </v>
   <v type="int" >        4        3        7       16       19 </v>
   <v type="int" >        4        2        2        6       18 </v>
   <v type="int" >        4        2        2       14       18 </v>
   <v type="int" >        4        2        3       15       18 </v>
   <v type="int" >        8        2       14       15       18 </v>
   <v type="int" >        4        2        6       15       18 </v>
   <v type="int" >        4        1        2       14       14 </v>
   <v type="int" >        4        1       13       14       14 </v>
   <v type="int" >        8       13       14       14       26 </v>
   <v type="int" >        8       14       14       18       26 </v>
   <v type="int" >        4       14       18       26       30 </v>
   <v type="int" >        4       13       14       25       26 </v>
   <v type="int" >        8       14       25       26       26 </v>
   <v type="int" >        8       14       26       26       30 </v>
   <v type="int" >        8       14       15       18       27 </v>
   <v type="int" >        8       15       18       19       27 </v>
   <v type="int" >        4       18       19       27       31 </v>
   <v type="int" >        4       14       18       26       27 </v>
   <v type="int" >        8       18       26       27       30 </v>
   <v type="int" >        8       18       27       30       31 </v>
   <v type="int" >        8       15       16       19       28 </v>
   <v type="int" >        8       16       19       20       28 </v>
   <v type="int" >        4       19       20       28       32 </v>
   <v type="int" >        4       15       19       27       28 </v>
   <v type="int" >        8       19       27       28       31 </v>
   <v type="int" >        8       19       28       31       32 </v>
   <v type="int" >        8       16       17       20       29 </v>
   <v type="int" >        8       17       20       21       29 </v>
   <v type="int" >        4       20       21       29       33 </v>
   <v type="int" >        4       16       20       28       29 </v>
   <v type="int" >        8       20       28       29       32 </v>
   <v type="int" >        8       20       29       32       33 </v>
   <v type="int" >        8       17       17       21       29 </v>
   <v type="int" >        4       20       21       29       32 </v>
   <v type="int" >        4       17       21       29       29 </v>
   <v type="int" >        4       21       29       29       33 </v>
   <v type="int" >        8       21       29       32       33 </v>
   <v type="int" >        8       16       17       20       28 </v>
   <v type="int" >        4       19       20       28       31 </v>
   <v type="int" >        4       17       20       28       29 </v>
   <v type="int" >        8       20       28       31       32 </v>
   <v type="int" >        8       15       16       19       27 </v>
   <v type="int" >        4       18       19       27       30 </v>
   <v type="int" >        4       16       19       27       28 </v>
   <v type="int" >        8       19       27       30       31 </v>
   <v type="int" >        8       14       15       18       26 </v>
   <v type="int" >        4       14       18       26       26 </v>
   <v type="int" >        4       15       18       26       27 </v>
   <v type="int" >        4       18       26       26       30 </v>
   <v type="int" >        4       13       14       14       25 </v>
   <v type="int" >        4       14       14       25       26 </v>
   <v type="int" >        8       14       15       18       30 </v>
   <v type="int" >        8       15       18       19       30 </v>
   <v type="int" >        4       15       19       30       31 </v>
   <v type="int" >        4       14       15       26       30 </v>
   <v type="int" >        8       15       26       27       30 </v>
   <v type="int" >        8       15       27       30       31 </v>
   <v type="int" >        8       18       19       19       31 </v>
   <v type="int" >        8       19       19       22       31 </v>
   <v type="int" >        4       19       22       31       34 </v>
   <v type="int" >        4       18       19       30       31 </v>
   <v type="int" >        8       19       30       31       31 </v>
   <v type="int" >        8       19       31       31       34 </v>
   <v type="int" >        8       19       20       22       32 </v>
   <v type="int" >        8       20       22       23       32 </v>
   <v type="int" >        4       22       23       32       35 </v>
   <v type="int" >        4       19       22       31       32 </v>
   <v type="int" >        8       22       31       32       34 </v>
   <v type="int" >        8       22       32       34       35 </v>
   <v type="int" >        8       20       21       23       33 </v>
   <v type="int" >        4       21       23       23       33 </v>
   <v type="int" >        4       23       23       33       35 </v>
   <v type="int" >        4       20       23       32       33 </v>
   <v type="int" >        8       23       32       33       35 </v>
   <v type="int" >        8       23       33       35       35 </v>
   <v type="int" >        8       20       21       23       32 </v>
   <v type="int" >        4       22       23       32       34 </v>
   <v type="int" >        4       21       23       32       33 </v>
   <v type="int" >        8       23       32       34       35 </v>
   <v type="int" >        8       19       20       22       31 </v>
   <v type="int" >        4       19       22       31       31 </v>
   <v type="int" >        4       20       22       31       32 </v>
   <v type="int" >        4       22       31       31       34 </v>
   <v type="int" >        4       18       19       19       30 </v>
   <v type="int" >        4       15       19       27       30 </v>
   <v type="int" >        4       19       19       30       31 </v>
   <v type="int" >        4       15       18       26       30 </v>
   <v type="int" >        8       15       16       19       31 </v>
   <v type="int" >        8       16       19       20       31 </v>
   <v type="int" >        4       16       20       31       32 </v>
   <v type="int" >        4       15       16       27       31 </v>
   <v type="int" >        8       16       27       28       31 </v>
   <v type="int" >        8       16       28       31       32 </v>
   <v type="int" >        8       19       20       22       34 </v>
   <v type="int" >        8       20       22       23       34 </v>
   <v type="int" >        4       20       23       34       35 </v>
   <v type="int" >        4       19       20       31       34 </v>
   <v type="int" >        8       20       31       32       34 </v>
   <v type="int" >        8       20       32       34       35 </v>
   <v type="int" >        8       22       23       23       35 </v>
   <v type="int" >       16       23       23       24       35 </v>
   <v type="int" >        8       23       24       35       36 </v>
   <v type="int" >        4       22       23       34       35 </v>
   <v type="int" >        8       23       34       35       35 </v>
   <v type="int" >       16       23       35       35       36 </v>
   <v type="int" >        8       23       24       35       35 </v>
   <v type="int" >        8       24       35       35       36 </v>
   <v type="int" >        4       22       23       23       34 </v>
   <v type="int" >        4       20       23       32       34 </v>
   <v type="int" >        4       23       23       34       35 </v>
   <v type="int" >        4       16       20       28       31 </v>
   <v type="int" >        4       20       22       31       34 </v>
   <v type="int" >        4       16       19       27       31 </v>
   <v type="int" >        8       16       17       20       32 </v>
   <v type="int" >        8       17       20       21       32 </v>
   <v type="int" >        4       17       21       32       33 </v>
   <v type="int" >        4       16       17       28       32 </v>
   <v type="int" >        8       17       28       29       32 </v>
   <v type="int" >        8       17       29       32       33 </v>
   <v type="int" >        8       20       21       23       35 </v>
   <v type="int" >        8       21       23       23       35 </v>
   <v type="int" >        4       21       23       35       35 </v>
   <v type="int" >        4       20       21       32       35 </v>
   <v type="int" >        8       21       32       33       35 </v>
   <v type="int" >        4       21       33       35       35 </v>
   <v type="int" >        8       23       23       24       36 </v>
   <v type="int" >        8       23       23       35       36 </v>
   <v type="int" >        4       21       23       33       35 </v>
   <v type="int" >        4       17       21       29       32 </v>
   <v type="int" >        4       21       23       32       35 </v>
   <v type="int" >        4       17       20       28       32 </v>
   <v type="int" >        4       17       17       21       33 </v>
   <v type="int" >        8       17       20       21       33 </v>
   <v type="int" >        4       17       20       32       33 </v>
   <v type="int" >        4       17       17       29       33 </v>
   <v type="int" >        8       17       29       29       33 </v>
   <v type="int" >        8       20       22       23       35 </v>
   <v type="int" >        4       20       22       34       35 </v>
   <v type="int" >        4       20       21       33       35 </v>
   <v type="int" >        8       20       32       33       35 </v>
   <v type="int" >        4       20       22       32       35 </v>
   <v type="int" >        4       22       23       35       35 </v>
   <v type="int" >        4       22       34       35       35 </v>
   <v type="int" >        4       17       20       29       33 </v>
   <v type="int" >        4       20       23       33       35 </v>
   <v type="int" >        4       17       21       29       33 </v>
   <v type="int" >        8       16       19       20       32 </v>
   <v type="int" >        4       16       19       31       32 </v>
   <v type="int" >        4       16       17       29       32 </v>
   <v type="int" >        8       16       28       29       32 </v>
   <v type="int" >        4       19       19       22       34 </v>
   <v type="int" >        4       19       19       31       34 </v>
   <v type="int" >        4       19       20       32       34 </v>
   <v type="int" >        8       19       31       32       34 </v>
   <v type="int" >        4       16       19       28       32 </v>
   <v type="int" >        4       19       22       32       34 </v>
   <v type="int" >        4       16       20       29       32 </v>
   <v type="int" >        8       15       18       19       31 </v>
   <v type="int" >        4       15       18       30       31 </v>
   <v type="int" >        4       15       16       28       31 </v>
   <v type="int" >        8       15       27       28       31 </v>
   <v type="int" >        4       15       18       27       31 </v>
   <v type="int" >        4       18       19       31       31 </v>
   <v type="int" >        4       18       30       31       31 </v>
   <v type="int" >        4       15       19       28       31 </v>
   <v type="int" >        4       14       14       18       30 </v>
   <v type="int" >        4       14       14       26       30 </v>
   <v type="int" >        4       14       15       27       30 </v>
   <v type="int" >        8       14       26       27       30 </v>
   <v type="int" >        4       14       18       27       30 </v>
   <v type="int" >        4       13       14       26       26 </v>
   <v type="int" >        4       13       25       26       26 </v>
  </varray>
  <i name="volumeweight">      0.00051440 </i>
 </kpoints>
 <parameters>
  <separator name="general" >
   <i type="string" name="SYSTEM">unknown system</i>
   <i type="logical" name="LCOMPAT"> F  </i>
  </separator>
  <separator name="electronic" >
   <i type="string" name="PREC">accura</i>
   <i name="ENMAX">    520.00000000</i>
   <i name="ENAUG">    628.94500000</i>
   <i name="EDIFF">      0.00001000</i>
   <i type="int" name="IALGO">    68</i>
   <i type="int" name="IWAVPR">    11</i>
   <i type="int" name="NBANDS">    20</i>
   <i name="NELECT">     28.00000000</i>
   <i type="int" name="TURBO">     0</i>
   <i type="int" name="IRESTART">     0</i>
   <i type="int" name="NREBOOT">     0</i>
   <i type="int" name="NMIN">     0</i>
   <i name="EREF">      0.00000000</i>
   <separator name="electronic smearing" >
    <i type="int" name="ISMEAR">    -5</i>
    <i name="SIGMA">      0.05000000</i>
    <i name="KSPACING">      0.50000000</i>
    <i type="logical" name="KGAMMA"> T  </i>
   </separator>
   <separator name="electronic projectors" >
    <i type="logical" name="LREAL"> T  </i>
    <v name="ROPT">     -0.00025000     -0.00025000</v>
    <i type="int" name="LMAXPAW">  -100</i>
    <i type="int" name="LMAXMIX">     2</i>
    <i type="logical" name="NLSPLINE"> F  </i>
   </separator>
   <separator name="electronic startup" >
    <i type="int" name="ISTART">     0</i>
    <i type="int" name="ICHARG">     2</i>
    <i type="int" name="INIWAV">     1</i>
   </separator>
   <separator name="electronic spin" >
    <i type="int" name="ISPIN">     2</i>
    <i type="logical" name="LNONCOLLINEAR"> F  </i>
    <v name="MAGMOM">      0.00000000      0.00000000      0.00000000      0.00000000      0.00000000      0.00000000      0.00000000      0.00000000</v>
    <i name="NUPDOWN">     -1.00000000</i>
    <i type="logical" name="LSORBIT"> F  </i>
    <v name="SAXIS">      0.00000000      0.00000000      1.00000000</v>
    <i type="logical" name="LSPIRAL"> F  </i>
    <v name="QSPIRAL">      0.00000000      0.00000000      0.00000000</v>
    <i type="logical" name="LZEROZ"> F  </i>
   </separator>
   <separator name="electronic exchange-correlation" >
    <i type="logical" name="LASPH"> T  </i>
    <i type="logical" name="LMETAGGA"> F  </i>
   </separator>
   <separator name="electronic convergence" >
    <i type="int" name="NELM">   100</i>
    <i type="int" name="NELMDL">    -5</i>
    <i type="int" name="NELMIN">     2</i>
    <i name="ENINI">    520.00000000</i>
    <separator name="electronic convergence detail" >
     <i type="logical" name="LDIAG"> T  </i>
     <i type="logical" name="LSUBROT"> F  </i>
     <i name="WEIMIN">      0.00100000</i>
     <i name="EBREAK">      0.00000013</i>
     <i name="DEPER">      0.30000000</i>
     <i type="int" name="NRMM">     4</i>
     <i name="TIME">      0.40000000</i>
    </separator>
   </separator>
   <separator name="electronic mixer" >
    <i name="AMIX">      0.40000000</i>
    <i name="BMIX">      1.00000000</i>
    <i name="AMIN">      0.10000000</i>
    <i name="AMIX_MAG">      1.60000000</i>
    <i name="BMIX_MAG">      1.00000000</i>
    <separator name="electronic mixer details" >
     <i type="int" name="IMIX">     4</i>
     <i type="logical" name="MIXFIRST"> F  </i>
     <i type="int" name="MAXMIX">   -45</i>
     <i name="WC">    100.00000000</i>
     <i type="int" name="INIMIX">     1</i>
     <i type="int" name="MIXPRE">     1</i>
     <i type="int" name="MREMOVE">     5</i>
    </separator>
   </separator>
   <separator name="electronic dipolcorrection" >
    <i type="logical" name="LDIPOL"> F  </i>
    <i type="logical" name="LMONO"> F  </i>
    <i type="int" name="IDIPOL">     0</i>
    <i name="EPSILON">      1.00000000</i>
    <v name="DIPOL">   -100.00000000   -100.00000000   -100.00000000</v>
    <i name="EFIELD">      0.00000000</i>
   </separator>
  </separator>
  <separator name="grids" >
   <i type="int" name="NGX">    32</i>
   <i type="int" name="NGY">    32</i>
   <i type="int" name="NGZ">    56</i>
   <i type="int" name="NGXF">    64</i>
   <i type="int" name="NGYF">    64</i>
   <i type="int" name="NGZF">   112</i>
   <i type="logical" name="ADDGRID"> F  </i>
  </separator>
  <separator name="ionic" >
   <i type="int" name="NSW">    99</i>
   <i type="int" name="IBRION">     2</i>
   <i type="int" name="MDALGO">     0</i>
   <i type="int" name="ISIF">     3</i>
   <i name="PSTRESS">      0.00000000</i>
   <i name="EDIFFG">      0.00010000</i>
   <i type="int" name="NFREE">     1</i>
   <i name="POTIM">      0.50000000</i>
   <i name="SMASS">     -3.00000000</i>
   <i name="SCALEE">      1.00000000</i>
  </separator>
  <separator name="ionic md" >
   <i name="TEBEG">      0.00010000</i>
   <i name="TEEND">      0.00010000</i>
   <i type="int" name="NBLOCK">     1</i>
   <i type="int" name="KBLOCK">    99</i>
   <i type="int" name="NPACO">   256</i>
   <i name="APACO">     16.00000000</i>
  </separator>
  <separator name="symmetry" >
   <i type="int" name="ISYM">     2</i>
   <i name="SYMPREC">      0.00001000</i>
  </separator>
  <separator name="dos" >
   <i type="int" name="LORBIT">    11</i>
   <v name="RWIGS">     -1.00000000     -1.00000000</v>
   <i type="int" name="NEDOS">   301</i>
   <i name="EMIN">     10.00000000</i>
   <i name="EMAX">    -10.00000000</i>
   <i name="EFERMI">      0.00000000</i>
  </separator>
  <separator name="writing" >
   <i type="int" name="NWRITE">     2</i>
   <i type="logical" name="LWAVE"> F  </i>
   <i type="logical" name="LDOWNSAMPLE"> F  </i>
   <i type="logical" name="LCHARG"> F  </i>
   <i type="logical" name="LPARD"> F  </i>
   <i type="logical" name="LVTOT"> F  </i>
   <i type="logical" name="LVHAR"> F  </i>
   <i type="logical" name="LELF"> F  </i>
   <i type="logical" name="LOPTICS"> F  </i>
   <v name="STM">      0.00000000      0.00000000      0.00000000      0.00000000      0.00000000      0.00000000      0.00000000</v>
  </separator>
  <separator name="performance" >
   <i type="int" name="NPAR">     4</i>
   <i type="int" name="NSIM">     4</i>
   <i type="int" name="NBLK">    -1</i>
   <i type="logical" name="LPLANE"> T  </i>
   <i type="logical" name="LSCALAPACK"> T  </i>
   <i type="logical" name="LSCAAWARE"> F  </i>
   <i type="logical" name="LSCALU"> F  </i>
   <i type="logical" name="LASYNC"> F  </i>
   <i type="logical" name="LORBITALREAL"> F  </i>
  </separator>
  <separator name="miscellaneous" >
   <i type="int" name="IDIOT">     3</i>
   <i type="int" name="ISPECIAL">     0</i>
   <i type="logical" name="LMUSIC"> F  </i>
   <v name="POMASS">      7.01000000     30.97400000</v>
   <v name="DARWINR">      0.00000000      0.00000000</v>
   <v name="DARWINV">      1.00000000      1.00000000</v>
   <i type="logical" name="LCORR"> T  </i>
  </separator>
  <i type="logical" name="GGA_COMPAT"> T  </i>
  <i type="logical" name="LBERRY"> F  </i>
  <i type="int" name="ICORELEVEL">     0</i>
  <i type="logical" name="LDAU"> F  </i>
  <i type="int" name="I_CONSTRAINED_M">     0</i>
  <separator name="electronic exchange-correlation" >
   <i type="string" name="GGA">--</i>
   <i type="int" name="VOSKOWN">     0</i>
   <i type="logical" name="LHFCALC"> F  </i>
   <i type="string" name="PRECFOCK"></i>
   <i type="logical" name="LSYMGRAD"> F  </i>
   <i type="logical" name="LHFONE"> F  </i>
   <i type="logical" name="LRHFCALC"> F  </i>
   <i type="logical" name="LTHOMAS"> F  </i>
   <i type="logical" name="LMODELHF"> F  </i>
   <i name="ENCUT4O">     -1.00000000</i>
   <i type="int" name="EXXOEP">     0</i>
   <i type="int" name="FOURORBIT">     0</i>
   <i name="AEXX">      0.00000000</i>
   <i name="HFALPHA">      0.00000000</i>
   <i name="MCALPHA">      0.00000000</i>
   <i name="ALDAX">      1.00000000</i>
   <i name="AGGAX">      1.00000000</i>
   <i name="ALDAC">      1.00000000</i>
   <i name="AGGAC">      1.00000000</i>
   <i type="int" name="NKREDX">     1</i>
   <i type="int" name="NKREDY">     1</i>
   <i type="int" name="NKREDZ">     1</i>
   <i type="logical" name="SHIFTRED"> F  </i>
   <i type="logical" name="ODDONLY"> F  </i>
   <i type="logical" name="EVENONLY"> F  </i>
   <i type="int" name="LMAXFOCK">     0</i>
   <i type="int" name="NMAXFOCKAE">     0</i>
   <i type="logical" name="LFOCKAEDFT"> F  </i>
   <i name="HFSCREEN">      0.00000000</i>
   <i name="HFSCREENC">      0.00000000</i>
   <i type="int" name="NBANDSGWLOW">     0</i>
  </separator>
  <separator name="vdW DFT" >
   <i type="logical" name="LUSE_VDW"> F  </i>
   <i name="Zab_VDW">     -0.84910000</i>
   <i name="PARAM1">      0.12340000</i>
   <i name="PARAM2">      1.00000000</i>
   <i name="PARAM3">      0.00000000</i>
  </separator>
  <separator name="model GW" >
   <i type="int" name="MODEL_GW">     0</i>
   <i name="MODEL_EPS0">      8.82290886</i>
   <i name="MODEL_ALPHA">      1.00000000</i>
  </separator>
  <separator name="linear response parameters" >
   <i type="logical" name="LEPSILON"> F  </i>
   <i type="logical" name="LRPA"> F  </i>
   <i type="logical" name="LNABLA"> F  </i>
   <i type="logical" name="LVEL"> F  </i>
   <i type="int" name="KINTER">     0</i>
   <i name="CSHIFT">      0.10000000</i>
   <i name="OMEGAMAX">     -1.00000000</i>
   <i name="DEG_THRESHOLD">      0.00200000</i>
   <i name="RTIME">     -0.10000000</i>
   <i name="WPLASMAI">      0.00000000</i>
   <v name="DFIELD">      0.00000000      0.00000000      0.00000000</v>
   <v name="WPLASMA">      0.00000000      0.00000000      0.00000000      0.00000000      0.00000000      0.00000000      0.00000000      0.00000000      0.00000000</v>
  </separator>
  <separator name="orbital magnetization" >
   <i type="logical" name="NUCIND"> F  </i>
   <v name="MAGPOS">      0.00000000      0.00000000      0.00000000</v>
   <i type="logical" name="LNICSALL"> T  </i>
   <i type="logical" name="ORBITALMAG"> F  </i>
   <i type="logical" name="LMAGBLOCH"> F  </i>
   <i type="logical" name="LCHIMAG"> F  </i>
   <i type="logical" name="LGAUGE"> T  </i>
   <i type="int" name="MAGATOM">     0</i>
   <v name="MAGDIPOL">      0.00000000      0.00000000      0.00000000</v>
   <v name="AVECCONST">      0.00000000      0.00000000      0.00000000</v>
  </separator>
  <separator name="response functions" >
   <i type="logical" name="LADDER"> F  </i>
   <i type="logical" name="LRPAFORCE"> F  </i>
   <i type="logical" name="LFXC"> F  </i>
   <i type="logical" name="LHARTREE"> T  </i>
   <i type="int" name="IBSE">     0</i>
   <v type="int" name="KPOINT">    -1     0     0     0</v>
   <i type="logical" name="LTCTE"> F  </i>
   <i type="logical" name="LTETE"> F  </i>
   <i type="logical" name="LTRIPLET"> F  </i>
   <i type="logical" name="LFXCEPS"> F  </i>
   <i type="logical" name="LFXHEG"> F  </i>
   <i type="int" name="NATURALO">     2</i>
   <i type="logical" name="L2ORDER"> F  </i>
   <i type="logical" name="LMP2LT"> F  </i>
   <i type="logical" name="LUSEW"> F  </i>
   <i name="ENCUTGW">     -2.00000000</i>
   <i name="ENCUTGWSOFT">     -2.00000000</i>
   <i name="ENCUTLF">     -1.00000000</i>
   <i type="int" name="LMAXMP2">    -1</i>
   <i name="SCISSOR">      0.00000000</i>
   <i type="int" name="NOMEGA">     0</i>
   <i type="int" name="NOMEGAR">     0</i>
   <i type="int" name="NBANDSGW">    -1</i>
   <i type="int" name="NBANDSO">    -1</i>
   <i type="int" name="NBANDSV">    -1</i>
   <i type="int" name="NELM">   100</i>
   <i type="int" name="NELMHF">     1</i>
   <i type="int" name="DIM">     3</i>
   <i type="int" name="ANTIRES">     0</i>
   <i name="OMEGAMAX">    -30.00000000</i>
   <i name="OMEGAMIN">    -30.00000000</i>
   <i name="OMEGATL">   -200.00000000</i>
   <i type="int" name="OMEGAGRID">   140</i>
   <i name="CSHIFT">     -0.10000000</i>
   <i type="logical" name="SELFENERGY"> F  </i>
   <i type="logical" name="LSPECTRAL"> F  </i>
   <i type="logical" name="LSPECTRALGW"> F  </i>
   <i type="logical" name="LSINGLES"> F  </i>
   <i type="logical" name="LFERMIGW"> F  </i>
   <i type="logical" name="ODDONLYGW"> F  </i>
   <i type="logical" name="EVENONLYGW"> F  </i>
   <i type="int" name="NKREDLFX">     1</i>
   <i type="int" name="NKREDLFY">     1</i>
   <i type="int" name="NKREDLFZ">     1</i>
   <i type="int" name="MAXMEM">  2800</i>
   <i type="int" name="TELESCOPE">     0</i>
   <i type="int" name="TAUPAR">     1</i>
   <i type="int" name="OMEGAPAR">    -1</i>
   <i name="LAMBDA">      1.00000000</i>
  </separator>
  <separator name="External order field" >
   <i name="OFIELD_KAPPA">      0.00000000</i>
   <v name="OFIELD_K">      0.00000000      0.00000000      0.00000000</v>
   <i name="OFIELD_Q6_NEAR">      0.00000000</i>
   <i name="OFIELD_Q6_FAR">      0.00000000</i>
   <i name="OFIELD_A">      0.00000000</i>
  </separator>
 </parameters>
 <atominfo>
  <atoms>       8 </atoms>
  <types>       2 </types>
  <array name="atoms" >
   <dimension dim="1">ion</dimension>
   <field type="string">element</field>
   <field type="int">atomtype</field>
   <set>
    <rc><c>Li</c><c>   1</c></rc>
    <rc><c>Li</c><c>   1</c></rc>
    <rc><c>Li</c><c>   1</c></rc>
    <rc><c>Li</c><c>   1</c></rc>
    <rc><c>Li</c><c>   1</c></rc>
    <rc><c>Li</c><c>   1</c></rc>
    <rc><c>P </c><c>   2</c></rc>
    <rc><c>P </c><c>   2</c></rc>
   </set>
  </array>
  <array name="atomtypes" >
   <dimension dim="1">type</dimension>
   <field type="int">atomspertype</field>
   <field type="string">element</field>
   <field>mass</field>
   <field>valence</field>
   <field type="string">pseudopotential</field>
   <set>
    <rc><c>   6</c><c>Li</c><c>      7.01000000</c><c>      3.00000000</c><c>  PAW_PBE Li_sv 10Sep2004               </c></rc>
    <rc><c>   2</c><c>P </c><c>     30.97400000</c><c>      5.00000000</c><c>  PAW_PBE P 06Sep2000                   </c></rc>
   </set>
  </array>
 </atominfo>
 <structure name="initialpos" >
  <crystal>
   <varray name="basis" >
    <v>       2.11792900      -3.66836100       0.00000000 </v>
    <v>       2.11792900       3.66836100       0.00000000 </v>
    <v>       0.00000000       0.00000000       7.57071800 </v>
   </varray>
   <i name="volume">    117.63878486 </i>
   <varray name="rec_basis" >
    <v>       0.23607968      -0.13630065       0.00000000 </v>
    <v>       0.23607968       0.13630065       0.00000000 </v>
    <v>       0.00000000       0.00000000       0.13208787 </v>
   </varray>
  </crystal>
  <varray name="positions" >
   <v>       0.00000000       0.00000000       0.25000000 </v>
   <v>       0.00000000       0.00000000       0.75000000 </v>
   <v>       0.33333300       0.66666700       0.58411900 </v>
   <v>       0.66666700       0.33333300       0.08411900 </v>
   <v>       0.66666700       0.33333300       0.41588100 </v>
   <v>       0.33333300       0.66666700       0.91588100 </v>
   <v>       0.33333300       0.66666700       0.25000000 </v>
   <v>       0.66666700       0.33333300       0.75000000 </v>
  </varray>
 </structure>
 <calculation>
  <scstep>
   <time name="dav">    0.77    0.89</time>
   <time name="total">    1.07    1.24</time>
   <energy>
    <i name="alphaZ">     20.50366002 </i>
    <i name="ewald">   -836.20080173 </i>
    <i name="hartreedc">   -253.83226653 </i>
    <i name="XCdc">     80.83934098 </i>
    <i name="pawpsdc">    758.08981490 </i>
    <i name="pawaedc">   -834.19955962 </i>
    <i name="eentropy">      0.00000000 </i>
    <i name="bandstr">   -351.65597343 </i>
    <i name="atom">   1568.72097452 </i>
    <i name="e_fr_energy">    152.26518909 </i>
    <i name="e_wo_entrp">    152.26518909 </i>
    <i name="e_0_energy">    152.26518909 </i>
   </energy>
  </scstep>
  <scstep>
   <time name="dav">    0.73    0.74</time>
   <time name="total">    0.74    0.74</time>
   <energy>
    <i name="e_fr_energy">     -1.08364867 </i>
    <i name="e_wo_entrp">     -1.08364867 </i>
    <i name="e_0_energy">     -1.08364867 </i>
   </energy>
  </scstep>
  <scstep>
   <time name="dav">    1.07    1.07</time>
   <time name="total">    1.07    1.07</time>
   <energy>
    <i name="e_fr_energy">    -25.85676859 </i>
    <i name="e_wo_entrp">    -25.85676859 </i>
    <i name="e_0_energy">    -25.85676859 </i>
   </energy>
  </scstep>
  <scstep>
   <time name="dav">    0.93    0.93</time>
   <time name="total">    0.94    0.94</time>
   <energy>
    <i name="e_fr_energy">    -28.49869133 </i>
    <i name="e_wo_entrp">    -28.49869133 </i>
    <i name="e_0_energy">    -28.49869133 </i>
   </energy>
  </scstep>
  <scstep>
   <time name="dav">    1.01    1.01</time>
   <time name="total">    1.07    1.09</time>
   <energy>
    <i name="e_fr_energy">    -28.76919552 </i>
    <i name="e_wo_entrp">    -28.76919552 </i>
    <i name="e_0_energy">    -28.76919552 </i>
   </energy>
  </scstep>
  <scstep>
   <time name="diag">    0.15    0.15</time>
   <time name="diis">    0.50    0.50</time>
   <time name="orth">    0.01    0.01</time>
   <time name="total">    0.99    1.00</time>
   <energy>
    <i name="e_fr_energy">    -28.01438117 </i>
    <i name="e_wo_entrp">    -28.01438117 </i>
    <i name="e_0_energy">    -28.01438117 </i>
   </energy>
  </scstep>
  <scstep>
   <time name="diag">    0.14    0.14</time>
   <time name="diis">    0.47    0.47</time>
   <time name="orth">    0.01    0.01</time>
   <time name="total">    0.95    0.95</time>
   <energy>
    <i name="e_fr_energy">    -27.92017300 </i>
    <i name="e_wo_entrp">    -27.92017300 </i>
    <i name="e_0_energy">    -27.92017300 </i>
   </energy>
  </scstep>
  <scstep>
   <time name="diag">    0.14    0.14</time>
   <time name="diis">    0.56    0.56</time>
   <time name="orth">    0.02    0.02</time>
   <time name="total">    1.05    1.05</time>
   <energy>
    <i name="e_fr_energy">    -27.92077986 </i>
    <i name="e_wo_entrp">    -27.92077986 </i>
    <i name="e_0_energy">    -27.92077986 </i>
   </energy>
  </scstep>
  <scstep>
   <time name="diag">    0.14    0.14</time>
   <time name="diis">    0.59    0.59</time>
   <time name="orth">    0.01    0.01</time>
   <time name="total">    1.07    1.07</time>
   <energy>
    <i name="e_fr_energy">    -27.92551302 </i>
    <i name="e_wo_entrp">    -27.92551302 </i>
    <i name="e_0_energy">    -27.92551302 </i>
   </energy>
  </scstep>
  <scstep>
   <time name="diag">    0.14    0.14</time>
   <time name="diis">    0.49    0.49</time>
   <time name="orth">    0.01    0.01</time>
   <time name="total">    0.97    0.97</time>
   <energy>
    <i name="e_fr_energy">    -27.92707228 </i>
    <i name="e_wo_entrp">    -27.92707228 </i>
    <i name="e_0_energy">    -27.92707228 </i>
   </energy>
  </scstep>
  <scstep>
   <time name="diag">    0.14    0.14</time>
   <time name="diis">    0.45    0.45</time>
   <time name="orth">    0.01    0.01</time>
   <time name="total">    0.93    0.93</time>
   <energy>
    <i name="e_fr_energy">    -27.92779129 </i>
    <i name="e_wo_entrp">    -27.92779129 </i>
    <i name="e_0_energy">    -27.92779129 </i>
   </energy>
  </scstep>
  <scstep>
   <time name="diag">    0.14    0.14</time>
   <time name="diis">    0.44    0.44</time>
   <time name="orth">    0.01    0.01</time>
   <time name="total">    0.93    0.93</time>
   <energy>
    <i name="e_fr_energy">    -27.92829127 </i>
    <i name="e_wo_entrp">    -27.92829127 </i>
    <i name="e_0_energy">    -27.92829127 </i>
   </energy>
  </scstep>
  <scstep>
   <time name="diag">    0.14    0.14</time>
   <time name="diis">    0.44    0.44</time>
   <time name="orth">    0.01    0.01</time>
   <time name="total">    0.93    0.93</time>
   <energy>
    <i name="e_fr_energy">    -27.92844288 </i>
    <i name="e_wo_entrp">    -27.92844288 </i>
    <i name="e_0_energy">    -27.92844288 </i>
   </energy>
  </scstep>
  <scstep>
   <time name="diag">    0.14    0.14</time>
   <time name="diis">    0.43    0.43</time>
   <time name="orth">    0.01    0.01</time>
   <time name="total">    0.91    0.92</time>
   <energy>
    <i name="e_fr_energy">    -27.92853587 </i>
    <i name="e_wo_entrp">    -27.92853587 </i>
    <i name="e_0_energy">    -27.92853587 </i>
   </energy>
  </scstep>
  <scstep>
   <time name="diag">    0.14    0.14</time>
   <time name="diis">    0.40    0.40</time>
   <time name="orth">    0.01    0.01</time>
   <time name="total">    0.88    0.88</time>
   <energy>
    <i name="e_fr_energy">    -27.92859597 </i>
    <i name="e_wo_entrp">    -27.92859597 </i>
    <i name="e_0_energy">    -27.92859597 </i>
   </energy>
  </scstep>
  <scstep>
   <time name="diag">    0.14    0.14</time>
   <time name="diis">    0.39    0.39</time>
   <time name="orth">    0.01    0.01</time>
   <time name="total">    0.87    0.87</time>
   <energy>
    <i name="e_fr_energy">    -27.92863072 </i>
    <i name="e_wo_entrp">    -27.92863072 </i>
    <i name="e_0_energy">    -27.92863072 </i>
   </energy>
  </scstep>
  <scstep>
   <time name="diag">    0.14    0.14</time>
   <time name="diis">    0.37    0.37</time>
   <time name="orth">    0.01    0.01</time>
   <time name="total">    0.85    0.86</time>
   <energy>
    <i name="e_fr_energy">    -27.92865541 </i>
    <i name="e_wo_entrp">    -27.92865541 </i>
    <i name="e_0_energy">    -27.92865541 </i>
   </energy>
  </scstep>
  <scstep>
   <time name="diag">    0.14    0.14</time>
   <time name="diis">    0.36    0.36</time>
   <time name="orth">    0.01    0.01</time>
   <time name="total">    0.84    0.84</time>
   <energy>
    <i name="e_fr_energy">    -27.92866855 </i>
    <i name="e_wo_entrp">    -27.92866855 </i>
    <i name="e_0_energy">    -27.92866855 </i>
   </energy>
  </scstep>
  <scstep>
   <time name="diag">    0.14    0.14</time>
   <time name="diis">    0.35    0.35</time>
   <time name="orth">    0.01    0.01</time>
   <time name="total">    0.83    0.83</time>
   <energy>
    <i name="e_fr_energy">    -27.92867943 </i>
    <i name="e_wo_entrp">    -27.92867943 </i>
    <i name="e_0_energy">    -27.92867943 </i>
   </energy>
  </scstep>
  <scstep>
   <time name="diag">    0.14    0.14</time>
   <time name="diis">    0.36    0.36</time>
   <time name="orth">    0.01    0.01</time>
   <time name="total">    0.80    0.80</time>
   <energy>
    <i name="alphaZ">     20.50366002 </i>
    <i name="ewald">   -836.20080173 </i>
    <i name="hartreedc">   -256.85994364 </i>
    <i name="XCdc">     81.53295604 </i>
    <i name="pawpsdc">   1422.85292559 </i>
    <i name="pawaedc">  -1500.18570316 </i>
    <i name="eentropy">      0.00000000 </i>
    <i name="bandstr">   -528.29275384 </i>
    <i name="atom">   1568.72097452 </i>
    <i name="e_fr_energy">    -27.92868621 </i>
    <i name="e_wo_entrp">    -27.92868621 </i>
    <i name="e_0_energy">    -27.92868621 </i>
   </energy>
  </scstep>
  <structure>
   <crystal>
    <varray name="basis" >
     <v>       2.11792900      -3.66836100       0.00000000 </v>
     <v>       2.11792900       3.66836100       0.00000000 </v>
     <v>       0.00000000       0.00000000       7.57071800 </v>
    </varray>
    <i name="volume">    117.63878486 </i>
    <varray name="rec_basis" >
     <v>       0.23607968      -0.13630065       0.00000000 </v>
     <v>       0.23607968       0.13630065       0.00000000 </v>
     <v>       0.00000000       0.00000000       0.13208787 </v>
    </varray>
   </crystal>
   <varray name="positions" >
    <v>       0.00000000       0.00000000       0.25000000 </v>
    <v>       0.00000000       0.00000000       0.75000000 </v>
    <v>       0.33333300       0.66666700       0.58411900 </v>
    <v>       0.66666700       0.33333300       0.08411900 </v>
    <v>       0.66666700       0.33333300       0.41588100 </v>
    <v>       0.33333300       0.66666700       0.91588100 </v>
    <v>       0.33333300       0.66666700       0.25000000 </v>
    <v>       0.66666700       0.33333300       0.75000000 </v>
   </varray>
  </structure>
  <varray name="forces" >
   <v>      -0.00000000       0.00000000      -0.00000000 </v>
   <v>      -0.00000000      -0.00000000      -0.00000000 </v>
   <v>       0.00000000      -0.00000000      -0.00121921 </v>
   <v>       0.00000000       0.00000000      -0.00121921 </v>
   <v>       0.00000000       0.00000000       0.00121921 </v>
   <v>       0.00000000      -0.00000000       0.00121921 </v>
   <v>      -0.00000000       0.00000000      -0.00000000 </v>
   <v>      -0.00000000      -0.00000000      -0.00000000 </v>
  </varray>
  <varray name="stress" >
   <v>      -3.14131784       0.00000000      -0.00000000 </v>
   <v>       0.00000000      -3.14131847      -0.00000000 </v>
   <v>       0.00000000       0.00000000      -2.90645519 </v>
  </varray>
  <energy>
   <i name="e_fr_energy">    -27.92868621 </i>
   <i name="e_wo_entrp">    -27.92868621 </i>
   <i name="e_0_energy">      0.00000000 </i>
  </energy>
  <time name="totalsc">   20.07   20.34</time>
 </calculation>
 <calculation>
  <scstep>
   <time name="dav">    0.86    0.86</time>
   <time name="total">    1.18    1.18</time>
   <energy>
    <i name="alphaZ">     20.58730975 </i>
    <i name="ewald">   -837.33494210 </i>
    <i name="hartreedc">   -257.20961459 </i>
    <i name="XCdc">     81.65489678 </i>
    <i name="pawpsdc">   1422.86784711 </i>
    <i name="pawaedc">  -1500.20053069 </i>
    <i name="eentropy">      0.00000000 </i>
    <i name="bandstr">   -527.01597601 </i>
    <i name="atom">   1568.72097452 </i>
    <i name="e_fr_energy">    -27.93003524 </i>
    <i name="e_wo_entrp">    -27.93003524 </i>
    <i name="e_0_energy">    -27.93003524 </i>
   </energy>
  </scstep>
  <scstep>
   <time name="diag">    0.14    0.14</time>
   <time name="diis">    0.45    0.45</time>
   <time name="orth">    0.01    0.01</time>
   <time name="total">    0.94    0.94</time>
   <energy>
    <i name="e_fr_energy">    -27.92949806 </i>
    <i name="e_wo_entrp">    -27.92949806 </i>
    <i name="e_0_energy">    -27.92949806 </i>
   </energy>
  </scstep>
  <scstep>
   <time name="diag">    0.14    0.14</time>
   <time name="diis">    0.53    0.53</time>
   <time name="orth">    0.01    0.01</time>
   <time name="total">    1.02    1.02</time>
   <energy>
    <i name="e_fr_energy">    -27.92939883 </i>
    <i name="e_wo_entrp">    -27.92939883 </i>
    <i name="e_0_energy">    -27.92939883 </i>
   </energy>
  </scstep>
  <scstep>
   <time name="diag">    0.14    0.14</time>
   <time name="diis">    0.46    0.46</time>
   <time name="orth">    0.01    0.01</time>
   <time name="total">    0.94    0.94</time>
   <energy>
    <i name="e_fr_energy">    -27.92938361 </i>
    <i name="e_wo_entrp">    -27.92938361 </i>
    <i name="e_0_energy">    -27.92938361 </i>
   </energy>
  </scstep>
  <scstep>
   <time name="diag">    0.14    0.14</time>
   <time name="diis">    0.35    0.35</time>
   <time name="orth">    0.01    0.01</time>
   <time name="total">    0.79    0.79</time>
   <energy>
    <i name="alphaZ">     20.58730975 </i>
    <i name="ewald">   -837.33494210 </i>
    <i name="hartreedc">   -256.51254225 </i>
    <i name="XCdc">     81.56998781 </i>
    <i name="pawpsdc">   1427.57122432 </i>
    <i name="pawaedc">  -1504.87560593 </i>
    <i name="eentropy">      0.00000000 </i>
    <i name="bandstr">   -527.65578449 </i>
    <i name="atom">   1568.72097452 </i>
    <i name="e_fr_energy">    -27.92937837 </i>
    <i name="e_wo_entrp">    -27.92937837 </i>
    <i name="e_0_energy">    -27.92937837 </i>
   </energy>
  </scstep>
  <structure>
   <crystal>
    <varray name="basis" >
     <v>       2.11498319      -3.66325871       0.00000000 </v>
     <v>       2.11498319       3.66325871      -0.00000000 </v>
     <v>       0.00000000       0.00000000       7.56097524 </v>
    </varray>
    <i name="volume">    117.16079850 </i>
    <varray name="rec_basis" >
     <v>       0.23640850      -0.13649050      -0.00000000 </v>
     <v>       0.23640850       0.13649050      -0.00000000 </v>
     <v>       0.00000000       0.00000000       0.13225807 </v>
    </varray>
   </crystal>
   <varray name="positions" >
    <v>      -0.00000000       0.00000000       0.25000000 </v>
    <v>       0.00000000      -0.00000000       0.75000000 </v>
    <v>       0.33333300       0.66666700       0.58411123 </v>
    <v>       0.66666700       0.33333300       0.08411123 </v>
    <v>       0.66666700       0.33333300       0.41588877 </v>
    <v>       0.33333300       0.66666700       0.91588877 </v>
    <v>       0.33333300       0.66666700       0.25000000 </v>
    <v>       0.66666700       0.33333300       0.75000000 </v>
   </varray>
  </structure>
  <varray name="forces" >
   <v>      -0.00000000      -0.00000000       0.00000000 </v>
   <v>      -0.00000000       0.00000000      -0.00000000 </v>
   <v>      -0.00000000       0.00000000      -0.00156469 </v>
   <v>       0.00000000      -0.00000000      -0.00156469 </v>
   <v>      -0.00000000      -0.00000000       0.00156469 </v>
   <v>       0.00000000       0.00000000       0.00156469 </v>
   <v>       0.00000000      -0.00000000      -0.00000000 </v>
   <v>      -0.00000000       0.00000000       0.00000000 </v>
  </varray>
  <varray name="stress" >
   <v>      -1.42032533      -0.00000000       0.00000000 </v>
   <v>       0.00000000      -1.42032561      -0.00000000 </v>
   <v>       0.00000000       0.00000000      -1.45595818 </v>
  </varray>
  <energy>
   <i name="e_fr_energy">    -27.92937837 </i>
   <i name="e_wo_entrp">    -27.92937837 </i>
   <i name="e_0_energy">      0.00000000 </i>
  </energy>
  <time name="totalsc">    6.22    6.22</time>
 </calculation>
 <calculation>
  <scstep>
   <time name="dav">    0.77    0.77</time>
   <time name="total">    1.10    1.10</time>
   <energy>
    <i name="alphaZ">     20.66042269 </i>
    <i name="ewald">   -838.32370236 </i>
    <i name="hartreedc">   -256.82538875 </i>
    <i name="XCdc">     81.67749712 </i>
    <i name="pawpsdc">   1427.91591182 </i>
    <i name="pawaedc">  -1505.22161813 </i>
    <i name="eentropy">      0.00000000 </i>
    <i name="bandstr">   -526.53409997 </i>
    <i name="atom">   1568.72097452 </i>
    <i name="e_fr_energy">    -27.93000305 </i>
    <i name="e_wo_entrp">    -27.93000305 </i>
    <i name="e_0_energy">    -27.93000305 </i>
   </energy>
  </scstep>
  <scstep>
   <time name="diag">    0.14    0.14</time>
   <time name="diis">    0.48    0.48</time>
   <time name="orth">    0.01    0.01</time>
   <time name="total">    0.96    0.96</time>
   <energy>
    <i name="e_fr_energy">    -27.92963460 </i>
    <i name="e_wo_entrp">    -27.92963460 </i>
    <i name="e_0_energy">    -27.92963460 </i>
   </energy>
  </scstep>
  <scstep>
   <time name="diag">    0.14    0.14</time>
   <time name="diis">    0.54    0.54</time>
   <time name="orth">    0.01    0.01</time>
   <time name="total">    1.03    1.03</time>
   <energy>
    <i name="e_fr_energy">    -27.92956768 </i>
    <i name="e_wo_entrp">    -27.92956768 </i>
    <i name="e_0_energy">    -27.92956768 </i>
   </energy>
  </scstep>
  <scstep>
   <time name="diag">    0.14    0.14</time>
   <time name="diis">    0.44    0.44</time>
   <time name="orth">    0.01    0.01</time>
   <time name="total">    0.92    0.92</time>
   <energy>
    <i name="e_fr_energy">    -27.92956091 </i>
    <i name="e_wo_entrp">    -27.92956091 </i>
    <i name="e_0_energy">    -27.92956091 </i>
   </energy>
  </scstep>
  <scstep>
   <time name="diag">    0.14    0.14</time>
   <time name="diis">    0.31    0.31</time>
   <time name="orth">    0.01    0.01</time>
   <time name="total">    0.75    0.75</time>
   <energy>
    <i name="alphaZ">     20.66042269 </i>
    <i name="ewald">   -838.32370236 </i>
    <i name="hartreedc">   -256.19652778 </i>
    <i name="XCdc">     81.60124285 </i>
    <i name="pawpsdc">   1431.75748279 </i>
    <i name="pawaedc">  -1509.04586167 </i>
    <i name="eentropy">      0.00000000 </i>
    <i name="bandstr">   -527.10358645 </i>
    <i name="atom">   1568.72097452 </i>
    <i name="e_fr_energy">    -27.92955540 </i>
    <i name="e_wo_entrp">    -27.92955540 </i>
    <i name="e_0_energy">    -27.92955540 </i>
   </energy>
  </scstep>
  <structure>
   <crystal>
    <varray name="basis" >
     <v>       2.11242149      -3.65882171       0.00000000 </v>
     <v>       2.11242149       3.65882171      -0.00000000 </v>
     <v>       0.00000000       0.00000000       7.55250286 </v>
    </varray>
    <i name="volume">    116.74619079 </i>
    <varray name="rec_basis" >
     <v>       0.23669519      -0.13665602      -0.00000000 </v>
     <v>       0.23669519       0.13665602      -0.00000000 </v>
     <v>       0.00000000       0.00000000       0.13240644 </v>
    </varray>
   </crystal>
   <varray name="positions" >
    <v>      -0.00000000       0.00000000       0.25000000 </v>
    <v>       0.00000000      -0.00000000       0.75000000 </v>
    <v>       0.33333300       0.66666700       0.58410447 </v>
    <v>       0.66666700       0.33333300       0.08410447 </v>
    <v>       0.66666700       0.33333300       0.41589553 </v>
    <v>       0.33333300       0.66666700       0.91589553 </v>
    <v>       0.33333300       0.66666700       0.25000000 </v>
    <v>       0.66666700       0.33333300       0.75000000 </v>
   </varray>
  </structure>
  <varray name="forces" >
   <v>       0.00000000       0.00000000      -0.00000000 </v>
   <v>      -0.00000000       0.00000000      -0.00000000 </v>
   <v>       0.00000000      -0.00000000       0.00021754 </v>
   <v>       0.00000000       0.00000000       0.00021754 </v>
   <v>      -0.00000000      -0.00000000      -0.00021754 </v>
   <v>      -0.00000000      -0.00000000      -0.00021754 </v>
   <v>       0.00000000      -0.00000000      -0.00000000 </v>
   <v>      -0.00000000       0.00000000      -0.00000000 </v>
  </varray>
  <varray name="stress" >
   <v>       0.16708285      -0.00000000      -0.00000000 </v>
   <v>       0.00000000       0.16708289      -0.00000000 </v>
   <v>       0.00000000       0.00000000      -0.14318321 </v>
  </varray>
  <energy>
   <i name="e_fr_energy">    -27.92955540 </i>
   <i name="e_wo_entrp">    -27.92955540 </i>
   <i name="e_0_energy">      0.00000000 </i>
  </energy>
  <time name="totalsc">    6.02    6.03</time>
  <eigenvalues>
   <array>
    <dimension dim="1">band</dimension>
    <dimension dim="2">kpoint</dimension>
    <dimension dim="3">spin</dimension>
    <field>eigene</field>
    <field>occ</field>
    <set>
     <set comment="spin 1">
      <set comment="kpoint 1">
       <r>  -42.9039    1.0000 </r>
       <r>  -42.8777    1.0000 </r>
       <r>  -42.8740    1.0000 </r>
       <r>  -42.8484    1.0000 </r>
       <r>  -42.5238    1.0000 </r>
       <r>  -42.5235    1.0000 </r>
       <r>   -6.6924    1.0000 </r>
       <r>   -6.3088    1.0000 </r>
       <r>   -0.7061    1.0000 </r>
       <r>    2.0355    1.0000 </r>
       <r>    2.1950    1.0000 </r>
       <r>    2.1950    1.0000 </r>
       <r>    2.6066    1.0000 </r>
       <r>    2.6066    1.0000 </r>
       <r>    4.9996    0.0000 </r>
       <r>    6.4839    0.0000 </r>
       <r>    6.5385    0.0000 </r>
       <r>    6.5386    0.0000 </r>
       <r>    6.8832    0.0000 </r>
       <r>    6.8835    0.0000 </r>
      </set>
      <set comment="kpoint 2">
       <r>  -42.9030    1.0000 </r>
       <r>  -42.8769    1.0000 </r>
       <r>  -42.8746    1.0000 </r>
       <r>  -42.8492    1.0000 </r>
       <r>  -42.5239    1.0000 </r>
       <r>  -42.5236    1.0000 </r>
       <r>   -6.6434    1.0000 </r>
       <r>   -6.2746    1.0000 </r>
       <r>   -0.6169    1.0000 </r>
       <r>    1.7081    1.0000 </r>
       <r>    1.9429    1.0000 </r>
       <r>    2.0192    1.0000 </r>
       <r>    2.1719    1.0000 </r>
       <r>    2.5189    1.0000 </r>
       <r>    5.1837    0.0000 </r>
       <r>    6.3351    0.0000 </r>
       <r>    6.7296    0.0000 </r>
       <r>    6.9036    0.0000 </r>
       <r>    7.3299    0.0000 </r>
       <r>    7.4181    0.0000 </r>
      </set>
      <set comment="kpoint 3">
       <r>  -42.9003    1.0000 </r>
       <r>  -42.8765    1.0000 </r>
       <r>  -42.8747    1.0000 </r>
       <r>  -42.8514    1.0000 </r>
       <r>  -42.5242    1.0000 </r>
       <r>  -42.5239    1.0000 </r>
       <r>   -6.5086    1.0000 </r>
       <r>   -6.1867    1.0000 </r>
       <r>   -0.3531    1.0000 </r>
       <r>    0.7868    1.0000 </r>
       <r>    1.3519    1.0000 </r>
       <r>    1.4966    1.0000 </r>
       <r>    1.9384    1.0000 </r>
       <r>    2.2460    1.0000 </r>
       <r>    5.3094    0.0000 </r>
       <r>    6.1167    0.0000 </r>
       <r>    6.5635    0.0000 </r>
       <r>    6.8635    0.0000 </r>
       <r>    7.2902    0.0000 </r>
       <r>    7.9615    0.0000 </r>
      </set>
      <set comment="kpoint 4">
       <r>  -42.8965    1.0000 </r>
       <r>  -42.8794    1.0000 </r>
       <r>  -42.8715    1.0000 </r>
       <r>  -42.8546    1.0000 </r>
       <r>  -42.5245    1.0000 </r>
       <r>  -42.5242    1.0000 </r>
       <r>   -6.3282    1.0000 </r>
       <r>   -6.0894    1.0000 </r>
       <r>   -0.0138    1.0000 </r>
       <r>    0.0687    1.0000 </r>
       <r>    0.6166    1.0000 </r>
       <r>    1.1257    1.0000 </r>
       <r>    1.7044    1.0000 </r>
       <r>    1.9601    1.0000 </r>
       <r>    5.1591    0.0000 </r>
       <r>    5.3774    0.0000 </r>
       <r>    6.7228    0.0000 </r>
       <r>    6.8068    0.0000 </r>
       <r>    7.2129    0.0000 </r>
       <r>    8.4729    0.0000 </r>
      </set>
      <set comment="kpoint 5">
       <r>  -42.8931    1.0000 </r>
       <r>  -42.8822    1.0000 </r>
       <r>  -42.8684    1.0000 </r>
       <r>  -42.8575    1.0000 </r>
       <r>  -42.5248    1.0000 </r>
       <r>  -42.5244    1.0000 </r>
       <r>   -6.1779    1.0000 </r>
       <r>   -6.0413    1.0000 </r>
       <r>   -0.4665    1.0000 </r>
       <r>    0.1929    1.0000 </r>
       <r>    0.5882    1.0000 </r>
       <r>    0.9250    1.0000 </r>
       <r>    1.2763    1.0000 </r>
       <r>    1.7930    1.0000 </r>
       <r>    4.6942    0.0000 </r>
       <r>    5.4278    0.0000 </r>
       <r>    6.5567    0.0000 </r>
       <r>    6.7973    0.0000 </r>
       <r>    7.5727    0.0000 </r>
       <r>    8.3597    0.0000 </r>
      </set>
      <set comment="kpoint 6">
       <r>  -42.9011    1.0000 </r>
       <r>  -42.8759    1.0000 </r>
       <r>  -42.8754    1.0000 </r>
       <r>  -42.8507    1.0000 </r>
       <r>  -42.5241    1.0000 </r>
       <r>  -42.5238    1.0000 </r>
       <r>   -6.5513    1.0000 </r>
       <r>   -6.2133    1.0000 </r>
       <r>   -0.4402    1.0000 </r>
       <r>    1.1835    1.0000 </r>
       <r>    1.2761    1.0000 </r>
       <r>    1.8034    1.0000 </r>
       <r>    1.9738    1.0000 </r>
       <r>    2.2528    1.0000 </r>
       <r>    5.3894    0.0000 </r>
       <r>    6.3723    0.0000 </r>
       <r>    6.6733    0.0000 </r>
       <r>    6.7432    0.0000 </r>
       <r>    7.4737    0.0000 </r>
       <r>    7.5194    0.0000 </r>
      </set>
      <set comment="kpoint 7">
       <r>  -42.8979    1.0000 </r>
       <r>  -42.8783    1.0000 </r>
       <r>  -42.8726    1.0000 </r>
       <r>  -42.8534    1.0000 </r>
       <r>  -42.5244    1.0000 </r>
       <r>  -42.5241    1.0000 </r>
       <r>   -6.3922    1.0000 </r>
       <r>   -6.1193    1.0000 </r>
       <r>   -0.0963    1.0000 </r>
       <r>    0.3701    1.0000 </r>
       <r>    0.7193    1.0000 </r>
       <r>    1.2262    1.0000 </r>
       <r>    1.8353    1.0000 </r>
       <r>    1.9259    1.0000 </r>
       <r>    5.2410    0.0000 </r>
       <r>    5.6502    0.0000 </r>
       <r>    6.9966    0.0000 </r>
       <r>    7.0866    0.0000 </r>
       <r>    7.1846    0.0000 </r>
       <r>    8.3110    0.0000 </r>
      </set>
      <set comment="kpoint 8">
       <r>  -42.8940    1.0000 </r>
       <r>  -42.8814    1.0000 </r>
       <r>  -42.8692    1.0000 </r>
       <r>  -42.8567    1.0000 </r>
       <r>  -42.5247    1.0000 </r>
       <r>  -42.5243    1.0000 </r>
       <r>   -6.2212    1.0000 </r>
       <r>   -6.0460    1.0000 </r>
       <r>   -0.2506    1.0000 </r>
       <r>    0.3024    1.0000 </r>
       <r>    0.3828    1.0000 </r>
       <r>    0.8134    1.0000 </r>
       <r>    1.5247    1.0000 </r>
       <r>    1.6886    1.0000 </r>
       <r>    4.4819    0.0000 </r>
       <r>    5.8182    0.0000 </r>
       <r>    7.0161    0.0000 </r>
       <r>    7.1625    0.0000 </r>
       <r>    7.4847    0.0000 </r>
       <r>    8.5122    0.0000 </r>
      </set>
      <set comment="kpoint 9">
       <r>  -42.8918    1.0000 </r>
       <r>  -42.8832    1.0000 </r>
       <r>  -42.8672    1.0000 </r>
       <r>  -42.8586    1.0000 </r>
       <r>  -42.5248    1.0000 </r>
       <r>  -42.5244    1.0000 </r>
       <r>   -6.1328    1.0000 </r>
       <r>   -6.0311    1.0000 </r>
       <r>   -0.4764    1.0000 </r>
       <r>    0.1337    1.0000 </r>
       <r>    0.6799    1.0000 </r>
       <r>    0.8015    1.0000 </r>
       <r>    1.1620    1.0000 </r>
       <r>    1.6032    1.0000 </r>
       <r>    4.2266    0.0000 </r>
       <r>    5.8793    0.0000 </r>
       <r>    6.9763    0.0000 </r>
       <r>    7.2097    0.0000 </r>
       <r>    7.7136    0.0000 </r>
       <r>    8.3818    0.0000 </r>
      </set>
      <set comment="kpoint 10">
       <r>  -42.8944    1.0000 </r>
       <r>  -42.8810    1.0000 </r>
       <r>  -42.8695    1.0000 </r>
       <r>  -42.8564    1.0000 </r>
       <r>  -42.5247    1.0000 </r>
       <r>  -42.5243    1.0000 </r>
       <r>   -6.2385    1.0000 </r>
       <r>   -6.0473    1.0000 </r>
       <r>    0.0584    1.0000 </r>
       <r>    0.1526    1.0000 </r>
       <r>    0.3089    1.0000 </r>
       <r>    0.7522    1.0000 </r>
       <r>    1.5442    1.0000 </r>
       <r>    1.6542    1.0000 </r>
       <r>    4.2750    0.0000 </r>
       <r>    6.3456    0.0000 </r>
       <r>    7.3585    0.0000 </r>
       <r>    7.5115    0.0000 </r>
       <r>    7.7826    0.0000 </r>
       <r>    8.4733    0.0000 </r>
      </set>
      <set comment="kpoint 11">
       <r>  -42.8909    1.0000 </r>
       <r>  -42.8841    1.0000 </r>
       <r>  -42.8663    1.0000 </r>
       <r>  -42.8596    1.0000 </r>
       <r>  -42.5249    1.0000 </r>
       <r>  -42.5245    1.0000 </r>
       <r>   -6.1095    1.0000 </r>
       <r>   -6.0178    1.0000 </r>
       <r>   -0.2830    1.0000 </r>
       <r>    0.0762    1.0000 </r>
       <r>    0.3407    1.0000 </r>
       <r>    0.7906    1.0000 </r>
       <r>    1.3324    1.0000 </r>
       <r>    1.3548    1.0000 </r>
       <r>    3.6764    0.0000 </r>
       <r>    6.8663    0.0000 </r>
       <r>    7.6616    0.0000 </r>
       <r>    7.8224    0.0000 </r>
       <r>    8.2318    0.0000 </r>
       <r>    8.6016    0.0000 </r>
      </set>
      <set comment="kpoint 12">
       <r>  -42.8875    1.0000 </r>
       <r>  -42.8875    1.0000 </r>
       <r>  -42.8630    1.0000 </r>
       <r>  -42.8630    1.0000 </r>
       <r>  -42.5250    1.0000 </r>
       <r>  -42.5245    1.0000 </r>
       <r>   -6.0350    1.0000 </r>
       <r>   -6.0349    1.0000 </r>
       <r>   -0.1713    1.0000 </r>
       <r>    0.0153    1.0000 </r>
       <r>    0.0153    1.0000 </r>
       <r>    1.1480    1.0000 </r>
       <r>    1.1480    1.0000 </r>
       <r>    1.1790    1.0000 </r>
       <r>    3.3116    0.0000 </r>
       <r>    8.0645    0.0000 </r>
       <r>    8.0645    0.0000 </r>
       <r>    8.0673    0.0000 </r>
       <r>    8.3807    0.0000 </r>
       <r>    8.3808    0.0000 </r>
      </set>
      <set comment="kpoint 13">
       <r>  -42.9018    1.0000 </r>
       <r>  -42.8867    1.0000 </r>
       <r>  -42.8652    1.0000 </r>
       <r>  -42.8505    1.0000 </r>
       <r>  -42.5238    1.0000 </r>
       <r>  -42.5236    1.0000 </r>
       <r>   -6.6428    1.0000 </r>
       <r>   -6.3728    1.0000 </r>
       <r>   -0.4269    1.0000 </r>
       <r>    1.3762    1.0000 </r>
       <r>    2.2538    1.0000 </r>
       <r>    2.2538    1.0000 </r>
       <r>    2.5459    1.0000 </r>
       <r>    2.5459    1.0000 </r>
       <r>    5.6839    0.0000 </r>
       <r>    6.4447    0.0000 </r>
       <r>    6.4448    0.0000 </r>
       <r>    6.7117    0.0000 </r>
       <r>    6.7120    0.0000 </r>
       <r>    6.7405    0.0000 </r>
      </set>
      <set comment="kpoint 14">
       <r>  -42.9009    1.0000 </r>
       <r>  -42.8862    1.0000 </r>
       <r>  -42.8655    1.0000 </r>
       <r>  -42.8512    1.0000 </r>
       <r>  -42.5239    1.0000 </r>
       <r>  -42.5237    1.0000 </r>
       <r>   -6.5955    1.0000 </r>
       <r>   -6.3358    1.0000 </r>
       <r>   -0.3487    1.0000 </r>
       <r>    1.3521    1.0000 </r>
       <r>    1.8006    1.0000 </r>
       <r>    2.0178    1.0000 </r>
       <r>    2.1574    1.0000 </r>
       <r>    2.4237    1.0000 </r>
       <r>    5.6878    0.0000 </r>
       <r>    6.3546    0.0000 </r>
       <r>    6.7054    0.0000 </r>
       <r>    6.7943    0.0000 </r>
       <r>    7.0417    0.0000 </r>
       <r>    7.1481    0.0000 </r>
      </set>
      <set comment="kpoint 15">
       <r>  -42.8984    1.0000 </r>
       <r>  -42.8850    1.0000 </r>
       <r>  -42.8663    1.0000 </r>
       <r>  -42.8532    1.0000 </r>
       <r>  -42.5242    1.0000 </r>
       <r>  -42.5240    1.0000 </r>
       <r>   -6.4661    1.0000 </r>
       <r>   -6.2391    1.0000 </r>
       <r>   -0.1346    1.0000 </r>
       <r>    0.8209    1.0000 </r>
       <r>    1.1723    1.0000 </r>
       <r>    1.5869    1.0000 </r>
       <r>    1.6729    1.0000 </r>
       <r>    2.1108    1.0000 </r>
       <r>    5.3595    0.0000 </r>
       <r>    6.0324    0.0000 </r>
       <r>    6.9098    0.0000 </r>
       <r>    7.0750    0.0000 </r>
       <r>    7.4185    0.0000 </r>
       <r>    8.1603    0.0000 </r>
      </set>
      <set comment="kpoint 16">
       <r>  -42.8949    1.0000 </r>
       <r>  -42.8842    1.0000 </r>
       <r>  -42.8666    1.0000 </r>
       <r>  -42.8561    1.0000 </r>
       <r>  -42.5245    1.0000 </r>
       <r>  -42.5242    1.0000 </r>
       <r>   -6.2956    1.0000 </r>
       <r>   -6.1269    1.0000 </r>
       <r>   -0.0759    1.0000 </r>
       <r>    0.2290    1.0000 </r>
       <r>    0.6307    1.0000 </r>
       <r>    1.2232    1.0000 </r>
       <r>    1.5823    1.0000 </r>
       <r>    1.8040    1.0000 </r>
       <r>    4.8691    0.0000 </r>
       <r>    5.4552    0.0000 </r>
       <r>    6.8881    0.0000 </r>
       <r>    7.2081    0.0000 </r>
       <r>    7.4122    0.0000 </r>
       <r>    8.2342    0.0000 </r>
      </set>
      <set comment="kpoint 17">
       <r>  -42.8919    1.0000 </r>
       <r>  -42.8846    1.0000 </r>
       <r>  -42.8660    1.0000 </r>
       <r>  -42.8587    1.0000 </r>
       <r>  -42.5247    1.0000 </r>
       <r>  -42.5244    1.0000 </r>
       <r>   -6.1582    1.0000 </r>
       <r>   -6.0617    1.0000 </r>
       <r>   -0.4522    1.0000 </r>
       <r>   -0.0395    1.0000 </r>
       <r>    0.8407    1.0000 </r>
       <r>    1.0253    1.0000 </r>
       <r>    1.3858    1.0000 </r>
       <r>    1.6285    1.0000 </r>
       <r>    4.4912    0.0000 </r>
       <r>    5.1841    0.0000 </r>
       <r>    6.9286    0.0000 </r>
       <r>    6.9958    0.0000 </r>
       <r>    7.4681    0.0000 </r>
       <r>    8.1107    0.0000 </r>
      </set>
      <set comment="kpoint 18">
       <r>  -42.8991    1.0000 </r>
       <r>  -42.8853    1.0000 </r>
       <r>  -42.8661    1.0000 </r>
       <r>  -42.8526    1.0000 </r>
       <r>  -42.5241    1.0000 </r>
       <r>  -42.5239    1.0000 </r>
       <r>   -6.5069    1.0000 </r>
       <r>   -6.2687    1.0000 </r>
       <r>   -0.2006    1.0000 </r>
       <r>    1.1219    1.0000 </r>
       <r>    1.2625    1.0000 </r>
       <r>    1.6415    1.0000 </r>
       <r>    1.8241    1.0000 </r>
       <r>    2.1205    1.0000 </r>
       <r>    5.6566    0.0000 </r>
       <r>    6.3823    0.0000 </r>
       <r>    6.6688    0.0000 </r>
       <r>    6.7292    0.0000 </r>
       <r>    7.5628    0.0000 </r>
       <r>    7.6428    0.0000 </r>
      </set>
      <set comment="kpoint 19">
       <r>  -42.8962    1.0000 </r>
       <r>  -42.8844    1.0000 </r>
       <r>  -42.8666    1.0000 </r>
       <r>  -42.8551    1.0000 </r>
       <r>  -42.5244    1.0000 </r>
       <r>  -42.5242    1.0000 </r>
       <r>   -6.3554    1.0000 </r>
       <r>   -6.1628    1.0000 </r>
       <r>    0.0174    1.0000 </r>
       <r>    0.4387    1.0000 </r>
       <r>    0.7376    1.0000 </r>
       <r>    1.2409    1.0000 </r>
       <r>    1.6257    1.0000 </r>
       <r>    1.7562    1.0000 </r>
       <r>    5.3047    0.0000 </r>
       <r>    5.7185    0.0000 </r>
       <r>    6.8618    0.0000 </r>
       <r>    7.1048    0.0000 </r>
       <r>    7.9491    0.0000 </r>
       <r>    8.1300    0.0000 </r>
      </set>
      <set comment="kpoint 20">
       <r>  -42.8928    1.0000 </r>
       <r>  -42.8844    1.0000 </r>
       <r>  -42.8662    1.0000 </r>
       <r>  -42.8580    1.0000 </r>
       <r>  -42.5246    1.0000 </r>
       <r>  -42.5244    1.0000 </r>
       <r>   -6.1965    1.0000 </r>
       <r>   -6.0727    1.0000 </r>
       <r>   -0.2507    1.0000 </r>
       <r>    0.0864    1.0000 </r>
       <r>    0.7059    1.0000 </r>
       <r>    0.8905    1.0000 </r>
       <r>    1.4901    1.0000 </r>
       <r>    1.5174    1.0000 </r>
       <r>    4.6177    0.0000 </r>
       <r>    5.5596    0.0000 </r>
       <r>    6.8326    0.0000 </r>
       <r>    7.2901    0.0000 </r>
       <r>    7.8004    0.0000 </r>
       <r>    8.4349    0.0000 </r>
      </set>
      <set comment="kpoint 21">
       <r>  -42.8909    1.0000 </r>
       <r>  -42.8850    1.0000 </r>
       <r>  -42.8655    1.0000 </r>
       <r>  -42.8596    1.0000 </r>
       <r>  -42.5248    1.0000 </r>
       <r>  -42.5245    1.0000 </r>
       <r>   -6.1178    1.0000 </r>
       <r>   -6.0459    1.0000 </r>
       <r>   -0.4570    1.0000 </r>
       <r>   -0.0653    1.0000 </r>
       <r>    0.7554    1.0000 </r>
       <r>    0.9981    1.0000 </r>
       <r>    1.3007    1.0000 </r>
       <r>    1.4203    1.0000 </r>
       <r>    4.3584    0.0000 </r>
       <r>    5.5144    0.0000 </r>
       <r>    6.7693    0.0000 </r>
       <r>    7.3724    0.0000 </r>
       <r>    7.6205    0.0000 </r>
[...]
        <r>  0.0053  0.0074  0.0002  0.0048  0.0000  0.0000  0.0000  0.0000  0.0000 </r>
        <r>  0.0006  0.0007  0.0001  0.0036  0.0000  0.0000  0.0000  0.0000  0.0000 </r>
        <r>  0.0006  0.0007  0.0001  0.0036  0.0000  0.0000  0.0000  0.0000  0.0000 </r>
        <r>  0.0053  0.0074  0.0002  0.0048  0.0000  0.0000  0.0000  0.0000  0.0000 </r>
        <r>  0.0135  0.0444  0.0000  0.0272  0.0000  0.0000  0.0000  0.0000  0.0000 </r>
        <r>  0.0000  0.0000  0.0074  0.0000  0.0000  0.0000  0.0000  0.0000  0.0000 </r>
       </set>
       <set comment="band 17">
        <r>  0.0001  0.0001  0.0044  0.0000  0.0000  0.0000  0.0000  0.0000  0.0000 </r>
        <r>  0.0013  0.0009  0.0005  0.0003  0.0000  0.0000  0.0000  0.0000  0.0000 </r>
        <r>  0.0030  0.0074  0.0008  0.0097  0.0000  0.0000  0.0000  0.0000  0.0000 </r>
        <r>  0.0229  0.0093  0.0024  0.0036  0.0000  0.0000  0.0000  0.0000  0.0000 </r>
        <r>  0.0224  0.0007  0.0023  0.0084  0.0000  0.0000  0.0000  0.0000  0.0000 </r>
        <r>  0.0034  0.0160  0.0009  0.0048  0.0000  0.0000  0.0000  0.0000  0.0000 </r>
        <r>  0.0055  0.0007  0.0017  0.0005  0.0000  0.0000  0.0000  0.0000  0.0000 </r>
        <r>  0.0510  0.0065  0.0002  0.0045  0.0000  0.0000  0.0000  0.0000  0.0000 </r>
       </set>
       <set comment="band 18">
        <r>  0.0013  0.0009  0.0005  0.0003  0.0000  0.0000  0.0000  0.0000  0.0000 </r>
        <r>  0.0001  0.0001  0.0044  0.0000  0.0000  0.0000  0.0000  0.0000  0.0000 </r>
        <r>  0.0229  0.0093  0.0024  0.0036  0.0000  0.0000  0.0000  0.0000  0.0000 </r>
        <r>  0.0030  0.0074  0.0008  0.0097  0.0000  0.0000  0.0000  0.0000  0.0000 </r>
        <r>  0.0034  0.0160  0.0009  0.0048  0.0000  0.0000  0.0000  0.0000  0.0000 </r>
        <r>  0.0224  0.0007  0.0023  0.0084  0.0000  0.0000  0.0000  0.0000  0.0000 </r>
        <r>  0.0510  0.0065  0.0002  0.0045  0.0000  0.0000  0.0000  0.0000  0.0000 </r>
        <r>  0.0055  0.0007  0.0017  0.0005  0.0000  0.0000  0.0000  0.0000  0.0000 </r>
       </set>
       <set comment="band 19">
        <r>  0.0002  0.0003  0.0016  0.0001  0.0000  0.0000  0.0000  0.0000  0.0000 </r>
        <r>  0.0161  0.0250  0.0000  0.0116  0.0000  0.0000  0.0000  0.0000  0.0000 </r>
        <r>  0.0154  0.0023  0.0176  0.0008  0.0000  0.0000  0.0000  0.0000  0.0000 </r>
        <r>  0.0058  0.0010  0.0051  0.0003  0.0000  0.0000  0.0000  0.0000  0.0000 </r>
        <r>  0.0099  0.0016  0.0019  0.0001  0.0000  0.0000  0.0000  0.0000  0.0000 </r>
        <r>  0.0114  0.0017  0.0208  0.0010  0.0000  0.0000  0.0000  0.0000  0.0000 </r>
        <r>  0.0001  0.0003  0.0027  0.0003  0.0000  0.0000  0.0000  0.0000  0.0000 </r>
        <r>  0.0093  0.0327  0.0000  0.0258  0.0000  0.0000  0.0000  0.0000  0.0000 </r>
       </set>
       <set comment="band 20">
        <r>  0.0161  0.0251  0.0000  0.0116  0.0000  0.0000  0.0000  0.0000  0.0000 </r>
        <r>  0.0002  0.0003  0.0016  0.0001  0.0000  0.0000  0.0000  0.0000  0.0000 </r>
        <r>  0.0059  0.0010  0.0051  0.0003  0.0000  0.0000  0.0000  0.0000  0.0000 </r>
        <r>  0.0154  0.0023  0.0176  0.0008  0.0000  0.0000  0.0000  0.0000  0.0000 </r>
        <r>  0.0114  0.0017  0.0207  0.0010  0.0000  0.0000  0.0000  0.0000  0.0000 </r>
        <r>  0.0099  0.0016  0.0019  0.0001  0.0000  0.0000  0.0000  0.0000  0.0000 </r>
        <r>  0.0093  0.0327  0.0000  0.0258  0.0000  0.0000  0.0000  0.0000  0.0000 </r>
        <r>  0.0001  0.0003  0.0027  0.0003  0.0000  0.0000  0.0000  0.0000  0.0000 </r>
       </set>
      </set>
      <set comment="kpoint 36">
       <set comment="band 1">
        <r>  0.0000  0.0000  0.0000  0.0000  0.0000  0.0000  0.0000  0.0000  0.0000 </r>
        <r>  0.0000  0.0000  0.0000  0.0000  0.0000  0.0000  0.0000  0.0000  0.0000 </r>
        <r>  0.4943  0.0000  0.0000  0.0000  0.0000  0.0000  0.0000  0.0000  0.0000 </r>
        <r>  0.0000  0.0000  0.0000  0.0000  0.0000  0.0000  0.0000  0.0000  0.0000 </r>
        <r>  0.0000  0.0000  0.0000  0.0000  0.0000  0.0000  0.0000  0.0000  0.0000 </r>
        <r>  0.4943  0.0000  0.0000  0.0000  0.0000  0.0000  0.0000  0.0000  0.0000 </r>
        <r>  0.0000  0.0000  0.0000  0.0000  0.0000  0.0000  0.0000  0.0000  0.0000 </r>
        <r>  0.0000  0.0000  0.0000  0.0000  0.0000  0.0000  0.0000  0.0000  0.0000 </r>
       </set>
       <set comment="band 2">
        <r>  0.0000  0.0000  0.0000  0.0000  0.0000  0.0000  0.0000  0.0000  0.0000 </r>
        <r>  0.0000  0.0000  0.0000  0.0000  0.0000  0.0000  0.0000  0.0000  0.0000 </r>
        <r>  0.0000  0.0000  0.0000  0.0000  0.0000  0.0000  0.0000  0.0000  0.0000 </r>
        <r>  0.4943  0.0000  0.0000  0.0000  0.0000  0.0000  0.0000  0.0000  0.0000 </r>
        <r>  0.4943  0.0000  0.0000  0.0000  0.0000  0.0000  0.0000  0.0000  0.0000 </r>
        <r>  0.0000  0.0000  0.0000  0.0000  0.0000  0.0000  0.0000  0.0000  0.0000 </r>
        <r>  0.0000  0.0000  0.0000  0.0000  0.0000  0.0000  0.0000  0.0000  0.0000 </r>
        <r>  0.0000  0.0000  0.0000  0.0000  0.0000  0.0000  0.0000  0.0000  0.0000 </r>
       </set>
       <set comment="band 3">
        <r>  0.0000  0.0000  0.0000  0.0000  0.0000  0.0000  0.0000  0.0000  0.0000 </r>
        <r>  0.0000  0.0000  0.0000  0.0000  0.0000  0.0000  0.0000  0.0000  0.0000 </r>
        <r>  0.4948  0.0000  0.0000  0.0000  0.0000  0.0000  0.0000  0.0000  0.0000 </r>
        <r>  0.0000  0.0000  0.0000  0.0000  0.0000  0.0000  0.0000  0.0000  0.0000 </r>
        <r>  0.0000  0.0000  0.0000  0.0000  0.0000  0.0000  0.0000  0.0000  0.0000 </r>
        <r>  0.4948  0.0000  0.0000  0.0000  0.0000  0.0000  0.0000  0.0000  0.0000 </r>
        <r>  0.0000  0.0000  0.0000  0.0000  0.0000  0.0000  0.0000  0.0000  0.0000 </r>
        <r>  0.0000  0.0000  0.0000  0.0000  0.0000  0.0000  0.0000  0.0000  0.0000 </r>
       </set>
       <set comment="band 4">
        <r>  0.0000  0.0000  0.0000  0.0000  0.0000  0.0000  0.0000  0.0000  0.0000 </r>
        <r>  0.0000  0.0000  0.0000  0.0000  0.0000  0.0000  0.0000  0.0000  0.0000 </r>
        <r>  0.0000  0.0000  0.0000  0.0000  0.0000  0.0000  0.0000  0.0000  0.0000 </r>
        <r>  0.4948  0.0000  0.0000  0.0000  0.0000  0.0000  0.0000  0.0000  0.0000 </r>
        <r>  0.4948  0.0000  0.0000  0.0000  0.0000  0.0000  0.0000  0.0000  0.0000 </r>
        <r>  0.0000  0.0000  0.0000  0.0000  0.0000  0.0000  0.0000  0.0000  0.0000 </r>
        <r>  0.0000  0.0000  0.0000  0.0000  0.0000  0.0000  0.0000  0.0000  0.0000 </r>
        <r>  0.0000  0.0000  0.0000  0.0000  0.0000  0.0000  0.0000  0.0000  0.0000 </r>
       </set>
       <set comment="band 5">
        <r>  0.9889  0.0000  0.0000  0.0000  0.0000  0.0000  0.0000  0.0000  0.0000 </r>
        <r>  0.0000  0.0000  0.0000  0.0000  0.0000  0.0000  0.0000  0.0000  0.0000 </r>
        <r>  0.0000  0.0000  0.0000  0.0000  0.0000  0.0000  0.0000  0.0000  0.0000 </r>
        <r>  0.0000  0.0000  0.0000  0.0000  0.0000  0.0000  0.0000  0.0000  0.0000 </r>
        <r>  0.0000  0.0000  0.0000  0.0000  0.0000  0.0000  0.0000  0.0000  0.0000 </r>
        <r>  0.0000  0.0000  0.0000  0.0000  0.0000  0.0000  0.0000  0.0000  0.0000 </r>
        <r>  0.0000  0.0000  0.0000  0.0000  0.0000  0.0000  0.0000  0.0000  0.0000 </r>
        <r>  0.0000  0.0000  0.0000  0.0000  0.0000  0.0000  0.0000  0.0000  0.0000 </r>
       </set>
       <set comment="band 6">
        <r>  0.0000  0.0000  0.0000  0.0000  0.0000  0.0000  0.0000  0.0000  0.0000 </r>
        <r>  0.9889  0.0000  0.0000  0.0000  0.0000  0.0000  0.0000  0.0000  0.0000 </r>
        <r>  0.0000  0.0000  0.0000  0.0000  0.0000  0.0000  0.0000  0.0000  0.0000 </r>
        <r>  0.0000  0.0000  0.0000  0.0000  0.0000  0.0000  0.0000  0.0000  0.0000 </r>
        <r>  0.0000  0.0000  0.0000  0.0000  0.0000  0.0000  0.0000  0.0000  0.0000 </r>
        <r>  0.0000  0.0000  0.0000  0.0000  0.0000  0.0000  0.0000  0.0000  0.0000 </r>
        <r>  0.0000  0.0000  0.0000  0.0000  0.0000  0.0000  0.0000  0.0000  0.0000 </r>
        <r>  0.0000  0.0000  0.0000  0.0000  0.0000  0.0000  0.0000  0.0000  0.0000 </r>
       </set>
       <set comment="band 7">
        <r>  0.0000  0.0000  0.0000  0.0000  0.0000  0.0000  0.0000  0.0000  0.0000 </r>
        <r>  0.0000  0.0021  0.0000  0.0021  0.0000  0.0000  0.0000  0.0000  0.0000 </r>
        <r>  0.0000  0.0007  0.0000  0.0007  0.0000  0.0000  0.0000  0.0000  0.0000 </r>
        <r>  0.0010  0.0000  0.0007  0.0000  0.0000  0.0000  0.0000  0.0000  0.0000 </r>
        <r>  0.0010  0.0000  0.0007  0.0000  0.0000  0.0000  0.0000  0.0000  0.0000 </r>
        <r>  0.0000  0.0007  0.0000  0.0007  0.0000  0.0000  0.0000  0.0000  0.0000 </r>
        <r>  0.0000  0.0000  0.0000  0.0000  0.0000  0.0000  0.0000  0.0000  0.0000 </r>
        <r>  0.5078  0.0000  0.0000  0.0000  0.0000  0.0000  0.0000  0.0000  0.0000 </r>
       </set>
       <set comment="band 8">
        <r>  0.0000  0.0021  0.0000  0.0021  0.0000  0.0000  0.0000  0.0000  0.0000 </r>
        <r>  0.0000  0.0000  0.0000  0.0000  0.0000  0.0000  0.0000  0.0000  0.0000 </r>
        <r>  0.0010  0.0000  0.0007  0.0000  0.0000  0.0000  0.0000  0.0000  0.0000 </r>
        <r>  0.0000  0.0007  0.0000  0.0007  0.0000  0.0000  0.0000  0.0000  0.0000 </r>
        <r>  0.0000  0.0007  0.0000  0.0007  0.0000  0.0000  0.0000  0.0000  0.0000 </r>
        <r>  0.0010  0.0000  0.0007  0.0000  0.0000  0.0000  0.0000  0.0000  0.0000 </r>
        <r>  0.5078  0.0000  0.0000  0.0000  0.0000  0.0000  0.0000  0.0000  0.0000 </r>
        <r>  0.0000  0.0000  0.0000  0.0000  0.0000  0.0000  0.0000  0.0000  0.0000 </r>
       </set>
       <set comment="band 9">
        <r>  0.0000  0.0000  0.0000  0.0000  0.0000  0.0000  0.0000  0.0000  0.0000 </r>
        <r>  0.0000  0.0101  0.0000  0.0101  0.0000  0.0000  0.0000  0.0000  0.0000 </r>
        <r>  0.0199  0.0000  0.0022  0.0000  0.0000  0.0000  0.0000  0.0000  0.0000 </r>
        <r>  0.0000  0.0008  0.0000  0.0008  0.0000  0.0000  0.0000  0.0000  0.0000 </r>
        <r>  0.0000  0.0008  0.0000  0.0008  0.0000  0.0000  0.0000  0.0000  0.0000 </r>
        <r>  0.0199  0.0000  0.0022  0.0000  0.0000  0.0000  0.0000  0.0000  0.0000 </r>
        <r>  0.0000  0.0000  0.0201  0.0000  0.0000  0.0000  0.0000  0.0000  0.0000 </r>
        <r>  0.0000  0.0964  0.0000  0.0964  0.0000  0.0000  0.0000  0.0000  0.0000 </r>
       </set>
       <set comment="band 10">
        <r>  0.0000  0.0101  0.0000  0.0101  0.0000  0.0000  0.0000  0.0000  0.0000 </r>
        <r>  0.0000  0.0000  0.0000  0.0000  0.0000  0.0000  0.0000  0.0000  0.0000 </r>
        <r>  0.0000  0.0008  0.0000  0.0008  0.0000  0.0000  0.0000  0.0000  0.0000 </r>
        <r>  0.0199  0.0000  0.0022  0.0000  0.0000  0.0000  0.0000  0.0000  0.0000 </r>
        <r>  0.0199  0.0000  0.0022  0.0000  0.0000  0.0000  0.0000  0.0000  0.0000 </r>
        <r>  0.0000  0.0008  0.0000  0.0008  0.0000  0.0000  0.0000  0.0000  0.0000 </r>
        <r>  0.0000  0.0964  0.0000  0.0964  0.0000  0.0000  0.0000  0.0000  0.0000 </r>
        <r>  0.0000  0.0000  0.0201  0.0000  0.0000  0.0000  0.0000  0.0000  0.0000 </r>
       </set>
       <set comment="band 11">
        <r>  0.0000  0.0000  0.0012  0.0000  0.0000  0.0000  0.0000  0.0000  0.0000 </r>
        <r>  0.0371  0.0000  0.0000  0.0000  0.0000  0.0000  0.0000  0.0000  0.0000 </r>
        <r>  0.0000  0.0049  0.0000  0.0049  0.0000  0.0000  0.0000  0.0000  0.0000 </r>
        <r>  0.0000  0.0009  0.0000  0.0009  0.0000  0.0000  0.0000  0.0000  0.0000 </r>
        <r>  0.0000  0.0009  0.0000  0.0009  0.0000  0.0000  0.0000  0.0000  0.0000 </r>
        <r>  0.0000  0.0049  0.0000  0.0049  0.0000  0.0000  0.0000  0.0000  0.0000 </r>
        <r>  0.0000  0.0000  0.0000  0.0000  0.0000  0.0000  0.0000  0.0000  0.0000 </r>
        <r>  0.0000  0.1043  0.0000  0.1042  0.0000  0.0000  0.0000  0.0000  0.0000 </r>
       </set>
       <set comment="band 12">
        <r>  0.0371  0.0000  0.0000  0.0000  0.0000  0.0000  0.0000  0.0000  0.0000 </r>
        <r>  0.0000  0.0000  0.0012  0.0000  0.0000  0.0000  0.0000  0.0000  0.0000 </r>
        <r>  0.0000  0.0009  0.0000  0.0009  0.0000  0.0000  0.0000  0.0000  0.0000 </r>
        <r>  0.0000  0.0049  0.0000  0.0049  0.0000  0.0000  0.0000  0.0000  0.0000 </r>
        <r>  0.0000  0.0049  0.0000  0.0049  0.0000  0.0000  0.0000  0.0000  0.0000 </r>
        <r>  0.0000  0.0009  0.0000  0.0009  0.0000  0.0000  0.0000  0.0000  0.0000 </r>
        <r>  0.0000  0.1043  0.0000  0.1042  0.0000  0.0000  0.0000  0.0000  0.0000 </r>
        <r>  0.0000  0.0000  0.0000  0.0000  0.0000  0.0000  0.0000  0.0000  0.0000 </r>
       </set>
       <set comment="band 13">
        <r>  0.0000  0.0016  0.0000  0.0016  0.0000  0.0000  0.0000  0.0000  0.0000 </r>
        <r>  0.0000  0.0000  0.0000  0.0000  0.0000  0.0000  0.0000  0.0000  0.0000 </r>
        <r>  0.0000  0.0024  0.0000  0.0024  0.0000  0.0000  0.0000  0.0000  0.0000 </r>
        <r>  0.0014  0.0000  0.0141  0.0000  0.0000  0.0000  0.0000  0.0000  0.0000 </r>
        <r>  0.0014  0.0000  0.0141  0.0000  0.0000  0.0000  0.0000  0.0000  0.0000 </r>
        <r>  0.0000  0.0024  0.0000  0.0024  0.0000  0.0000  0.0000  0.0000  0.0000 </r>
        <r>  0.0000  0.0143  0.0000  0.0143  0.0000  0.0000  0.0000  0.0000  0.0000 </r>
        <r>  0.0000  0.0000  0.2622  0.0000  0.0000  0.0000  0.0000  0.0000  0.0000 </r>
       </set>
       <set comment="band 14">
        <r>  0.0000  0.0000  0.0000  0.0000  0.0000  0.0000  0.0000  0.0000  0.0000 </r>
        <r>  0.0000  0.0016  0.0000  0.0016  0.0000  0.0000  0.0000  0.0000  0.0000 </r>
        <r>  0.0014  0.0000  0.0141  0.0000  0.0000  0.0000  0.0000  0.0000  0.0000 </r>
        <r>  0.0000  0.0024  0.0000  0.0024  0.0000  0.0000  0.0000  0.0000  0.0000 </r>
        <r>  0.0000  0.0024  0.0000  0.0024  0.0000  0.0000  0.0000  0.0000  0.0000 </r>
        <r>  0.0014  0.0000  0.0141  0.0000  0.0000  0.0000  0.0000  0.0000  0.0000 </r>
        <r>  0.0000  0.0000  0.2622  0.0000  0.0000  0.0000  0.0000  0.0000  0.0000 </r>
        <r>  0.0000  0.0143  0.0000  0.0143  0.0000  0.0000  0.0000  0.0000  0.0000 </r>
       </set>
       <set comment="band 15">
        <r>  0.0000  0.0000  0.0432  0.0000  0.0000  0.0000  0.0000  0.0000  0.0000 </r>
        <r>  0.0013  0.0000  0.0000  0.0000  0.0000  0.0000  0.0000  0.0000  0.0000 </r>
        <r>  0.0000  0.0006  0.0000  0.0006  0.0000  0.0000  0.0000  0.0000  0.0000 </r>
        <r>  0.0000  0.0092  0.0000  0.0092  0.0000  0.0000  0.0000  0.0000  0.0000 </r>
        <r>  0.0000  0.0092  0.0000  0.0092  0.0000  0.0000  0.0000  0.0000  0.0000 </r>
        <r>  0.0000  0.0006  0.0000  0.0006  0.0000  0.0000  0.0000  0.0000  0.0000 </r>
        <r>  0.0000  0.0000  0.0000  0.0000  0.0000  0.0000  0.0000  0.0000  0.0000 </r>
        <r>  0.0000  0.0436  0.0000  0.0436  0.0000  0.0000  0.0000  0.0000  0.0000 </r>
       </set>
       <set comment="band 16">
        <r>  0.0013  0.0000  0.0000  0.0000  0.0000  0.0000  0.0000  0.0000  0.0000 </r>
        <r>  0.0000  0.0000  0.0432  0.0000  0.0000  0.0000  0.0000  0.0000  0.0000 </r>
        <r>  0.0000  0.0092  0.0000  0.0092  0.0000  0.0000  0.0000  0.0000  0.0000 </r>
        <r>  0.0000  0.0006  0.0000  0.0006  0.0000  0.0000  0.0000  0.0000  0.0000 </r>
        <r>  0.0000  0.0006  0.0000  0.0006  0.0000  0.0000  0.0000  0.0000  0.0000 </r>
        <r>  0.0000  0.0092  0.0000  0.0092  0.0000  0.0000  0.0000  0.0000  0.0000 </r>
        <r>  0.0000  0.0436  0.0000  0.0436  0.0000  0.0000  0.0000  0.0000  0.0000 </r>
        <r>  0.0000  0.0000  0.0000  0.0000  0.0000  0.0000  0.0000  0.0000  0.0000 </r>
       </set>
       <set comment="band 17">
        <r>  0.0000  0.0004  0.0000  0.0004  0.0000  0.0000  0.0000  0.0000  0.0000 </r>
        <r>  0.0000  0.0000  0.0000  0.0000  0.0000  0.0000  0.0000  0.0000  0.0000 </r>
        <r>  0.0352  0.0004  0.0032  0.0004  0.0000  0.0000  0.0000  0.0000  0.0000 </r>
        <r>  0.0013  0.0103  0.0001  0.0103  0.0000  0.0000  0.0000  0.0000  0.0000 </r>
        <r>  0.0013  0.0103  0.0001  0.0103  0.0000  0.0000  0.0000  0.0000  0.0000 </r>
        <r>  0.0351  0.0004  0.0032  0.0004  0.0000  0.0000  0.0000  0.0000  0.0000 </r>
        <r>  0.0640  0.0000  0.0000  0.0000  0.0000  0.0000  0.0000  0.0000  0.0000 </r>
        <r>  0.0023  0.0000  0.0000  0.0000  0.0000  0.0000  0.0000  0.0000  0.0000 </r>
       </set>
       <set comment="band 18">
        <r>  0.0000  0.0000  0.0000  0.0000  0.0000  0.0000  0.0000  0.0000  0.0000 </r>
        <r>  0.0000  0.0004  0.0000  0.0004  0.0000  0.0000  0.0000  0.0000  0.0000 </r>
        <r>  0.0013  0.0103  0.0001  0.0103  0.0000  0.0000  0.0000  0.0000  0.0000 </r>
        <r>  0.0352  0.0004  0.0032  0.0004  0.0000  0.0000  0.0000  0.0000  0.0000 </r>
        <r>  0.0352  0.0004  0.0032  0.0004  0.0000  0.0000  0.0000  0.0000  0.0000 </r>
        <r>  0.0013  0.0103  0.0001  0.0103  0.0000  0.0000  0.0000  0.0000  0.0000 </r>
        <r>  0.0023  0.0000  0.0000  0.0000  0.0000  0.0000  0.0000  0.0000  0.0000 </r>
        <r>  0.0640  0.0000  0.0000  0.0000  0.0000  0.0000  0.0000  0.0000  0.0000 </r>
       </set>
       <set comment="band 19">
        <r>  0.0000  0.0021  0.0000  0.0030  0.0000  0.0000  0.0000  0.0000  0.0000 </r>
        <r>  0.0000  0.0015  0.0000  0.0016  0.0000  0.0000  0.0000  0.0000  0.0000 </r>
        <r>  0.0098  0.0003  0.0141  0.0003  0.0000  0.0000  0.0000  0.0000  0.0000 </r>
        <r>  0.0149  0.0001  0.0237  0.0001  0.0000  0.0000  0.0000  0.0000  0.0000 </r>
        <r>  0.0150  0.0003  0.0236  0.0003  0.0000  0.0000  0.0000  0.0000  0.0000 </r>
        <r>  0.0089  0.0003  0.0153  0.0003  0.0000  0.0000  0.0000  0.0000  0.0000 </r>
        <r>  0.0000  0.0423  0.0015  0.0423  0.0000  0.0000  0.0000  0.0000  0.0000 </r>
        <r>  0.0000  0.0264  0.0024  0.0264  0.0000  0.0000  0.0000  0.0000  0.0000 </r>
       </set>
       <set comment="band 20">
        <r>  0.0000  0.0015  0.0000  0.0017  0.0000  0.0000  0.0000  0.0000  0.0000 </r>
        <r>  0.0000  0.0018  0.0000  0.0034  0.0000  0.0000  0.0000  0.0000  0.0000 </r>
        <r>  0.0148  0.0001  0.0238  0.0001  0.0000  0.0000  0.0000  0.0000  0.0000 </r>
        <r>  0.0100  0.0004  0.0139  0.0003  0.0000  0.0000  0.0000  0.0000  0.0000 </r>
        <r>  0.0088  0.0003  0.0155  0.0003  0.0000  0.0000  0.0000  0.0000  0.0000 </r>
        <r>  0.0151  0.0003  0.0234  0.0003  0.0000  0.0000  0.0000  0.0000  0.0000 </r>
        <r>  0.0000  0.0264  0.0024  0.0263  0.0000  0.0000  0.0000  0.0000  0.0000 </r>
        <r>  0.0000  0.0422  0.0015  0.0424  0.0000  0.0000  0.0000  0.0000  0.0000 </r>
       </set>
      </set>
     </set>
    </set>
   </array>
  </projected>
 </calculation>
 <structure name="finalpos" >
  <crystal>
   <varray name="basis" >
    <v>       2.11242149      -3.65882171       0.00000000 </v>
    <v>       2.11242149       3.65882171      -0.00000000 </v>
    <v>       0.00000000       0.00000000       7.55250286 </v>
   </varray>
   <i name="volume">    116.74619079 </i>
   <varray name="rec_basis" >
    <v>       0.23669519      -0.13665602      -0.00000000 </v>
    <v>       0.23669519       0.13665602      -0.00000000 </v>
    <v>       0.00000000       0.00000000       0.13240644 </v>
   </varray>
  </crystal>
  <varray name="positions" >
   <v>      -0.00000000       0.00000000       0.25000000 </v>
   <v>       0.00000000      -0.00000000       0.75000000 </v>
   <v>       0.33333300       0.66666700       0.58410447 </v>
   <v>       0.66666700       0.33333300       0.08410447 </v>
   <v>       0.66666700       0.33333300       0.41589553 </v>
   <v>       0.33333300       0.66666700       0.91589553 </v>
   <v>       0.33333300       0.66666700       0.25000000 </v>
   <v>       0.66666700       0.33333300       0.75000000 </v>
  </varray>
 </structure>
</modeling>
