unknown system                          
           1
     2.117929   -3.668361    0.000000
     2.117929    3.668361    0.000000
     0.000000    0.000000    7.570718
   Li   P 
   6   2
Direct configuration=     1
   0.00000000  0.00000000  0.25000000
   0.00000000  0.00000000  0.75000000
   0.33333300  0.66666700  0.58411900
   0.66666700  0.33333300  0.08411900
   0.66666700  0.33333300  0.41588100
   0.33333300  0.66666700  0.91588100
   0.33333300  0.66666700  0.25000000
   0.66666700  0.33333300  0.75000000
unknown system                          
           1
     2.114983   -3.663259    0.000000
     2.114983    3.663259   -0.000000
     0.000000    0.000000    7.560975
   Li   P 
   6   2
Direct configuration=     2
  -0.00000000  0.00000000  0.25000000
   0.00000000 -0.00000000  0.75000000
   0.33333300  0.66666700  0.58411123
   0.66666700  0.33333300  0.08411123
   0.66666700  0.33333300  0.41588877
   0.33333300  0.66666700  0.91588877
   0.33333300  0.66666700  0.25000000
   0.66666700  0.33333300  0.75000000
unknown system                          
           1
     2.112421   -3.658822    0.000000
     2.112421    3.658822   -0.000000
     0.000000    0.000000    7.552503
   Li   P 
   6   2
Direct configuration=     3
  -0.00000000  0.00000000  0.25000000
   0.00000000 -0.00000000  0.75000000
   0.33333300  0.66666700  0.58410447
   0.66666700  0.33333300  0.08410447
   0.66666700  0.33333300  0.41589553
   0.33333300  0.66666700  0.91589553
   0.33333300  0.66666700  0.25000000
   0.66666700  0.33333300  0.75000000
