 running on   24 total cores
 distrk:  each k-point on   24 cores,    1 groups
 distr:  one band on    6 cores,    4 groups
 using from now: INCAR     
 vasp.6.1.2 22Jul20 (build Mar 31 2021 18:09:49) complex                        
  
 POSCAR found type information on POSCAR LiO 
 POSCAR found :  2 types and       3 ions
 scaLAPACK will be used
 -----------------------------------------------------------------------------
|                                                                             |
|               ----> ADVICE to this user running VASP <----                  |
|                                                                             |
|     You have a (more or less) 'small supercell' and for smaller cells       |
|     it is recommended to use the reciprocal-space projection scheme!        |
|     The real-space optimization is not efficient for small cells and it     |
|     is also less accurate ...                                               |
|     Therefore, set LREAL=.FALSE. in the INCAR file.                         |
|                                                                             |
 -----------------------------------------------------------------------------

 LDA part: xc-table for Pade appr. of Perdew
 generate k-points for:   12   12   12
 POSCAR, INCAR and KPOINTS ok, starting setup
 FFT: planning ...
 WAVECAR not read
 entering main loop
       N       E                     dE             d eps       ncg     rms          rms(c)
DAV:   1     0.449934774663E+02    0.44993E+02   -0.56498E+03 22928   0.103E+03
DAV:   2    -0.964200876139E+01   -0.54635E+02   -0.52619E+02 27572   0.227E+02
DAV:   3    -0.152766824000E+02   -0.56347E+01   -0.55918E+01 42988   0.535E+01
DAV:   4    -0.153239524257E+02   -0.47270E-01   -0.47261E-01 26524   0.652E+00
DAV:   5    -0.153243537315E+02   -0.40131E-03   -0.40130E-03 31764   0.452E-01    0.116E+01
RMM:   6    -0.142054273309E+02    0.11189E+01   -0.35364E+00 24971   0.125E+01    0.500E+00
RMM:   7    -0.143106186399E+02   -0.10519E+00   -0.12391E-01 28209   0.288E+00    0.207E+00
RMM:   8    -0.143139835616E+02   -0.33649E-02   -0.50613E-02 32060   0.222E+00    0.116E+00
RMM:   9    -0.143266608732E+02   -0.12677E-01   -0.30799E-02 32355   0.197E+00    0.248E-01
RMM:  10    -0.143276789370E+02   -0.10181E-02   -0.89441E-03 37232   0.717E-01    0.144E-01
RMM:  11    -0.143287210337E+02   -0.10421E-02   -0.59006E-03 35388   0.598E-01    0.184E-01
RMM:  12    -0.143284794214E+02    0.24161E-03   -0.16157E-03 36169   0.330E-01    0.821E-02
RMM:  13    -0.143284712692E+02    0.81522E-05   -0.80926E-04 36479   0.229E-01    0.203E-02
RMM:  14    -0.143285100215E+02   -0.38752E-04   -0.30523E-04 35596   0.123E-01    0.292E-02
RMM:  15    -0.143285266579E+02   -0.16636E-04   -0.11610E-04 32796   0.790E-02    0.297E-02
RMM:  16    -0.143285289574E+02   -0.22996E-05   -0.53666E-05 29958   0.569E-02
   1 F= -.14328529E+02 E0= -.14328529E+02  d E =0.000000E+00  mag=    -0.0000
