       N       E                     dE             d eps       ncg     rms          rms(c)
DAV:   1     0.400923652629E+03    0.40092E+03   -0.25958E+04 11040   0.137E+03
DAV:   2    -0.438469209798E+01   -0.40531E+03   -0.37383E+03 12560   0.328E+02
DAV:   3    -0.558472962090E+02   -0.51463E+02   -0.50818E+02 15830   0.903E+01
DAV:   4    -0.634006615104E+02   -0.75534E+01   -0.74846E+01 19770   0.338E+01
DAV:   5    -0.641330599199E+02   -0.73240E+00   -0.73211E+00 15784   0.763E+00    0.212E+01
DAV:   6    -0.654807516543E+02   -0.13477E+01   -0.27812E+00 14658   0.659E+00    0.113E+01
DAV:   7    -0.667600382076E+02   -0.12793E+01   -0.73661E-01 13448   0.420E+00    0.602E+00
DAV:   8    -0.669824534718E+02   -0.22242E+00   -0.63774E-01 14302   0.302E+00    0.127E+00
DAV:   9    -0.670139321490E+02   -0.31479E-01   -0.79734E-02 16672   0.113E+00    0.503E-01
DAV:  10    -0.670181632943E+02   -0.42311E-02   -0.65058E-03 14204   0.382E-01    0.207E-01
DAV:  11    -0.670196435161E+02   -0.14802E-02   -0.20229E-03 13564   0.212E-01    0.919E-02
DAV:  12    -0.670198989861E+02   -0.25547E-03   -0.60779E-04 13944   0.107E-01    0.395E-02
DAV:  13    -0.670199413735E+02   -0.42387E-04   -0.90263E-05 13322   0.515E-02    0.204E-02
DAV:  14    -0.670199525027E+02   -0.11129E-04   -0.22767E-05 10440   0.259E-02    0.591E-03
DAV:  15    -0.670199540105E+02   -0.15078E-05   -0.40033E-06  7644   0.125E-02
   1 F= -.67019954E+02 E0= -.67019954E+02  d E =0.000000E+00  mag=    -0.0003
