 running on   12 total cores
 distrk:  each k-point on   12 cores,    1 groups
 distr:  one band on    6 cores,    2 groups
 using from now: INCAR     
 vasp.6.1.2 22Jul20 (build Mar 20 2021 11:25:07) complex                        
  
 POSCAR found type information on POSCAR LiN 
 POSCAR found :  2 types and       4 ions
 scaLAPACK will be used
 -----------------------------------------------------------------------------
|                                                                             |
|               ----> ADVICE to this user running VASP <----                  |
|                                                                             |
|     You have a (more or less) 'small supercell' and for smaller cells       |
|     it is recommended to use the reciprocal-space projection scheme!        |
|     The real-space optimization is not efficient for small cells and it     |
|     is also less accurate ...                                               |
|     Therefore, set LREAL=.FALSE. in the INCAR file.                         |
|                                                                             |
 -----------------------------------------------------------------------------

 LDA part: xc-table for Pade appr. of Perdew
 generate k-points for:   10   10    8
 POSCAR, INCAR and KPOINTS ok, starting setup
 FFT: planning ...
 WAVECAR not read
 entering main loop
       N       E                     dE             d eps       ncg     rms          rms(c)
DAV:   1     0.603342018926E+02    0.60334E+02   -0.63965E+03 12480   0.119E+03
DAV:   2    -0.893751370725E+01   -0.69272E+02   -0.64776E+02 16308   0.252E+02
DAV:   3    -0.180297476101E+02   -0.90922E+01   -0.90324E+01 20820   0.728E+01
DAV:   4    -0.187103287088E+02   -0.68058E+00   -0.67984E+00 18328   0.181E+01
DAV:   5    -0.187199881322E+02   -0.96594E-02   -0.96590E-02 18036   0.246E+00    0.142E+01
RMM:   6    -0.156194670336E+02    0.31005E+01   -0.86093E+00 14452   0.162E+01    0.650E+00
RMM:   7    -0.156577371080E+02   -0.38270E-01   -0.74638E-01 16718   0.914E+00    0.250E+00
RMM:   8    -0.156012384781E+02    0.56499E-01   -0.32093E-01 20239   0.390E+00    0.142E+00
RMM:   9    -0.156079318826E+02   -0.66934E-02   -0.14648E-01 19281   0.305E+00    0.486E-01
RMM:  10    -0.156133813786E+02   -0.54495E-02   -0.58639E-02 21729   0.175E+00    0.273E-01
RMM:  11    -0.156164767579E+02   -0.30954E-02   -0.24185E-02 21940   0.921E-01    0.141E-01
RMM:  12    -0.156176594472E+02   -0.11827E-02   -0.92779E-03 21892   0.669E-01    0.546E-02
RMM:  13    -0.156182709112E+02   -0.61146E-03   -0.46923E-03 22093   0.407E-01    0.475E-02
RMM:  14    -0.156184803514E+02   -0.20944E-03   -0.18872E-03 21114   0.250E-01    0.191E-02
RMM:  15    -0.156185807235E+02   -0.10037E-03   -0.90967E-04 20209   0.165E-01    0.436E-03
WARNING in EDDRMM: call to ZHEGV failed, returncode =   8  4      6
RMM:  16    -0.156186303379E+02   -0.49614E-04   -0.40294E-04 18813   0.110E-01    0.590E-03
RMM:  17    -0.156186522070E+02   -0.21869E-04   -0.19026E-04 17561   0.763E-02    0.492E-03
RMM:  18    -0.156186614340E+02   -0.92270E-05   -0.88865E-05 16667   0.577E-02
   1 F= -.15618661E+02 E0= -.15618661E+02  d E =0.000000E+00  mag=     0.0001
