    9    9    1    2
  0.1050573E+02  0.4703359E-09  0.5112339E-09  0.5112339E-09  0.5000000E-15
  1.000000000000000E-004
  CAR 
 unknown system                          
     51    116     34
 
  0.0000000E+00  0.0000000E+00  0.0000000E+00  0.2551020E-02
    1      -43.355990    -43.355324   1.000000   1.000000
    2      -27.758798    -27.775822   1.000000   1.000000
    3      -26.663119    -26.648072   1.000000   1.000000
    4      -26.650327    -26.629050   1.000000   1.000000
    5      -25.964072    -26.003949   1.000000   1.000000
    6      -13.292885    -13.294423   1.000000   1.000000
    7      -12.794613    -12.790582   1.000000   1.000000
    8      -12.716260    -12.744647   1.000000   1.000000
    9      -11.801850    -11.806727   1.000000   1.000000
   10       -8.635316     -8.637007   1.000000   1.000000
   11       -8.288544     -8.299575   1.000000   1.000000
   12       -7.865212     -7.862732   1.000000   1.000000
   13       -7.667138     -7.664045   1.000000   1.000000
   14       -7.028606     -7.051848   1.000000   1.000000
   15       -6.071301     -6.091579   1.000000   1.000000
   16       -6.005448     -5.975716   1.000000   1.000000
   17       -5.914208     -5.938579   1.000000   1.000000
   18       -4.774198     -4.792222   1.000000   1.000000
   19       -4.755837     -4.766444   1.000000   1.000000
   20       -4.618387     -4.624803   1.000000   1.000000
   21       -4.544374     -4.546159   1.000000   1.000000
   22       -0.513416     -0.511047   1.000000   1.000000
   23       -0.399899     -0.420004   1.000000   1.000000
   24        0.227279      0.235347   1.000000   1.000000
   25        1.099018      1.073247   1.000000   1.000000
   26        2.635591      2.589200   0.000000   0.000000
   27        2.668929      2.663182   0.000000   0.000000
   28        2.763117      2.763080   0.000000   0.000000
   29        3.034569      3.040784   0.000000   0.000000
   30        9.558547      9.551500   0.000000   0.000000
   31       10.117071     10.135741   0.000000   0.000000
   32       10.599687     10.570124   0.000000   0.000000
   33       12.524645     12.502504   0.000000   0.000000
   34       12.667234     12.670002   0.000000   0.000000
 
  0.1250000E+00  0.4013904E-18 -0.4768184E-14  0.5102041E-02
    1      -43.355911    -43.355245   1.000000   1.000000
    2      -27.756394    -27.773488   1.000000   1.000000
    3      -26.665237    -26.648027   1.000000   1.000000
    4      -26.650300    -26.631165   1.000000   1.000000
    5      -25.965036    -26.004863   1.000000   1.000000
    6      -13.397087    -13.399752   1.000000   1.000000
    7      -12.744564    -12.748746   1.000000   1.000000
    8      -12.676337    -12.694340   1.000000   1.000000
    9      -11.788939    -11.794924   1.000000   1.000000
   10       -8.629903     -8.631418   1.000000   1.000000
   11       -8.313463     -8.324591   1.000000   1.000000
   12       -7.778930     -7.772174   1.000000   1.000000
   13       -7.581950     -7.583086   1.000000   1.000000
   14       -7.031536     -7.054144   1.000000   1.000000
   15       -6.235403     -6.261028   1.000000   1.000000
   16       -6.071449     -6.042551   1.000000   1.000000
   17       -5.835192     -5.853790   1.000000   1.000000
   18       -4.769395     -4.794685   1.000000   1.000000
   19       -4.758659     -4.761535   1.000000   1.000000
   20       -4.610733     -4.617621   1.000000   1.000000
   21       -4.539105     -4.541120   1.000000   1.000000
   22       -0.502969     -0.500559   1.000000   1.000000
   23       -0.356250     -0.375845   1.000000   1.000000
   24        0.225077      0.232282   1.000000   1.000000
   25        1.033787      1.008510   1.000000   1.000000
   26        2.634513      2.587251   0.000000   0.000000
   27        2.648306      2.644375   0.000000   0.000000
   28        2.767699      2.766848   0.000000   0.000000
   29        3.027209      3.032943   0.000000   0.000000
   30        9.481250      9.475940   0.000000   0.000000
   31       10.431660     10.450004   0.000000   0.000000
   32       10.723570     10.695409   0.000000   0.000000
   33       11.833638     11.842272   0.000000   0.000000
   34       12.702325     12.912592   0.000000   0.000000
 
  0.2500000E+00 -0.6132307E-18  0.5017029E-14  0.5102041E-02
    1      -43.355738    -43.355071   1.000000   1.000000
    2      -27.750830    -27.768088   1.000000   1.000000
    3      -26.670661    -26.647747   1.000000   1.000000
    4      -26.650038    -26.636582   1.000000   1.000000
    5      -25.967459    -26.007149   1.000000   1.000000
    6      -13.628586    -13.632334   1.000000   1.000000
    7      -12.619412    -12.635544   1.000000   1.000000
    8      -12.564982    -12.568510   1.000000   1.000000
    9      -11.773922    -11.781479   1.000000   1.000000
   10       -8.631564     -8.632802   1.000000   1.000000
   11       -8.365360     -8.376696   1.000000   1.000000
   12       -7.743391     -7.735090   1.000000   1.000000
   13       -7.184378     -7.186804   1.000000   1.000000
   14       -7.050583     -7.070706   1.000000   1.000000
   15       -6.460496     -6.490102   1.000000   1.000000
   16       -6.238190     -6.212560   1.000000   1.000000
   17       -5.840267     -5.853901   1.000000   1.000000
   18       -4.764976     -4.800149   1.000000   1.000000
   19       -4.757759     -4.749737   1.000000   1.000000
   20       -4.590530     -4.598333   1.000000   1.000000
   21       -4.526913     -4.529368   1.000000   1.000000
   22       -0.460613     -0.458185   1.000000   1.000000
   23       -0.225938     -0.243800   1.000000   1.000000
   24        0.221857      0.226847   1.000000   1.000000
   25        0.879317      0.854637   1.000000   1.000000
   26        2.612405      2.584441   0.000000   0.000000
   27        2.634094      2.610597   0.000000   0.000000
   28        2.765162      2.764929   0.000000   0.000000
   29        3.007371      3.012347   0.000000   0.000000
   30        9.125720      9.121207   0.000000   0.000000
   31       10.602135     10.604435   0.000000   0.000000
   32       11.216517     11.206085   0.000000   0.000000
   33       11.234200     11.235237   0.000000   0.000000
   34       12.498902     12.612407   0.000000   0.000000
 
  0.3750000E+00 -0.8885458E-17  0.2488453E-15  0.5102041E-02
    1      -43.355586    -43.354918   1.000000   1.000000
    2      -27.745343    -27.762768   1.000000   1.000000
    3      -26.676108    -26.647636   1.000000   1.000000
    4      -26.649960    -26.642025   1.000000   1.000000
    5      -25.970196    -26.009760   1.000000   1.000000
    6      -13.836940    -13.841020   1.000000   1.000000
    7      -12.487229    -12.494584   1.000000   1.000000
    8      -12.422315    -12.435572   1.000000   1.000000
    9      -11.794793    -11.801130   1.000000   1.000000
   10       -8.633816     -8.634886   1.000000   1.000000
   11       -8.402178     -8.413708   1.000000   1.000000
   12       -7.721450     -7.712723   1.000000   1.000000
   13       -7.105773     -7.120645   1.000000   1.000000
   14       -6.774171     -6.781349   1.000000   1.000000
   15       -6.606889     -6.634463   1.000000   1.000000
   16       -6.397749     -6.378441   1.000000   1.000000
   17       -5.938153     -5.948229   1.000000   1.000000
   18       -4.770555     -4.804921   1.000000   1.000000
   19       -4.746715     -4.738675   1.000000   1.000000
   20       -4.568153     -4.576594   1.000000   1.000000
   21       -4.515334     -4.518121   1.000000   1.000000
   22       -0.394683     -0.392220   1.000000   1.000000
   23       -0.064985     -0.080079   1.000000   1.000000
   24        0.218885      0.221341   1.000000   1.000000
   25        0.729605      0.704607   1.000000   1.000000
   26        2.586413      2.584952   0.000000   0.000000
   27        2.637989      2.585439   0.000000   0.000000
   28        2.753167      2.755288   0.000000   0.000000
   29        2.983965      2.988989   0.000000   0.000000
   30        8.548076      8.543766   0.000000   0.000000
   31       10.008518     10.009868   0.000000   0.000000
   32       11.603468     11.603480   0.000000   0.000000
   33       11.745078     11.738546   0.000000   0.000000
   34       12.318172     12.377892   0.000000   0.000000
 
  0.5000000E+00 -0.3023961E-16 -0.4542010E-14  0.2551020E-02
    1      -43.355545    -43.354877   1.000000   1.000000
    2      -27.743336    -27.760831   1.000000   1.000000
    3      -26.678573    -26.647649   1.000000   1.000000
    4      -26.649987    -26.644485   1.000000   1.000000
    5      -25.971457    -26.010973   1.000000   1.000000
    6      -13.917879    -13.922022   1.000000   1.000000
    7      -12.430273    -12.421730   1.000000   1.000000
    8      -12.346378    -12.378275   1.000000   1.000000
    9      -11.822304    -11.825826   1.000000   1.000000
   10       -8.631737     -8.632762   1.000000   1.000000
   11       -8.411384     -8.423004   1.000000   1.000000
   12       -7.707210     -7.698227   1.000000   1.000000
   13       -7.147720     -7.159210   1.000000   1.000000
   14       -6.732689     -6.760820   1.000000   1.000000
   15       -6.528959     -6.536679   1.000000   1.000000
   16       -6.454430     -6.438991   1.000000   1.000000
   17       -5.998215     -6.006929   1.000000   1.000000
   18       -4.772656     -4.806705   1.000000   1.000000
   19       -4.742420     -4.734411   1.000000   1.000000
   20       -4.558380     -4.567026   1.000000   1.000000
   21       -4.510684     -4.513592   1.000000   1.000000
   22       -0.359755     -0.357209   1.000000   1.000000
   23        0.009085     -0.004344   1.000000   1.000000
   24        0.215865      0.217117   1.000000   1.000000
   25        0.669601      0.644059   1.000000   1.000000
   26        2.577430      2.576550   0.000000   0.000000
   27        2.641341      2.586389   0.000000   0.000000
   28        2.746492      2.749969   0.000000   0.000000
   29        2.972875      2.978281   0.000000   0.000000
   30        8.265255      8.261228   0.000000   0.000000
   31        9.845262      9.845729   0.000000   0.000000
   32       11.447688     11.445369   0.000000   0.000000
   33       12.016077     11.997620   0.000000   0.000000
   34       12.286643     12.262568   0.000000   0.000000
 
  0.2007548E-18  0.1428571E+00 -0.6458363E-14  0.1020408E-01
    1      -43.355937    -43.355270   1.000000   1.000000
    2      -27.750191    -27.767576   1.000000   1.000000
    3      -26.695822    -26.673955   1.000000   1.000000
    4      -26.621245    -26.606078   1.000000   1.000000
    5      -25.972038    -26.012264   1.000000   1.000000
    6      -13.299383    -13.300293   1.000000   1.000000
    7      -12.796069    -12.806639   1.000000   1.000000
    8      -12.709794    -12.724096   1.000000   1.000000
    9      -11.809067    -11.814013   1.000000   1.000000
   10       -8.594318     -8.596531   1.000000   1.000000
   11       -8.262659     -8.272849   1.000000   1.000000
   12       -7.800022     -7.797226   1.000000   1.000000
   13       -7.605547     -7.603360   1.000000   1.000000
   14       -7.055097     -7.076629   1.000000   1.000000
   15       -6.143480     -6.159187   1.000000   1.000000
   16       -6.015329     -5.992193   1.000000   1.000000
   17       -5.890716     -5.913418   1.000000   1.000000
   18       -4.863489     -4.890755   1.000000   1.000000
   19       -4.802715     -4.805456   1.000000   1.000000
   20       -4.647695     -4.652639   1.000000   1.000000
   21       -4.548517     -4.551427   1.000000   1.000000
   22       -0.475744     -0.477568   1.000000   1.000000
   23       -0.310507     -0.325110   1.000000   1.000000
   24        0.295522      0.303025   1.000000   1.000000
   25        1.039925      1.016686   1.000000   1.000000
   26        2.506525      2.466669   0.000000   0.000000
   27        2.648684      2.634140   0.000000   0.000000
   28        2.762698      2.762445   0.000000   0.000000
   29        2.997892      3.002820   0.000000   0.000000
   30        9.648836      9.640961   0.000000   0.000000
   31       10.181119     10.198674   0.000000   0.000000
   32       10.603423     10.575518   0.000000   0.000000
   33       12.464176     12.496904   0.000000   0.000000
   34       12.671269     12.645309   0.000000   0.000000
 
  0.1250000E+00  0.1428571E+00  0.3312852E-14  0.1020408E-01
    1      -43.355902    -43.355235   1.000000   1.000000
    2      -27.749623    -27.767015   1.000000   1.000000
    3      -26.695561    -26.673907   1.000000   1.000000
    4      -26.621636    -26.606286   1.000000   1.000000
    5      -25.973064    -26.013253   1.000000   1.000000
    6      -13.322688    -13.325373   1.000000   1.000000
    7      -12.817574    -12.810327   1.000000   1.000000
    8      -12.675191    -12.705913   1.000000   1.000000
    9      -11.798584    -11.803261   1.000000   1.000000
   10       -8.591986     -8.594212   1.000000   1.000000
   11       -8.259158     -8.269244   1.000000   1.000000
   12       -7.788423     -7.785164   1.000000   1.000000
   13       -7.603718     -7.601843   1.000000   1.000000
   14       -7.050719     -7.072348   1.000000   1.000000
   15       -6.168933     -6.187620   1.000000   1.000000
   16       -6.015562     -5.989531   1.000000   1.000000
   17       -5.883404     -5.906007   1.000000   1.000000
   18       -4.876158     -4.902841   1.000000   1.000000
   19       -4.793776     -4.796068   1.000000   1.000000
   20       -4.642754     -4.648840   1.000000   1.000000
   21       -4.551924     -4.554841   1.000000   1.000000
   22       -0.455128     -0.457028   1.000000   1.000000
   23       -0.292593     -0.307168   1.000000   1.000000
   24        0.282479      0.288888   1.000000   1.000000
   25        1.024838      1.000244   1.000000   1.000000
   26        2.523578      2.486483   0.000000   0.000000
   27        2.617259      2.604082   0.000000   0.000000
   28        2.769587      2.769210   0.000000   0.000000
   29        2.997951      3.002253   0.000000   0.000000
   30        9.643699      9.637238   0.000000   0.000000
   31       10.124440     10.137699   0.000000   0.000000
   32       10.671735     10.647557   0.000000   0.000000
   33       12.214427     12.220334   0.000000   0.000000
   34       12.948501     12.908158   0.000000   0.000000
 
  0.2500000E+00  0.1428571E+00 -0.1451742E-14  0.1020408E-01
    1      -43.355763    -43.355096   1.000000   1.000000
    2      -27.745332    -27.762847   1.000000   1.000000
    3      -26.697186    -26.674699   1.000000   1.000000
    4      -26.623677    -26.609165   1.000000   1.000000
    5      -25.975543    -26.015606   1.000000   1.000000
    6      -13.506431    -13.510740   1.000000   1.000000
    7      -12.761074    -12.753362   1.000000   1.000000
    8      -12.562188    -12.591051   1.000000   1.000000
    9      -11.780401    -11.785977   1.000000   1.000000
   10       -8.586734     -8.588858   1.000000   1.000000
   11       -8.293689     -8.303849   1.000000   1.000000
   12       -7.724003     -7.716291   1.000000   1.000000
   13       -7.348172     -7.350574   1.000000   1.000000
   14       -7.054388     -7.074777   1.000000   1.000000
   15       -6.378256     -6.402896   1.000000   1.000000
   16       -6.134792     -6.109509   1.000000   1.000000
   17       -5.854407     -5.871107   1.000000   1.000000
   18       -4.887284     -4.914321   1.000000   1.000000
   19       -4.778782     -4.779896   1.000000   1.000000
   20       -4.627974     -4.635031   1.000000   1.000000
   21       -4.544142     -4.547359   1.000000   1.000000
   22       -0.401739     -0.401401   1.000000   1.000000
   23       -0.207689     -0.223036   1.000000   1.000000
   24        0.270700      0.274535   1.000000   1.000000
   25        0.904076      0.879017   1.000000   1.000000
   26        2.519525      2.490681   0.000000   0.000000
   27        2.584915      2.566944   0.000000   0.000000
   28        2.769558      2.768837   0.000000   0.000000
   29        2.986075      2.989200   0.000000   0.000000
   30        9.418982      9.414429   0.000000   0.000000
   31       10.484672     10.487180   0.000000   0.000000
   32       11.039240     11.037544   0.000000   0.000000
   33       11.356956     11.345330   0.000000   0.000000
   34       12.459353     12.568422   0.000000   0.000000
 
  0.3750000E+00  0.1428571E+00 -0.6226865E-14  0.1020408E-01
    1      -43.355618    -43.354949   1.000000   1.000000
    2      -27.739868    -27.757552   1.000000   1.000000
    3      -26.700158    -26.676262   1.000000   1.000000
    4      -26.625994    -26.612863   1.000000   1.000000
    5      -25.978126    -26.018049   1.000000   1.000000
    6      -13.730078    -13.734536   1.000000   1.000000
    7      -12.632483    -12.624694   1.000000   1.000000
    8      -12.422288    -12.451943   1.000000   1.000000
    9      -11.792972    -11.797805   1.000000   1.000000
   10       -8.590156     -8.592187   1.000000   1.000000
   11       -8.336749     -8.347068   1.000000   1.000000
   12       -7.706808     -7.698458   1.000000   1.000000
   13       -7.086490     -7.104061   1.000000   1.000000
   14       -6.900075     -6.902559   1.000000   1.000000
   15       -6.560264     -6.587893   1.000000   1.000000
   16       -6.326633     -6.306973   1.000000   1.000000
   17       -5.923044     -5.934139   1.000000   1.000000
   18       -4.889199     -4.916849   1.000000   1.000000
   19       -4.767657     -4.767859   1.000000   1.000000
   20       -4.610707     -4.617736   1.000000   1.000000
   21       -4.529315     -4.533053   1.000000   1.000000
   22       -0.331172     -0.329512   1.000000   1.000000
   23       -0.069783     -0.083227   1.000000   1.000000
   24        0.271067      0.272035   1.000000   1.000000
   25        0.750662      0.725140   1.000000   1.000000
   26        2.499708      2.480313   0.000000   0.000000
   27        2.573932      2.546254   0.000000   0.000000
   28        2.758420      2.758269   0.000000   0.000000
   29        2.965262      2.967974   0.000000   0.000000
   30        8.875804      8.871237   0.000000   0.000000
   31       10.300368     10.303098   0.000000   0.000000
   32       11.101736     11.097843   0.000000   0.000000
   33       11.919067     11.868435   0.000000   0.000000
   34       12.330347     12.403155   0.000000   0.000000
 
  0.5000000E+00  0.1428571E+00  0.3565287E-14  0.1020408E-01
    1      -43.355542    -43.354874   1.000000   1.000000
    2      -27.736505    -27.754306   1.000000   1.000000
    3      -26.702679    -26.677663   1.000000   1.000000
    4      -26.627084    -26.615024   1.000000   1.000000
    5      -25.979353    -26.019209   1.000000   1.000000
    6      -13.866674    -13.870917   1.000000   1.000000
    7      -12.503272    -12.492050   1.000000   1.000000
    8      -12.342215    -12.378247   1.000000   1.000000
    9      -11.827615    -11.829640   1.000000   1.000000
   10       -8.588896     -8.590695   1.000000   1.000000
   11       -8.368222     -8.378848   1.000000   1.000000
   12       -7.670717     -7.661943   1.000000   1.000000
   13       -7.143100     -7.155996   1.000000   1.000000
   14       -6.714820     -6.739744   1.000000   1.000000
   15       -6.561475     -6.565229   1.000000   1.000000
   16       -6.452808     -6.442926   1.000000   1.000000
   17       -5.985926     -5.993816   1.000000   1.000000
   18       -4.880909     -4.909272   1.000000   1.000000
   19       -4.765569     -4.765184   1.000000   1.000000
   20       -4.602865     -4.609394   1.000000   1.000000
   21       -4.516369     -4.520437   1.000000   1.000000
   22       -0.287411     -0.285465   1.000000   1.000000
   23        0.029022      0.018831   1.000000   1.000000
   24        0.282606      0.281638   1.000000   1.000000
   25        0.657227      0.631320   1.000000   1.000000
   26        2.486201      2.465316   0.000000   0.000000
   27        2.579187      2.549944   0.000000   0.000000
   28        2.744066      2.744186   0.000000   0.000000
   29        2.946072      2.949710   0.000000   0.000000
   30        8.408902      8.404683   0.000000   0.000000
   31       10.027147     10.027711   0.000000   0.000000
   32       11.274355     11.272608   0.000000   0.000000
   33       12.073862     12.061322   0.000000   0.000000
   34       12.281474     12.273374   0.000000   0.000000
 
 -0.3750000E+00  0.1428571E+00 -0.3737056E-14  0.1020408E-01
    1      -43.355578    -43.354910   1.000000   1.000000
    2      -27.737024    -27.754820   1.000000   1.000000
    3      -26.703250    -26.678055   1.000000   1.000000
    4      -26.626670    -26.614763   1.000000   1.000000
    5      -25.978343    -26.018229   1.000000   1.000000
    6      -13.851692    -13.855635   1.000000   1.000000
    7      -12.482239    -12.492432   1.000000   1.000000
    8      -12.387407    -12.399296   1.000000   1.000000
    9      -11.817235    -11.822149   1.000000   1.000000
   10       -8.592027     -8.593583   1.000000   1.000000
   11       -8.383744     -8.394593   1.000000   1.000000
   12       -7.652064     -7.643319   1.000000   1.000000
   13       -7.149639     -7.162403   1.000000   1.000000
   14       -6.733918     -6.755672   1.000000   1.000000
   15       -6.584255     -6.590925   1.000000   1.000000
   16       -6.443485     -6.433726   1.000000   1.000000
   17       -5.950481     -5.958730   1.000000   1.000000
   18       -4.868841     -4.898071   1.000000   1.000000
   19       -4.772472     -4.771817   1.000000   1.000000
   20       -4.610183     -4.616202   1.000000   1.000000
   21       -4.513515     -4.517426   1.000000   1.000000
   22       -0.316574     -0.314825   1.000000   1.000000
   23        0.008165     -0.002345   1.000000   1.000000
   24        0.296656      0.296577   1.000000   1.000000
   25        0.673263      0.648877   1.000000   1.000000
   26        2.478865      2.449818   0.000000   0.000000
   27        2.598337      2.574691   0.000000   0.000000
   28        2.738885      2.738010   0.000000   0.000000
   29        2.944287      2.948827   0.000000   0.000000
   30        8.448527      8.444218   0.000000   0.000000
   31       10.088071     10.089123   0.000000   0.000000
   32       11.433642     11.429308   0.000000   0.000000
   33       11.749960     11.741304   0.000000   0.000000
   34       12.560579     12.440679   0.000000   0.000000
 
 -0.2500000E+00  0.1428571E+00 -0.1417601E-14  0.1020408E-01
    1      -43.355695    -43.355028   1.000000   1.000000
    2      -27.741134    -27.758802   1.000000   1.000000
    3      -26.701188    -26.676835   1.000000   1.000000
    4      -26.624766    -26.612021   1.000000   1.000000
    5      -25.975677    -26.015684   1.000000   1.000000
    6      -13.690414    -13.693843   1.000000   1.000000
    7      -12.595744    -12.626978   1.000000   1.000000
    8      -12.499272    -12.487420   1.000000   1.000000
    9      -11.792113    -11.800145   1.000000   1.000000
   10       -8.594547     -8.596167   1.000000   1.000000
   11       -8.364224     -8.374974   1.000000   1.000000
   12       -7.660896     -7.652483   1.000000   1.000000
   13       -7.102878     -7.120657   1.000000   1.000000
   14       -6.980488     -6.982142   1.000000   1.000000
   15       -6.565830     -6.591977   1.000000   1.000000
   16       -6.317161     -6.299751   1.000000   1.000000
   17       -5.850618     -5.861878   1.000000   1.000000
   18       -4.859599     -4.889331   1.000000   1.000000
   19       -4.786240     -4.786126   1.000000   1.000000
   20       -4.626611     -4.631935   1.000000   1.000000
   21       -4.521980     -4.525478   1.000000   1.000000
   22       -0.393744     -0.392462   1.000000   1.000000
   23       -0.120697     -0.134236   1.000000   1.000000
   24        0.303811      0.307033   1.000000   1.000000
   25        0.789102      0.766793   1.000000   1.000000
   26        2.475854      2.440247   0.000000   0.000000
   27        2.628078      2.609123   0.000000   0.000000
   28        2.744124      2.742638   0.000000   0.000000
   29        2.962371      2.966983   0.000000   0.000000
   30        8.960758      8.955753   0.000000   0.000000
   31       10.481958     10.485599   0.000000   0.000000
   32       11.190384     11.169535   0.000000   0.000000
   33       11.761793     11.788277   0.000000   0.000000
   34       12.398406     12.393671   0.000000   0.000000
 
 -0.1250000E+00  0.1428571E+00  0.1227212E-14  0.1020408E-01
    1      -43.355848    -43.355182   1.000000   1.000000
    2      -27.746585    -27.764085   1.000000   1.000000
    3      -26.698122    -26.675166   1.000000   1.000000
    4      -26.622595    -26.608477   1.000000   1.000000
    5      -25.973063    -26.013214   1.000000   1.000000
    6      -13.459315    -13.461564   1.000000   1.000000
    7      -12.718222    -12.748846   1.000000   1.000000
    8      -12.636233    -12.627181   1.000000   1.000000
    9      -11.797757    -11.804688   1.000000   1.000000
   10       -8.589380     -8.591300   1.000000   1.000000
   11       -8.309679     -8.320160   1.000000   1.000000
   12       -7.685393     -7.677160   1.000000   1.000000
   13       -7.419786     -7.423072   1.000000   1.000000
   14       -7.067530     -7.087426   1.000000   1.000000
   15       -6.359922     -6.382993   1.000000   1.000000
   16       -6.140220     -6.117647   1.000000   1.000000
   17       -5.810534     -5.826423   1.000000   1.000000
   18       -4.857001     -4.885920   1.000000   1.000000
   19       -4.799544     -4.800987   1.000000   1.000000
   20       -4.641418     -4.646132   1.000000   1.000000
   21       -4.536311     -4.539436   1.000000   1.000000
   22       -0.456576     -0.456449   1.000000   1.000000
   23       -0.254420     -0.269585   1.000000   1.000000
   24        0.302315      0.308629   1.000000   1.000000
   25        0.941259      0.919337   1.000000   1.000000
   26        2.485563      2.446299   0.000000   0.000000
   27        2.651186      2.634784   0.000000   0.000000
   28        2.754039      2.752887   0.000000   0.000000
   29        2.984841      2.989617   0.000000   0.000000
   30        9.473288      9.467494   0.000000   0.000000
   31       10.631663     10.628003   0.000000   0.000000
   32       10.911398     10.907021   0.000000   0.000000
   33       11.525295     11.527139   0.000000   0.000000
   34       12.689031     12.871321   0.000000   0.000000
 
 -0.2439089E-17  0.2857143E+00  0.1582253E-14  0.1020408E-01
    1      -43.355877    -43.355211   1.000000   1.000000
    2      -27.730445    -27.748714   1.000000   1.000000
    3      -26.733363    -26.707165   1.000000   1.000000
    4      -26.592479    -26.579883   1.000000   1.000000
    5      -25.990822    -26.031919   1.000000   1.000000
    6      -13.313951    -13.313546   1.000000   1.000000
    7      -12.799463    -12.827362   1.000000   1.000000
    8      -12.694983    -12.692943   1.000000   1.000000
    9      -11.825912    -11.831080   1.000000   1.000000
   10       -8.497303     -8.501031   1.000000   1.000000
   11       -8.200305     -8.208248   1.000000   1.000000
   12       -7.639763     -7.637226   1.000000   1.000000
   13       -7.473879     -7.475981   1.000000   1.000000
   14       -7.072098     -7.085392   1.000000   1.000000
   15       -6.310001     -6.322424   1.000000   1.000000
   16       -6.039712     -6.022067   1.000000   1.000000
   17       -5.854516     -5.876520   1.000000   1.000000
   18       -5.147679     -5.172812   1.000000   1.000000
   19       -4.887793     -4.893370   1.000000   1.000000
   20       -4.736228     -4.743941   1.000000   1.000000
   21       -4.506019     -4.508253   1.000000   1.000000
   22       -0.395957     -0.401406   1.000000   1.000000
   23       -0.035513     -0.042546   1.000000   1.000000
   24        0.397774      0.399672   1.000000   1.000000
   25        0.960202      0.948517   1.000000   1.000000
   26        2.137152      2.096364  -0.004015   0.049122
   27        2.619623      2.599906   0.000000   0.000000
   28        2.720907      2.717467   0.000000   0.000000
   29        2.949465      2.952724   0.000000   0.000000
   30        9.812075      9.802744   0.000000   0.000000
   31       10.350564     10.363161   0.000000   0.000000
   32       10.644174     10.623528   0.000000   0.000000
   33       12.335990     12.343554   0.000000   0.000000
   34       12.718311     12.821336   0.000000   0.000000
 
  0.1250000E+00  0.2857143E+00 -0.3176978E-14  0.1020408E-01
    1      -43.355870    -43.355204   1.000000   1.000000
    2      -27.731160    -27.749393   1.000000   1.000000
    3      -26.731994    -26.706119   1.000000   1.000000
    4      -26.592749    -26.579886   1.000000   1.000000
    5      -25.991933    -26.033012   1.000000   1.000000
    6      -13.303584    -13.305054   1.000000   1.000000
    7      -12.845638    -12.847278   1.000000   1.000000
    8      -12.659244    -12.683105   1.000000   1.000000
    9      -11.819286    -11.823061   1.000000   1.000000
   10       -8.509083     -8.512867   1.000000   1.000000
   11       -8.176436     -8.183965   1.000000   1.000000
   12       -7.704344     -7.704818   1.000000   1.000000
   13       -7.515615     -7.514111   1.000000   1.000000
   14       -7.062189     -7.077085   1.000000   1.000000
   15       -6.184674     -6.192130   1.000000   1.000000
   16       -6.003738     -5.987206   1.000000   1.000000
   17       -5.922065     -5.947392   1.000000   1.000000
   18       -5.174288     -5.199436   1.000000   1.000000
   19       -4.880075     -4.884876   1.000000   1.000000
   20       -4.729019     -4.736877   1.000000   1.000000
   21       -4.512311     -4.515069   1.000000   1.000000