       N       E                     dE             d eps       ncg     rms          rms(c)
DAV:   1     0.366728653092E+03    0.36673E+03   -0.28698E+04 15776   0.148E+03
DAV:   2    -0.188019063079E+02   -0.38553E+03   -0.37226E+03 19908   0.362E+02
DAV:   3    -0.426756916585E+02   -0.23874E+02   -0.23661E+02 23134   0.907E+01
DAV:   4    -0.435688208628E+02   -0.89313E+00   -0.88859E+00 26296   0.125E+01
DAV:   5    -0.436318389970E+02   -0.63018E-01   -0.63014E-01 21166   0.170E+00    0.152E+01
RMM:   6    -0.439543935657E+02   -0.32255E+00   -0.39817E+00 18078   0.106E+01    0.127E+01
RMM:   7    -0.430397950501E+02    0.91460E+00   -0.14712E+00 17625   0.673E+00    0.624E+00
RMM:   8    -0.429449184049E+02    0.94877E-01   -0.73631E-01 18104   0.487E+00    0.597E+00
RMM:   9    -0.426830670369E+02    0.26185E+00   -0.29564E-01 18366   0.310E+00    0.263E+00
RMM:  10    -0.426796242546E+02    0.34428E-02   -0.93340E-02 18895   0.182E+00    0.777E-01
RMM:  11    -0.426832380568E+02   -0.36138E-02   -0.20385E-02 21094   0.886E-01    0.335E-01
RMM:  12    -0.426847386110E+02   -0.15006E-02   -0.53134E-03 23647   0.430E-01    0.107E-01
RMM:  13    -0.426849283381E+02   -0.18973E-03   -0.15178E-03 25356   0.216E-01    0.499E-02
RMM:  14    -0.426850443076E+02   -0.11597E-03   -0.68879E-04 25773   0.140E-01    0.206E-02
RMM:  15    -0.426850830318E+02   -0.38724E-04   -0.28680E-04 25457   0.795E-02    0.140E-02
RMM:  16    -0.426850980429E+02   -0.15011E-04   -0.12624E-04 21865   0.540E-02    0.741E-03
RMM:  17    -0.426851001395E+02   -0.20966E-05   -0.42001E-05 16874   0.367E-02
   1 F= -.42685100E+02 E0= -.42685100E+02  d E =0.000000E+00  mag=    -0.0359
