Automatically generated mesh
      30
Reciprocal lattice
    0.00000000000000    0.00000000000000    0.00000000000000             1
    0.12500000000000   -0.00000000000000    0.00000000000000             6
    0.25000000000000   -0.00000000000000    0.00000000000000             6
    0.37500000000000   -0.00000000000000    0.00000000000000             6
    0.50000000000000   -0.00000000000000    0.00000000000000             3
    0.12500000000000    0.12500000000000    0.00000000000000             6
    0.25000000000000    0.12500000000000    0.00000000000000            12
    0.37500000000000    0.12500000000000    0.00000000000000            12
    0.25000000000000    0.25000000000000    0.00000000000000             6
    0.37500000000000    0.25000000000000    0.00000000000000             6
    0.00000000000000    0.00000000000000    0.25000000000000             2
    0.12500000000000   -0.00000000000000    0.25000000000000            12
    0.25000000000000   -0.00000000000000    0.25000000000000            12
    0.37500000000000   -0.00000000000000    0.25000000000000            12
    0.50000000000000   -0.00000000000000    0.25000000000000             6
    0.12500000000000    0.12500000000000    0.25000000000000            12
    0.25000000000000    0.12500000000000    0.25000000000000            24
    0.37500000000000    0.12500000000000    0.25000000000000            24
    0.25000000000000    0.25000000000000    0.25000000000000            12
    0.37500000000000    0.25000000000000    0.25000000000000            12
    0.00000000000000    0.00000000000000    0.50000000000000             1
    0.12500000000000   -0.00000000000000    0.50000000000000             6
    0.25000000000000   -0.00000000000000    0.50000000000000             6
    0.37500000000000   -0.00000000000000    0.50000000000000             6
    0.50000000000000   -0.00000000000000    0.50000000000000             3
    0.12500000000000    0.12500000000000    0.50000000000000             6
    0.25000000000000    0.12500000000000    0.50000000000000            12
    0.37500000000000    0.12500000000000    0.50000000000000            12
    0.25000000000000    0.25000000000000    0.50000000000000             6
    0.37500000000000    0.25000000000000    0.50000000000000             6
Tetrahedra
       272    0.00065104166667
         8         1         2         2        12
         8         2         2         6        12
         4         2         6        12        16
         4         1         2        11        12
         8         2        11        12        12
         8         2        12        12        16
         8         2         3         6        13
         8         3         6         7        13
         4         6         7        13        17
         4         2         6        12        13
         8         6        12        13        16
         8         6        13        16        17
         8         3         4         7        14
         8         4         7         8        14
         4         7         8        14        18
         4         3         7        13        14
         8         7        13        14        17
         8         7        14        17        18
         8         4         5         8        15
         4         5         8         8        15
         4         8         8        15        18
         4         4         8        14        15
         8         8        14        15        18
         8         8        15        18        18
         8         4         5         8        14
         4         7         8        14        17
         4         5         8        14        15
         8         8        14        17        18
         8         3         4         7        13
         4         6         7        13        16
         4         4         7        13        14
         8         7        13        16        17
         8         2         3         6        12
         4         2         6        12        12
         4         3         6        12        13
         4         6        12        12        16
         4         1         2         2        11
         4         2         2        11        12
         8         2         3         6        16
         8         3         6         7        16
         4         3         7        16        17
         4         2         3        12        16
         8         3        12        13        16
         8         3        13        16        17
         8         6         7         7        17
         8         7         7         9        17
         4         7         9        17        19
         4         6         7        16        17
         8         7        16        17        17
         8         7        17        17        19
         8         7         8         9        18
         8         8         9        10        18
         4         9        10        18        20
         4         7         9        17        18
         8         9        17        18        19
         8         9        18        19        20
         8         8         8        10        18
         4         9        10        18        19
         4         8        10        18        18
         4        10        18        18        20
         8        10        18        19        20
         8         7         8         9        17
         4         7         9        17        17
         4         8         9        17        18
         4         9        17        17        19
         4         6         7         7        16
         4         3         7        13        16
         4         7         7        16        17
         4         3         6        12        16
         8         3         4         7        17
         8         4         7         8        17
         4         4         8        17        18
         4         3         4        13        17
         8         4        13        14        17
         8         4        14        17        18
         8         7         8         9        19
         8         8         9        10        19
         4         8        10        19        20
         4         7         8        17        19
         8         8        17        18        19
         8         8        18        19        20
         8         9        10        10        20
         4        10        10        10        20
         4        10        10        20        20
         4         9        10        19        20
         8        10        19        20        20
         4        10        20        20        20
         4         9        10        10        19
         4         8        10        18        19
         4        10        10        19        20
         4         4         8        14        17
         4         8         9        17        19
         4         4         7        13        17
         8         4         5         8        18
         8         5         8         8        18
         4         5         8        18        18
         4         4         5        14        18
         8         5        14        15        18
         4         5        15        18        18
         4         8         8        10        20
         8         8         9        10        20
         4         8         9        19        20
         4         8         8        18        20
         8         8        18        18        20
         4         8         9        18        20
         4         9        10        20        20
         4         9        19        20        20
         4         5         8        15        18
         4         8        10        18        20
         4         5         8        14        18
         8         4         7         8        18
         4         4         7        17        18
         4         4         5        15        18
         8         4        14        15        18
         4         7         7         9        19
         4         7         7        17        19
         4         7         8        18        19
         8         7        17        18        19
         4         4         7        14        18
         4         7         9        18        19
         4         4         8        15        18
         8         3         6         7        17
         4         3         6        16        17
         4         3         4        14        17
         8         3        13        14        17
         4         3         6        13        17
         4         6         7        17        17
         4         6        16        17        17
         4         3         7        14        17
         4         2         2         6        16
         4         2         2        12        16
         4         2         3        13        16
         8         2        12        13        16
         4         2         6        13        16
         4         1         2        12        12
         4         1        11        12        12
         8        11        12        12        22
         8        12        12        16        22
         4        12        16        22        26
         4        11        12        21        22
         8        12        21        22        22
         8        12        22        22        26
         8        12        13        16        23
         8        13        16        17        23
         4        16        17        23        27
         4        12        16        22        23
         8        16        22        23        26
         8        16        23        26        27
         8        13        14        17        24
         8        14        17        18        24
         4        17        18        24        28
         4        13        17        23        24
         8        17        23        24        27
         8        17        24        27        28
         8        14        15        18        25
         4        15        18        18        25
         4        18        18        25        28
         4        14        18        24        25
         8        18        24        25        28
         8        18        25        28        28
         8        14        15        18        24
         4        17        18        24        27
         4        15        18        24        25
         8        18        24        27        28
         8        13        14        17        23
         4        16        17        23        26
         4        14        17        23        24
         8        17        23        26        27
         8        12        13        16        22
         4        12        16        22        22
         4        13        16        22        23
         4        16        22        22        26
         4        11        12        12        21
         4        12        12        21        22
         8        12        13        16        26
         8        13        16        17        26
         4        13        17        26        27
         4        12        13        22        26
         8        13        22        23        26
         8        13        23        26        27
         8        16        17        17        27
         8        17        17        19        27
         4        17        19        27        29
         4        16        17        26        27
         8        17        26        27        27
         8        17        27        27        29
         8        17        18        19        28
         8        18        19        20        28
         4        19        20        28        30
         4        17        19        27        28
         8        19        27        28        29
         8        19        28        29        30
         8        18        18        20        28
         4        19        20        28        29
         4        18        20        28        28
         4        20        28        28        30
         8        20        28        29        30
         8        17        18        19        27
         4        17        19        27        27
         4        18        19        27        28
         4        19        27        27        29
         4        16        17        17        26
         4        13        17        23        26
         4        17        17        26        27
         4        13        16        22        26
         8        13        14        17        27
         8        14        17        18        27
         4        14        18        27        28
         4        13        14        23        27
         8        14        23        24        27
         8        14        24        27        28
         8        17        18        19        29
         8        18        19        20        29
         4        18        20        29        30
         4        17        18        27        29
         8        18        27        28        29
         8        18        28        29        30
         8        19        20        20        30
         4        20        20        20        30
         4        20        20        30        30
         4        19        20        29        30
         8        20        29        30        30
         4        20        30        30        30
         4        19        20        20        29
         4        18        20        28        29
         4        20        20        29        30
         4        14        18        24        27
         4        18        19        27        29
         4        14        17        23        27
         8        14        15        18        28
         8        15        18        18        28
         4        15        18        28        28
         4        14        15        24        28
         8        15        24        25        28
         4        15        25        28        28
         4        18        18        20        30
         8        18        19        20        30
         4        18        19        29        30
         4        18        18        28        30
         8        18        28        28        30
         4        18        19        28        30
         4        19        20        30        30
         4        19        29        30        30
         4        15        18        25        28
         4        18        20        28        30
         4        15        18        24        28
         8        14        17        18        28
         4        14        17        27        28
         4        14        15        25        28
         8        14        24        25        28
         4        17        17        19        29
         4        17        17        27        29
         4        17        18        28        29
         8        17        27        28        29
         4        14        17        24        28
         4        17        19        28        29
         4        14        18        25        28
         8        13        16        17        27
         4        13        16        26        27
         4        13        14        24        27
         8        13        23        24        27
         4        13        16        23        27
         4        16        17        27        27
         4        16        26        27        27
         4        13        17        24        27
         4        12        12        16        26
         4        12        12        22        26
         4        12        13        23        26
         8        12        22        23        26
         4        12        16        23        26
         4        11        12        22        22
         4        11        21        22        22
