 running on   12 total cores
 distrk:  each k-point on   12 cores,    1 groups
 distr:  one band on    6 cores,    2 groups
 using from now: INCAR     
 vasp.6.1.2 22Jul20 (build Mar 20 2021 11:25:07) complex                        
  
 POSCAR found type information on POSCAR LiP O 
 POSCAR found :  3 types and      26 ions
 scaLAPACK will be used
 LDA part: xc-table for Pade appr. of Perdew
 generate k-points for:    6    5    4
 POSCAR, INCAR and KPOINTS ok, starting setup
 FFT: planning ...
 WAVECAR not read
 entering main loop
       N       E                     dE             d eps       ncg     rms          rms(c)
DAV:   1     0.111696643624E+04    0.11170E+04   -0.61954E+04 21328   0.152E+03
DAV:   2    -0.604931274115E+02   -0.11775E+04   -0.11058E+04 25472   0.394E+02
DAV:   3    -0.172840290061E+03   -0.11235E+03   -0.11160E+03 27456   0.125E+02
DAV:   4    -0.182471034832E+03   -0.96307E+01   -0.95860E+01 39952   0.296E+01
DAV:   5    -0.184017571656E+03   -0.15465E+01   -0.15460E+01 30072   0.683E+00    0.508E+01
DAV:   6    -0.163777519112E+03    0.20240E+02   -0.89686E+01 26702   0.323E+01    0.269E+01
DAV:   7    -0.165829218199E+03   -0.20517E+01   -0.76097E+00 28146   0.934E+00    0.870E+00
DAV:   8    -0.166103577772E+03   -0.27436E+00   -0.81105E-01 28824   0.360E+00    0.447E+00
DAV:   9    -0.166230681333E+03   -0.12710E+00   -0.14304E-01 28304   0.169E+00    0.199E+00
DAV:  10    -0.166262392622E+03   -0.31711E-01   -0.61646E-02 25928   0.122E+00    0.530E-01
DAV:  11    -0.166272990951E+03   -0.10598E-01   -0.12501E-02 27080   0.480E-01    0.293E-01
DAV:  12    -0.166276045656E+03   -0.30547E-02   -0.23179E-03 27368   0.219E-01    0.158E-01
DAV:  13    -0.166277446210E+03   -0.14006E-02   -0.11011E-03 24720   0.128E-01    0.546E-02
DAV:  14    -0.166277656526E+03   -0.21032E-03   -0.15174E-04 27184   0.573E-02    0.250E-02
DAV:  15    -0.166277723004E+03   -0.66478E-04   -0.64439E-05 22624   0.348E-02    0.159E-02
DAV:  16    -0.166277733868E+03   -0.10864E-04   -0.80467E-06 18152   0.140E-02    0.869E-03
DAV:  17    -0.166277737911E+03   -0.40427E-05   -0.64539E-06 15272   0.103E-02
   1 F= -.16627774E+03 E0= -.16627774E+03  d E =0.000000E+00  mag=    -0.0006
