    6    6    1    2
  0.1257365E+02  0.4736151E-09  0.4832806E-09  0.4832806E-09  0.5000000E-15
  1.000000000000000E-004
  CAR 
 unknown system                          
     32    324     22
 
  0.0000000E+00  0.0000000E+00  0.0000000E+00  0.1562500E-02
    1      -19.740754    -19.740734   1.000000   1.000000
    2      -17.462501    -17.462441   1.000000   1.000000
    3      -13.788641    -13.788466   1.000000   1.000000
    4      -12.314093    -12.313870   1.000000   1.000000
    5      -11.251063    -11.251058   1.000000   1.000000
    6       -6.592771     -6.592751   1.000000   1.000000
    7       -5.410811     -5.410776   1.000000   1.000000
    8       -5.315066     -5.315043   1.000000   1.000000
    9       -2.333636     -2.333752   1.000000   1.000000
   10       -1.574713     -1.574771   1.000000   1.000000
   11       -0.558074     -0.558111   1.000000   1.000000
   12       -0.393703     -0.393673   1.000000   1.000000
   13        0.586249      0.586228   1.000000   1.000000
   14        0.810706      0.810847   1.000000   1.000000
   15        1.541690      1.541721   1.000000   1.000000
   16        2.196200      2.196251   1.000000   1.000000
   17        7.886251      7.885980   0.000000   0.000001
   18        8.026905      8.026704   0.000000   0.000000
   19        9.659564      9.659442   0.000000   0.000000
   20       10.941522     10.941172   0.000000   0.000000
   21       11.267103     11.266888   0.000000   0.000000
   22       12.122881     12.122614   0.000000   0.000000
 
  0.1250000E+00 -0.9460693E-17  0.9460693E-17  0.3125000E-02
    1      -19.711050    -19.711030   1.000000   1.000000
    2      -17.467519    -17.467459   1.000000   1.000000
    3      -13.901668    -13.901503   1.000000   1.000000
    4      -12.612282    -12.612097   1.000000   1.000000
    5      -10.787904    -10.787856   1.000000   1.000000
    6       -6.558664     -6.558642   1.000000   1.000000
    7       -5.445544     -5.445500   1.000000   1.000000
    8       -5.269615     -5.269591   1.000000   1.000000
    9       -2.305097     -2.305212   1.000000   1.000000
   10       -1.601799     -1.601854   1.000000   1.000000
   11       -0.613390     -0.613397   1.000000   1.000000
   12       -0.495273     -0.495292   1.000000   1.000000
   13        0.631135      0.631127   1.000000   1.000000
   14        0.721823      0.721941   1.000000   1.000000
   15        1.495771      1.495802   1.000000   1.000000
   16        2.199834      2.199888   1.000000   1.000000
   17        8.014160      8.013901   0.000000  -0.000000
   18        8.263158      8.262989   0.000000   0.000000
   19        9.385275      9.385115   0.000000   0.000000
   20       10.953365     10.953084   0.000000   0.000000
   21       11.315051     11.314743   0.000000   0.000000
   22       12.053826     12.053613   0.000000   0.000000
 
  0.2500000E+00 -0.1892139E-16  0.1892139E-16  0.3125000E-02
    1      -19.636357    -19.636336   1.000000   1.000000
    2      -17.480362    -17.480304   1.000000   1.000000
    3      -14.203235    -14.203091   1.000000   1.000000
    4      -12.926826    -12.926648   1.000000   1.000000
    5      -10.030659    -10.030593   1.000000   1.000000
    6       -6.473139     -6.473111   1.000000   1.000000
    7       -5.542771     -5.542701   1.000000   1.000000
    8       -5.146042     -5.146011   1.000000   1.000000
    9       -2.226074     -2.226183   1.000000   1.000000
   10       -1.721394     -1.721444   1.000000   1.000000
   11       -1.000470     -1.000497   1.000000   1.000000
   12       -0.432538     -0.432578   1.000000   1.000000
   13        0.575620      0.575704   1.000000   1.000000
   14        0.652244      0.652249   1.000000   1.000000
   15        1.420655      1.420681   1.000000   1.000000
   16        2.175089      2.175151   1.000000   1.000000
   17        8.283652      8.283424   0.000000   0.000000
   18        8.643372      8.643321   0.000000   0.000000
   19        9.265154      9.264881   0.000000   0.000000
   20       10.732173     10.731939   0.000000   0.000000
   21       11.411940     11.411597   0.000000   0.000000
   22       12.061542     12.061011   0.000000   0.000000
 
  0.3750000E+00 -0.5447859E-16  0.1099897E-15  0.3125000E-02
    1      -19.556612    -19.556591   1.000000   1.000000
    2      -17.494249    -17.494192   1.000000   1.000000
    3      -14.511085    -14.510956   1.000000   1.000000
    4      -13.073698    -13.073519   1.000000   1.000000
    5       -9.404825     -9.404761   1.000000   1.000000
    6       -6.386770     -6.386733   1.000000   1.000000
    7       -5.631979     -5.631869   1.000000   1.000000
    8       -5.028863     -5.028825   1.000000   1.000000
    9       -2.138298     -2.138394   1.000000   1.000000
   10       -1.988541     -1.988614   1.000000   1.000000
   11       -1.268496     -1.268543   1.000000   1.000000
   12       -0.273800     -0.273843   1.000000   1.000000
   13        0.380503      0.380520   1.000000   1.000000
   14        0.553154      0.553196   1.000000   1.000000
   15        1.487756      1.487781   1.000000   1.000000
   16        2.072037      2.072109   1.000000   1.000000
   17        8.352305      8.352122   0.000000   0.000000
   18        8.853914      8.853836   0.000000   0.000000
   19        9.847099      9.846920   0.000000   0.000000
   20       10.460865     10.460563   0.000000   0.000000
   21       11.350250     11.349928   0.000000   0.000000
   22       12.305419     12.300737   0.000000   0.000000
 
  0.5000000E+00 -0.3784277E-16  0.3784277E-16  0.1562500E-02
    1      -19.521833    -19.521811   1.000000   1.000000
    2      -17.500347    -17.500290   1.000000   1.000000
    3      -14.635615    -14.635490   1.000000   1.000000
    4      -13.115239    -13.115059   1.000000   1.000000
    5       -9.155959     -9.155901   1.000000   1.000000
    6       -6.352972     -6.352930   1.000000   1.000000
    7       -5.664180     -5.664048   1.000000   1.000000
    8       -4.983445     -4.983406   1.000000   1.000000
    9       -2.210283     -2.210370   1.000000   1.000000
   10       -2.034675     -2.034772   1.000000   1.000000
   11       -1.336668     -1.336718   1.000000   1.000000
   12       -0.087785     -0.087839   1.000000   1.000000
   13        0.136404      0.136414   1.000000   1.000000
   14        0.528569      0.528611   1.000000   1.000000
   15        1.578799      1.578819   1.000000   1.000000
   16        1.979228      1.979312   1.000000   1.000000
   17        8.371932      8.371747   0.000000   0.000000
   18        8.971543      8.971477   0.000000   0.000000
   19        9.954820      9.954695   0.000000   0.000000
   20       10.782196     10.781867   0.000000   0.000000
   21       11.096260     11.095906   0.000000   0.000000
   22       12.339931     12.341087   0.000000   0.000000
 
 -0.9704142E-17  0.1250000E+00  0.4391068E-16  0.3125000E-02
    1      -19.672136    -19.672116   1.000000   1.000000
    2      -17.564386    -17.564329   1.000000   1.000000
    3      -13.914823    -13.914657   1.000000   1.000000
    4      -12.330877    -12.330657   1.000000   1.000000
    5      -10.999813    -10.999798   1.000000   1.000000
    6       -6.609297     -6.609274   1.000000   1.000000
    7       -5.462813     -5.462787   1.000000   1.000000
    8       -5.198787     -5.198744   1.000000   1.000000
    9       -2.363563     -2.363677   1.000000   1.000000
   10       -1.580234     -1.580293   1.000000   1.000000
   11       -0.649048     -0.649086   1.000000   1.000000
   12       -0.428301     -0.428284   1.000000   1.000000
   13        0.630751      0.630778   1.000000   1.000000
   14        0.727118      0.727203   1.000000   1.000000
   15        1.447495      1.447518   1.000000   1.000000
   16        2.193446      2.193499   1.000000   1.000000
   17        8.066391      8.066120   0.000000  -0.000000
   18        8.308235      8.308073   0.000000   0.000000
   19        9.690185      9.690062   0.000000   0.000000
   20       10.744151     10.743782   0.000000   0.000000
   21       11.215058     11.214869   0.000000   0.000000
   22       12.311270     12.311213   0.000000   0.000000
 
  0.1250000E+00  0.1250000E+00  0.3059299E-16  0.3125000E-02
    1      -19.621466    -19.621445   1.000000   1.000000
    2      -17.576944    -17.576888   1.000000   1.000000
    3      -14.156060    -14.155909   1.000000   1.000000
    4      -12.542633    -12.542434   1.000000   1.000000
    5      -10.451867    -10.451820   1.000000   1.000000
    6       -6.567422     -6.567395   1.000000   1.000000
    7       -5.476036     -5.475992   1.000000   1.000000
    8       -5.169248     -5.169206   1.000000   1.000000
    9       -2.300347     -2.300458   1.000000   1.000000
   10       -1.674552     -1.674610   1.000000   1.000000
   11       -0.771765     -0.771787   1.000000   1.000000
   12       -0.507272     -0.507297   1.000000   1.000000
   13        0.536811      0.536899   1.000000   1.000000
   14        0.718292      0.718296   1.000000   1.000000
   15        1.355942      1.355964   1.000000   1.000000
   16        2.227643      2.227704   1.000000   1.000000
   17        8.296039      8.295784   0.000000  -0.000000
   18        8.565902      8.565777   0.000000   0.000000
   19        9.499069      9.498908   0.000000   0.000000
   20       10.809009     10.808678   0.000000   0.000000
   21       11.258277     11.258013   0.000000   0.000000
   22       12.100979     12.100691   0.000000   0.000000
 
  0.2500000E+00  0.1250000E+00  0.3507649E-16  0.3125000E-02
    1      -19.539540    -19.539518   1.000000   1.000000
    2      -17.598436    -17.598381   1.000000   1.000000
    3      -14.426564    -14.426427   1.000000   1.000000
    4      -12.832026    -12.831839   1.000000   1.000000
    5       -9.713037     -9.712975   1.000000   1.000000
    6       -6.543881     -6.543844   1.000000   1.000000
    7       -5.522468     -5.522393   1.000000   1.000000
    8       -5.055516     -5.055472   1.000000   1.000000
    9       -2.217256     -2.217359   1.000000   1.000000
   10       -1.867393     -1.867454   1.000000   1.000000
   11       -1.114862     -1.114904   1.000000   1.000000
   12       -0.422475     -0.422516   1.000000   1.000000
   13        0.475251      0.475311   1.000000   1.000000
   14        0.635710      0.635722   1.000000   1.000000
   15        1.300438      1.300457   1.000000   1.000000
   16        2.219298      2.219369   1.000000   1.000000
   17        8.526479      8.526280   0.000000   0.000000
   18        8.831653      8.831572   0.000000   0.000000
   19        9.543340      9.543120   0.000000   0.000000
   20       10.686638     10.686343   0.000000   0.000000
   21       11.321037     11.320812   0.000000   0.000000
   22       12.055382     12.055150   0.000000   0.000000
 
  0.3750000E+00  0.1250000E+00 -0.3043422E-16  0.3125000E-02
    1      -19.473070    -19.473048   1.000000   1.000000
    2      -17.616981    -17.616927   1.000000   1.000000
    3      -14.589003    -14.588874   1.000000   1.000000
    4      -13.037468    -13.037286   1.000000   1.000000
    5       -9.164026     -9.163966   1.000000   1.000000
    6       -6.577710     -6.577656   1.000000   1.000000
    7       -5.546828     -5.546727   1.000000   1.000000
    8       -4.943043     -4.942995   1.000000   1.000000
    9       -2.227825     -2.227912   1.000000   1.000000
   10       -2.033361     -2.033450   1.000000   1.000000
   11       -1.326572     -1.326627   1.000000   1.000000
   12       -0.205152     -0.205197   1.000000   1.000000
   13        0.317908      0.317918   1.000000   1.000000
   14        0.515737      0.515777   1.000000   1.000000
   15        1.420618      1.420643   1.000000   1.000000
   16        2.104808      2.104885   1.000000   1.000000
   17        8.518405      8.518226   0.000000   0.000000
   18        8.971148      8.971081   0.000000   0.000000
   19        9.810418      9.810240   0.000000   0.000000
   20       10.688347     10.688019   0.000000   0.000000
   21       11.358334     11.358114   0.000000   0.000000
   22       12.235389     12.234098   0.000000   0.000000
 
  0.5000000E+00  0.1250000E+00  0.1894576E-15  0.3125000E-02
    1      -19.466544    -19.466522   1.000000   1.000000
    2      -17.619717    -17.619663   1.000000   1.000000
    3      -14.539373    -14.539244   1.000000   1.000000
    4      -13.160748    -13.160570   1.000000   1.000000
    5       -9.057239     -9.057179   1.000000   1.000000
    6       -6.618351     -6.618294   1.000000   1.000000
    7       -5.541432     -5.541329   1.000000   1.000000
    8       -4.900205     -4.900155   1.000000   1.000000
    9       -2.213857     -2.213941   1.000000   1.000000
   10       -2.088463     -2.088556   1.000000   1.000000
   11       -1.366620     -1.366674   1.000000   1.000000
   12       -0.146617     -0.146664   1.000000   1.000000
   13        0.273275      0.273284   1.000000   1.000000
   14        0.549201      0.549242   1.000000   1.000000
   15        1.586089      1.586113   1.000000   1.000000
   16        1.953460      1.953539   1.000000   1.000000
   17        8.349512      8.349338   0.000000   0.000000
   18        8.958753      8.958669   0.000000   0.000000
   19        9.857787      9.857608   0.000000   0.000000
   20       11.116623     11.116363   0.000000   0.000000
   21       11.173820     11.173489   0.000000   0.000000
   22       12.251870     12.249705   0.000000   0.000000
 
 -0.3750000E+00  0.1250000E+00 -0.1388604E-16  0.3125000E-02
    1      -19.524505    -19.524483   1.000000   1.000000
    2      -17.604288    -17.604233   1.000000   1.000000
    3      -14.267868    -14.267730   1.000000   1.000000
    4      -13.201059    -13.200886   1.000000   1.000000
    5       -9.443061     -9.442993   1.000000   1.000000
    6       -6.618897     -6.618857   1.000000   1.000000
    7       -5.520828     -5.520747   1.000000   1.000000
    8       -4.949484     -4.949434   1.000000   1.000000
    9       -2.236829     -2.236932   1.000000   1.000000
   10       -1.888674     -1.888731   1.000000   1.000000
   11       -1.267848     -1.267896   1.000000   1.000000
   12       -0.360297     -0.360340   1.000000   1.000000
   13        0.486230      0.486266   1.000000   1.000000
   14        0.672187      0.672221   1.000000   1.000000
   15        1.565679      1.565714   1.000000   1.000000
   16        2.008058      2.008119   1.000000   1.000000
   17        8.204313      8.204137   0.000000   0.000000
   18        8.768481      8.768371   0.000000   0.000000
   19        9.776870      9.776648   0.000000   0.000000
   20       10.708919     10.708608   0.000000   0.000000
   21       11.522337     11.521922   0.000000   0.000000
   22       12.255848     12.253738   0.000000   0.000000
 
 -0.2500000E+00  0.1250000E+00  0.2333023E-16  0.3125000E-02
    1      -19.607329    -19.607308   1.000000   1.000000
    2      -17.582127    -17.582070   1.000000   1.000000
    3      -13.922577    -13.922417   1.000000   1.000000
    4      -13.082194    -13.082030   1.000000   1.000000
    5      -10.103780    -10.103712   1.000000   1.000000
    6       -6.623554     -6.623527   1.000000   1.000000
    7       -5.483644     -5.483592   1.000000   1.000000
    8       -5.062843     -5.062798   1.000000   1.000000
    9       -2.339447     -2.339558   1.000000   1.000000
   10       -1.609384     -1.609431   1.000000   1.000000
   11       -0.968207     -0.968227   1.000000   1.000000
   12       -0.514893     -0.514937   1.000000   1.000000
   13        0.589350      0.589415   1.000000   1.000000
   14        0.772817      0.772849   1.000000   1.000000
   15        1.520292      1.520329   1.000000   1.000000
   16        2.121566      2.121618   1.000000   1.000000
   17        8.184329      8.184092   0.000000   0.000000
   18        8.561551      8.561490   0.000000   0.000000
   19        9.333355      9.333085   0.000000   0.000000
   20       10.832900     10.832667   0.000000   0.000000
   21       11.399016     11.398660   0.000000   0.000000
   22       12.165733     12.165382   0.000000   0.000000
 
 -0.1250000E+00  0.1250000E+00  0.4038000E-16  0.3125000E-02
    1      -19.666499    -19.666479   1.000000   1.000000
    2      -17.566402    -17.566346   1.000000   1.000000
    3      -13.802601    -13.802428   1.000000   1.000000
    4      -12.660858    -12.660678   1.000000   1.000000
    5      -10.768156    -10.768110   1.000000   1.000000
    6       -6.629485     -6.629462   1.000000   1.000000
    7       -5.462076     -5.462045   1.000000   1.000000
    8       -5.160234     -5.160192   1.000000   1.000000
    9       -2.380593     -2.380708   1.000000   1.000000
   10       -1.548313     -1.548367   1.000000   1.000000
   11       -0.627494     -0.627518   1.000000   1.000000
   12       -0.552228     -0.552234   1.000000   1.000000
   13        0.658169      0.658187   1.000000   1.000000
   14        0.756837      0.756934   1.000000   1.000000
   15        1.501054      1.501082   1.000000   1.000000
   16        2.168384      2.168433   1.000000   1.000000
   17        8.053295      8.053029   0.000000   0.000000
   18        8.363991      8.363852   0.000000   0.000000
   19        9.442235      9.442058   0.000000   0.000000
   20       10.915132     10.914802   0.000000   0.000000
   21       11.149803     11.149567   0.000000   0.000000
   22       12.303663     12.302875   0.000000   0.000000
 
 -0.1940828E-16  0.2500000E+00  0.8782136E-16  0.3125000E-02
    1      -19.473215    -19.473192   1.000000   1.000000
    2      -17.844783    -17.844734   1.000000   1.000000
    3      -14.150244    -14.150089   1.000000   1.000000
    4      -12.371773    -12.371557   1.000000   1.000000
    5      -10.435224    -10.435195   1.000000   1.000000
    6       -6.677800     -6.677766   1.000000   1.000000
    7       -5.446512     -5.446480   1.000000   1.000000
    8       -5.045183     -5.045122   1.000000   1.000000
    9       -2.430603     -2.430712   1.000000   1.000000
   10       -1.615869     -1.615926   1.000000   1.000000
   11       -0.832661     -0.832719   1.000000   1.000000
   12       -0.619406     -0.619415   1.000000   1.000000
   13        0.455061      0.455140   1.000000   1.000000
   14        0.849363      0.849371   1.000000   1.000000
   15        1.328147      1.328173   1.000000   1.000000
   16        2.175565      2.175620   1.000000   1.000000
   17        8.489774      8.489519   0.000000   0.000000
   18        8.846805      8.846708   0.000000   0.000000
   19        9.877315      9.877202   0.000000   0.000000
   20       10.610450     10.610044   0.000000   0.000000
   21       11.121504     11.121297   0.000000   0.000000
   22       12.303884     12.304245   0.000000   0.000000
 
  0.1250000E+00  0.2500000E+00  0.9894111E-16  0.3125000E-02
    1      -19.408600    -19.408576   1.000000   1.000000
    2      -17.875516    -17.875468   1.000000   1.000000
    3      -14.352136    -14.351991   1.000000   1.000000
    4      -12.535753    -12.535551   1.000000   1.000000
    5       -9.929433     -9.929385   1.000000   1.000000
    6       -6.700566     -6.700526   1.000000   1.000000
    7       -5.429581     -5.429530   1.000000   1.000000
    8       -5.011002     -5.010942   1.000000   1.000000
    9       -2.370426     -2.370530   1.000000   1.000000
   10       -1.764815     -1.764875   1.000000   1.000000
   11       -0.953753     -0.953794   1.000000   1.000000
   12       -0.679780     -0.679833   1.000000   1.000000
   13        0.394247      0.394309   1.000000   1.000000
   14        0.838546      0.838556   1.000000   1.000000
   15        1.252551      1.252577   1.000000   1.000000
   16        2.227225      2.227291   1.000000   1.000000
   17        8.728646      8.728405   0.000000   0.000000
   18        8.874170      8.874079   0.000000   0.000000
   19        9.886535      9.886401   0.000000   0.000000
   20       10.817913     10.817579   0.000000   0.000000
   21       11.116986     11.116706   0.000000   0.000000
   22       12.035137     12.034876   0.000000   0.000000
 
  0.2500000E+00  0.2500000E+00  0.6118598E-16  0.3125000E-02
    1      -19.328990    -19.328965   1.000000   1.000000
    2      -17.913093    -17.913045   1.000000   1.000000
    3      -14.493235    -14.493098   1.000000   1.000000
    4      -12.823512    -12.823325   1.000000   1.000000
    5       -9.262597     -9.262537   1.000000   1.000000
    6       -6.854363     -6.854309   1.000000   1.000000
    7       -5.393769     -5.393695   1.000000   1.000000
    8       -4.909229     -4.909171   1.000000   1.000000
    9       -2.379305     -2.379403   1.000000   1.000000
   10       -1.915727     -1.915796   1.000000   1.000000
   11       -1.235810     -1.235866   1.000000   1.000000
   12       -0.477895     -0.477951   1.000000   1.000000
   13        0.456425      0.456472   1.000000   1.000000
   14        0.636893      0.636905   1.000000   1.000000
   15        1.233465      1.233486   1.000000   1.000000
   16        2.240950      2.241027   1.000000   1.000000
   17        8.737318      8.737166   0.000000   0.000000
   18        9.085529      9.085403   0.000000   0.000000
   19        9.782176      9.781990   0.000000   0.000000
   20       10.852631     10.852357   0.000000   0.000000
   21       11.192910     11.192670   0.000000   0.000000
   22       12.241993     12.245393   0.000000   0.000000
 
  0.3750000E+00  0.2500000E+00  0.1766918E-15  0.3125000E-02
    1      -19.283149    -19.283124   1.000000   1.000000
    2      -17.934286    -17.934238   1.000000   1.000000
    3      -14.493395    -14.493261   1.000000   1.000000
    4      -13.082374    -13.082195   1.000000   1.000000
    5       -8.777048     -8.776989   1.000000   1.000000
    6       -7.082200     -7.082132   1.000000   1.000000
    7       -5.341326     -5.341239   1.000000   1.000000
    8       -4.810462     -4.810402   1.000000   1.000000
    9       -2.392995     -2.393084   1.000000   1.000000
   10       -2.013809     -2.013883   1.000000   1.000000
   11       -1.420657     -1.420729   1.000000   1.000000
   12       -0.268684     -0.268735   1.000000   1.000000
   13        0.376768      0.376788   1.000000   1.000000
   14        0.593579      0.593605   1.000000   1.000000
   15        1.366896      1.366924   1.000000   1.000000
   16        2.129468      2.129548   1.000000   1.000000
   17        8.664185      8.664030   0.000000   0.000000
   18        9.031883      9.031797   0.000000   0.000000
   19        9.764271      9.764055   0.000000   0.000000
   20       10.843970     10.843727   0.000000   0.000000
   21       11.632104     11.632298   0.000000   0.000000
   22       12.382717     12.383113   0.000000   0.000000
 
  0.5000000E+00  0.2500000E+00  0.7015298E-16  0.3125000E-02
    1      -19.303856    -19.303832   1.000000   1.000000
    2      -17.922308    -17.922260   1.000000   1.000000
    3      -14.305546    -14.305408   1.000000   1.000000
    4      -13.278228    -13.278055   1.000000   1.000000
    5       -8.804528     -8.804465   1.000000   1.000000
    6       -7.133110     -7.133051   1.000000   1.000000
    7       -5.298638     -5.298552   1.000000   1.000000
    8       -4.774319     -4.774255   1.000000   1.000000
    9       -2.261959     -2.262033   1.000000   1.000000
   10       -2.125346     -2.125431   1.000000   1.000000
   11       -1.438773     -1.438846   1.000000   1.000000
   12       -0.381795     -0.381839   1.000000   1.000000
   13        0.432527      0.432543   1.000000   1.000000
   14        0.739438      0.739470   1.000000   1.000000
   15        1.587730      1.587767   1.000000   1.000000
   16        1.956845      1.956915   1.000000   1.000000
   17        8.362147      8.362005   0.000000   0.000000
   18        9.004645      9.004519   0.000000   0.000000
   19        9.775631      9.775415   0.000000   0.000000
   20       11.247633     11.247360   0.000000   0.000000
   21       11.699899     11.696955   0.000000   0.000000
   22       12.208519     12.210453   0.000000   0.000000
 
 -0.3750000E+00  0.2500000E+00  0.6109834E-16  0.3125000E-02
    1      -19.375613    -19.375589   1.000000   1.000000
    2      -17.886727    -17.886678   1.000000   1.000000
    3      -13.979880    -13.979728   1.000000   1.000000
    4      -13.371647    -13.371483   1.000000   1.000000
    5       -9.295699     -9.295631   1.000000   1.000000
    6       -6.995122     -6.995081   1.000000   1.000000
    7       -5.294982     -5.294912   1.000000   1.000000
    8       -4.825982     -4.825915   1.000000   1.000000
    9       -2.400502     -2.400604   1.000000   1.000000
   10       -1.774947     -1.774992   1.000000   1.000000
   11       -1.342667     -1.342732   1.000000   1.000000
   12       -0.569600     -0.569648   1.000000   1.000000
   13        0.473635      0.473669   1.000000   1.000000
   14        0.907138      0.907174   1.000000   1.000000
   15        1.603987      1.604034   1.000000   1.000000
   16        2.007033      2.007085   1.000000   1.000000
   17        8.244614      8.244470   0.000000   0.000000
   18        8.795603      8.795452   0.000000   0.000000
   19        9.888541      9.888317   0.000000   0.000000
   20       11.049864     11.048269   0.000000   0.000000
   21       11.606606     11.607593   0.000000   0.000000
   22       12.275375     12.241458   0.000000   0.000000
 
 -0.2500000E+00  0.2500000E+00 -0.2202237E-16  0.3125000E-02
    1      -19.451376    -19.451353   1.000000   1.000000
    2      -17.851702    -17.851652   1.000000   1.000000
    3      -13.838829    -13.838661   1.000000   1.000000
    4      -13.123172    -13.123010   1.000000   1.000000
    5       -9.909075     -9.909013   1.000000   1.000000
    6       -6.854191     -6.854160   1.000000   1.000000
    7       -5.338721     -5.338675   1.000000   1.000000
    8       -4.930272     -4.930205   1.000000   1.000000
    9       -2.492520     -2.492632   1.000000   1.000000
   10       -1.528737     -1.528783   1.000000   1.000000
   11       -1.055044     -1.055076   1.000000   1.000000
   12       -0.677300     -0.677350   1.000000   1.000000
   13        0.524702      0.524765   1.000000   1.000000
   14        0.904371      0.904398   1.000000   1.000000
   15        1.500244      1.500280   1.000000   1.000000
   16        2.124813      2.124864   1.000000   1.000000
   17        8.325292      8.325085   0.000000   0.000000
   18        8.711093      8.711019   0.000000   0.000000
   19        9.683778      9.683513   0.000000   0.000000
   20       10.974111     10.973975   0.000000   0.000000
   21       11.148269     11.147932   0.000000   0.000000
   22       12.382714     12.381345   0.000000   0.000000
 
 -0.1250000E+00  0.2500000E+00  0.5920305E-16  0.3125000E-02
    1      -19.490004    -19.489981   1.000000   1.000000
    2      -17.835554    -17.835504   1.000000   1.000000
    3      -13.958369    -13.958206   1.000000   1.000000
    4      -12.622427    -12.622235   1.000000   1.000000
    5      -10.395936    -10.395893   1.000000   1.000000
    6       -6.743868     -6.743838   1.000000   1.000000
    7       -5.411358     -5.411328   1.000000   1.000000
    8       -5.011809     -5.011745   1.000000   1.000000
    9       -2.489107     -2.489219   1.000000   1.000000
   10       -1.530416     -1.530470   1.000000   1.000000
   11       -0.842018     -0.842064   1.000000   1.000000
   12       -0.626002     -0.626016   1.000000   1.000000
   13        0.586364      0.586461   1.000000   1.000000
   14        0.817982      0.817988   1.000000   1.000000
   15        1.384691      1.384712   1.000000   1.000000
   16        2.158226      2.158277   1.000000   1.000000
   17        8.358299      8.358049   0.000000   0.000000
   18        8.802652      8.802589   0.000000   0.000000
   19        9.697351      9.697139   0.000000   0.000000
   20       10.686240     10.685912   0.000000   0.000000
   21       11.089618     11.089396   0.000000   0.000000
   22       12.472448     12.470407   0.000000   0.000000
 
 -0.6067488E-16  0.3750000E+00  0.1905613E-15  0.3125000E-02
    1      -19.171672    -19.171644   1.000000   1.000000
    2      -18.228817    -18.228777   1.000000   1.000000
    3      -14.327277    -14.327128   1.000000   1.000000
    4      -12.412495    -12.412283   1.000000   1.000000
    5       -9.878045     -9.878010   1.000000   1.000000
    6       -6.794036     -6.793983   1.000000   1.000000
    7       -5.323104     -5.323054   1.000000   1.000000
    8       -4.991228     -4.991163   1.000000   1.000000
    9       -2.525931     -2.526036   1.000000   1.000000
   10       -1.643005     -1.643050   1.000000   1.000000
   11       -0.995474     -0.995547   1.000000   1.000000
   12       -0.869314     -0.869374   1.000000   1.000000
   13        0.289756      0.289812   1.000000   1.000000
   14        1.007659      1.007673   1.000000   1.000000
   15        1.262846      1.262880   1.000000   1.000000
   16        2.156187      2.156246   1.000000   1.000000
   17        9.004771      9.004579   0.000000   0.000000
   18        9.190951      9.190850   0.000000   0.000000
   19       10.144893     10.144744   0.000000   0.000000
   20       10.623986     10.623780   0.000000   0.000000
   21       11.224859     11.224380   0.000000   0.000000
   22       11.990210     11.989114   0.000000   0.000000
 
  0.1250000E+00  0.3750000E+00  0.1950448E-15  0.3125000E-02
    1      -19.104340    -19.104311   1.000000   1.000000
    2      -18.276210    -18.276171   1.000000   1.000000
    3      -14.416564    -14.416420   1.000000   1.000000
    4      -12.559763    -12.559563   1.000000   1.000000