 running on    8 total cores
 distrk:  each k-point on    8 cores,    1 groups
 distr:  one band on    1 cores,    8 groups
 using from now: INCAR     
 vasp.6.1.2 22Jul20 (build Mar 20 2021 11:25:07) complex                        
  
 POSCAR found type information on POSCAR LiP 
 POSCAR found :  2 types and       8 ions
 scaLAPACK will be used
 -----------------------------------------------------------------------------
|                                                                             |
|           W    W    AA    RRRRR   N    N  II  N    N   GGGG   !!!           |
|           W    W   A  A   R    R  NN   N  II  NN   N  G    G  !!!           |
|           W    W  A    A  R    R  N N  N  II  N N  N  G       !!!           |
|           W WW W  AAAAAA  RRRRR   N  N N  II  N  N N  G  GGG   !            |
|           WW  WW  A    A  R   R   N   NN  II  N   NN  G    G                |
|           W    W  A    A  R    R  N    N  II  N    N   GGGG   !!!           |
|                                                                             |
|     The value NCORE = 6 specified in the INCAR file was overwritten,        |
|     because it was not compatible with the 8 processes available:           |
|     NCORE = 1                                                               |
|     was used instead, please check that this makes sense for your           |
|     machine.                                                                |
|                                                                             |
 -----------------------------------------------------------------------------

 -----------------------------------------------------------------------------
|                                                                             |
|           W    W    AA    RRRRR   N    N  II  N    N   GGGG   !!!           |
|           W    W   A  A   R    R  NN   N  II  NN   N  G    G  !!!           |
|           W    W  A    A  R    R  N N  N  II  N N  N  G       !!!           |
|           W WW W  AAAAAA  RRRRR   N  N N  II  N  N N  G  GGG   !            |
|           WW  WW  A    A  R   R   N   NN  II  N   NN  G    G                |
|           W    W  A    A  R    R  N    N  II  N    N   GGGG   !!!           |
|                                                                             |
|     For optimal performance we recommend to set                             |
|       NCORE = 4 - approx SQRT(number of cores).                             |
|     NCORE specifies how many cores store one orbital (NPAR=cpu/NCORE).      |
|     This setting can greatly improve the performance of VASP for DFT.       |
|     The default, NCORE=1 might be grossly inefficient on modern             |
|     multi-core architectures or massively parallel machines. Do your        |
|     own testing!!!!                                                         |
|     Unfortunately you need to use the default for GW and RPA                |
|     calculations (for HF NCORE is supported but not extensively tested      |
|     yet).                                                                   |
|                                                                             |
 -----------------------------------------------------------------------------

 -----------------------------------------------------------------------------
|                                                                             |
|               ----> ADVICE to this user running VASP <----                  |
|                                                                             |
|     You have a (more or less) 'small supercell' and for smaller cells       |
|     it is recommended to use the reciprocal-space projection scheme!        |
|     The real-space optimization is not efficient for small cells and it     |
|     is also less accurate ...                                               |
|     Therefore, set LREAL=.FALSE. in the INCAR file.                         |
|                                                                             |
 -----------------------------------------------------------------------------

 LDA part: xc-table for Pade appr. of Perdew
 -----------------------------------------------------------------------------
|                                                                             |
|           W    W    AA    RRRRR   N    N  II  N    N   GGGG   !!!           |
|           W    W   A  A   R    R  NN   N  II  NN   N  G    G  !!!           |
|           W    W  A    A  R    R  N N  N  II  N N  N  G       !!!           |
|           W WW W  AAAAAA  RRRRR   N  N N  II  N  N N  G  GGG   !            |
|           WW  WW  A    A  R   R   N   NN  II  N   NN  G    G                |
|           W    W  A    A  R    R  N    N  II  N    N   GGGG   !!!           |
|                                                                             |
|     The determination of the symmetry of your systems shows a strong        |
|     dependence on the tolerance parameter SYMPREC. This is often the        |
|     result of "noise" in the structural parameters (lattice vectors         |
|     and/or ionic positions). Set NWRITE=3 for more details.                 |
|                                                                             |
 -----------------------------------------------------------------------------

 generate k-points for:    9    9    4
 POSCAR, INCAR and KPOINTS ok, starting setup
 FFT: planning ...
 WAVECAR not read
 entering main loop
       N       E                     dE             d eps       ncg     rms          rms(c)
DAV:   1     0.161553316917E+03    0.16155E+03   -0.11909E+04  3464   0.120E+03
DAV:   2     0.178151347803E+01   -0.15977E+03   -0.15118E+03  3768   0.305E+02
DAV:   3    -0.241627143597E+02   -0.25944E+02   -0.25696E+02  6360   0.700E+01
DAV:   4    -0.263174973389E+02   -0.21548E+01   -0.21426E+01  4896   0.287E+01
DAV:   5    -0.264620268991E+02   -0.14453E+00   -0.14452E+00  5584   0.596E+00    0.150E+01
RMM:   6    -0.270011962277E+02   -0.53917E+00   -0.15582E+00  4182   0.612E+00    0.766E+00
RMM:   7    -0.276640715663E+02   -0.66288E+00   -0.46677E-01  4650   0.405E+00    0.306E+00
RMM:   8    -0.277215612291E+02   -0.57490E-01   -0.41468E-01  5370   0.292E+00    0.127E+00
WARNING in EDDRMM: call to ZHEGV failed, returncode =   8  4      3
RMM:   9    -0.277308833776E+02   -0.93221E-02   -0.96197E-02  5607   0.173E+00    0.563E-01
RMM:  10    -0.277394745622E+02   -0.85912E-02   -0.42535E-02  5947   0.995E-01    0.274E-01
RMM:  11    -0.277414184700E+02   -0.19439E-02   -0.14421E-02  6010   0.568E-01    0.207E-01
RMM:  12    -0.277421083044E+02   -0.68983E-03   -0.49991E-03  5837   0.417E-01    0.527E-02
RMM:  13    -0.277425995931E+02   -0.49129E-03   -0.28565E-03  6064   0.254E-01    0.170E-02
RMM:  14    -0.277427669303E+02   -0.16734E-03   -0.13511E-03  5902   0.160E-01    0.204E-02
RMM:  15    -0.277428380157E+02   -0.71085E-04   -0.61441E-04  5260   0.105E-01    0.180E-02
RMM:  16    -0.277428740874E+02   -0.36072E-04   -0.32243E-04  5148   0.750E-02    0.254E-02
RMM:  17    -0.277428881794E+02   -0.14092E-04   -0.17733E-04  4959   0.606E-02    0.141E-02
RMM:  18    -0.277428987517E+02   -0.10572E-04   -0.99600E-05  4403   0.442E-02    0.121E-02
RMM:  19    -0.277429050337E+02   -0.62821E-05   -0.68568E-05  4172   0.376E-02
   1 F= -.27742905E+02 E0= -.27742905E+02  d E =0.000000E+00  mag=    -0.0000
