       N       E                     dE             d eps       ncg     rms          rms(c)
DAV:   1     0.462723490359E+03    0.46272E+03   -0.40395E+04 13440   0.132E+03
DAV:   2    -0.102355950913E+03   -0.56508E+03   -0.53983E+03 16992   0.303E+02
DAV:   3    -0.137788388661E+03   -0.35432E+02   -0.35139E+02 16776   0.802E+01
DAV:   4    -0.138410450891E+03   -0.62206E+00   -0.61945E+00 17416   0.112E+01
DAV:   5    -0.138426807468E+03   -0.16357E-01   -0.16340E-01 16592   0.170E+00    0.485E+01
DAV:   6    -0.118234259342E+03    0.20193E+02   -0.64222E+01 15824   0.311E+01    0.244E+01
DAV:   7    -0.120095244224E+03   -0.18610E+01   -0.10251E+01 16272   0.113E+01    0.775E+00
DAV:   8    -0.120036620529E+03    0.58624E-01   -0.59047E-01 15896   0.339E+00    0.473E+00
DAV:   9    -0.120037193557E+03   -0.57303E-03   -0.65950E-02 16352   0.126E+00    0.225E+00
DAV:  10    -0.120035720914E+03    0.14726E-02   -0.27408E-02 15896   0.820E-01    0.475E-01
DAV:  11    -0.120038631839E+03   -0.29109E-02   -0.51919E-03 15592   0.378E-01    0.250E-01
DAV:  12    -0.120039177431E+03   -0.54559E-03   -0.45333E-04 16728   0.121E-01    0.142E-01
DAV:  13    -0.120039500985E+03   -0.32355E-03   -0.30052E-04 16176   0.825E-02    0.573E-02
DAV:  14    -0.120039568458E+03   -0.67472E-04   -0.39794E-05 14136   0.325E-02    0.184E-02
DAV:  15    -0.120039585788E+03   -0.17331E-04   -0.15229E-05 11216   0.189E-02    0.912E-03
DAV:  16    -0.120039589924E+03   -0.41353E-05   -0.45844E-06 10968   0.101E-02
   1 F= -.12003959E+03 E0= -.12003959E+03  d E =0.000000E+00  mag=    -0.0005
