 running on   48 total cores
 distrk:  each k-point on   48 cores,    1 groups
 distr:  one band on    6 cores,    8 groups
 using from now: INCAR     
 vasp.6.1.2 22Jul20 (build Mar 31 2021 18:09:49) complex                        
  
 POSCAR found type information on POSCAR LiP N 
 POSCAR found :  3 types and      96 ions
 scaLAPACK will be used
 LDA part: xc-table for Pade appr. of Perdew
 generate k-points for:    3    3    3
 POSCAR, INCAR and KPOINTS ok, starting setup
 FFT: planning ...
 WAVECAR not read
 entering main loop
       N       E                     dE             d eps       ncg     rms          rms(c)
DAV:   1     0.348849719095E+04    0.34885E+04   -0.15314E+05  8448   0.156E+03
DAV:   2     0.321745948368E+02   -0.34563E+04   -0.31164E+04  9040   0.436E+02
DAV:   3    -0.449113540220E+03   -0.48129E+03   -0.47486E+03 11376   0.146E+02
DAV:   4    -0.518783973628E+03   -0.69670E+02   -0.68940E+02 15104   0.473E+01
DAV:   5    -0.525699906061E+03   -0.69159E+01   -0.69106E+01 13616   0.124E+01    0.737E+01
RMM:   6    -0.469911801159E+03    0.55788E+02   -0.20770E+02 10175   0.208E+01    0.321E+01
RMM:   7    -0.483264166159E+03   -0.13352E+02   -0.46758E+01 13455   0.121E+01    0.173E+01
RMM:   8    -0.485840925247E+03   -0.25768E+01   -0.11596E+01 15174   0.561E+00    0.909E+00
RMM:   9    -0.486642169576E+03   -0.80124E+00   -0.53576E+00 13735   0.433E+00    0.306E+00
RMM:  10    -0.486725083747E+03   -0.82914E-01   -0.22131E+00 15094   0.281E+00    0.162E+00
RMM:  11    -0.486819007389E+03   -0.93924E-01   -0.13726E+00 15665   0.163E+00    0.125E+00
RMM:  12    -0.486893380345E+03   -0.74373E-01   -0.65672E-01 15980   0.107E+00    0.103E+00
RMM:  13    -0.486925555014E+03   -0.32175E-01   -0.27229E-01 15550   0.726E-01    0.497E-01
RMM:  14    -0.486938991974E+03   -0.13437E-01   -0.11973E-01 15906   0.519E-01    0.985E-02
RMM:  15    -0.486946311494E+03   -0.73195E-02   -0.67909E-02 16000   0.357E-01    0.810E-02
RMM:  16    -0.486949837692E+03   -0.35262E-02   -0.32160E-02 16000   0.250E-01    0.763E-02
RMM:  17    -0.486951622243E+03   -0.17846E-02   -0.17823E-02 14902   0.181E-01    0.372E-02
RMM:  18    -0.486952612683E+03   -0.99044E-03   -0.10132E-02 14322   0.135E-01    0.150E-02
RMM:  19    -0.486953241858E+03   -0.62917E-03   -0.57858E-03 14208   0.102E-01    0.229E-02
RMM:  20    -0.486953602233E+03   -0.36038E-03   -0.34803E-03 14206   0.774E-02    0.214E-02
RMM:  21    -0.486953830408E+03   -0.22818E-03   -0.22128E-03 14076   0.594E-02    0.253E-02
RMM:  22    -0.486954000293E+03   -0.16988E-03   -0.14359E-03 13976   0.463E-02    0.431E-02
WARNING in EDDRMM: call to ZHEGV failed, returncode =   6  3     17
WARNING in EDDRMM: call to ZHEGV failed, returncode =   6  3     16
RMM:  23    -0.486954057905E+03   -0.57612E-04   -0.90560E-04 13385   0.374E-02    0.227E-02
RMM:  24    -0.486954105000E+03   -0.47094E-04   -0.59344E-04 12097   0.295E-02    0.133E-02
RMM:  25    -0.486954130511E+03   -0.25512E-04   -0.43357E-04 12813   0.263E-02    0.114E-02
RMM:  26    -0.486954150900E+03   -0.20389E-04   -0.29065E-04 11782   0.215E-02    0.213E-02
RMM:  27    -0.486954171225E+03   -0.20325E-04   -0.18838E-04 10241   0.176E-02    0.165E-02
RMM:  28    -0.486954184345E+03   -0.13120E-04   -0.14558E-04 10822   0.162E-02    0.152E-02
RMM:  29    -0.486954193326E+03   -0.89808E-05   -0.96729E-05 10029   0.142E-02
   1 F= -.48695419E+03 E0= -.48695419E+03  d E =0.000000E+00  mag=    -0.0000
