 running on    8 total cores
 distrk:  each k-point on    8 cores,    1 groups
 distr:  one band on    1 cores,    8 groups
 using from now: INCAR     
 vasp.6.1.2 22Jul20 (build Mar 20 2021 11:25:07) complex                        
  
 POSCAR found type information on POSCAR LiP O 
 POSCAR found :  3 types and      16 ions
 scaLAPACK will be used
 -----------------------------------------------------------------------------
|                                                                             |
|           W    W    AA    RRRRR   N    N  II  N    N   GGGG   !!!           |
|           W    W   A  A   R    R  NN   N  II  NN   N  G    G  !!!           |
|           W    W  A    A  R    R  N N  N  II  N N  N  G       !!!           |
|           W WW W  AAAAAA  RRRRR   N  N N  II  N  N N  G  GGG   !            |
|           WW  WW  A    A  R   R   N   NN  II  N   NN  G    G                |
|           W    W  A    A  R    R  N    N  II  N    N   GGGG   !!!           |
|                                                                             |
|     The value NCORE = 6 specified in the INCAR file was overwritten,        |
|     because it was not compatible with the 8 processes available:           |
|     NCORE = 1                                                               |
|     was used instead, please check that this makes sense for your           |
|     machine.                                                                |
|                                                                             |
 -----------------------------------------------------------------------------

 -----------------------------------------------------------------------------
|                                                                             |
|           W    W    AA    RRRRR   N    N  II  N    N   GGGG   !!!           |
|           W    W   A  A   R    R  NN   N  II  NN   N  G    G  !!!           |
|           W    W  A    A  R    R  N N  N  II  N N  N  G       !!!           |
|           W WW W  AAAAAA  RRRRR   N  N N  II  N  N N  G  GGG   !            |
|           WW  WW  A    A  R   R   N   NN  II  N   NN  G    G                |
|           W    W  A    A  R    R  N    N  II  N    N   GGGG   !!!           |
|                                                                             |
|     For optimal performance we recommend to set                             |
|       NCORE = 4 - approx SQRT(number of cores).                             |
|     NCORE specifies how many cores store one orbital (NPAR=cpu/NCORE).      |
|     This setting can greatly improve the performance of VASP for DFT.       |
|     The default, NCORE=1 might be grossly inefficient on modern             |
|     multi-core architectures or massively parallel machines. Do your        |
|     own testing!!!!                                                         |
|     Unfortunately you need to use the default for GW and RPA                |
|     calculations (for HF NCORE is supported but not extensively tested      |
|     yet).                                                                   |
|                                                                             |
 -----------------------------------------------------------------------------

 LDA part: xc-table for Pade appr. of Perdew
 generate k-points for:    7    6    5
 POSCAR, INCAR and KPOINTS ok, starting setup
 FFT: planning ...
 WAVECAR not read
 entering main loop
       N       E                     dE             d eps       ncg     rms          rms(c)
DAV:   1     0.604776118912E+03    0.60478E+03   -0.36432E+04 14784   0.142E+03
DAV:   2    -0.446064741117E+02   -0.64938E+03   -0.61331E+03 16968   0.373E+02
DAV:   3    -0.102836580519E+03   -0.58230E+02   -0.57889E+02 20408   0.105E+02
DAV:   4    -0.108184606318E+03   -0.53480E+01   -0.53139E+01 25048   0.264E+01
DAV:   5    -0.108678336380E+03   -0.49373E+00   -0.49358E+00 20776   0.552E+00    0.372E+01
RMM:   6    -0.987867555066E+02    0.98916E+01   -0.38268E+01 16170   0.219E+01    0.148E+01
RMM:   7    -0.998329818718E+02   -0.10462E+01   -0.38309E+00 21351   0.754E+00    0.792E+00
RMM:   8    -0.100031160688E+03   -0.19818E+00   -0.87030E-01 23880   0.393E+00    0.395E+00
RMM:   9    -0.100103594225E+03   -0.72434E-01   -0.31606E-01 24164   0.280E+00    0.807E-01
RMM:  10    -0.100132057600E+03   -0.28463E-01   -0.21944E-01 27632   0.161E+00    0.364E-01
RMM:  11    -0.100146013684E+03   -0.13956E-01   -0.96724E-02 28341   0.996E-01    0.284E-01
RMM:  12    -0.100152082012E+03   -0.60683E-02   -0.39306E-02 28671   0.616E-01    0.164E-01
RMM:  13    -0.100154291040E+03   -0.22090E-02   -0.15300E-02 28046   0.414E-01    0.705E-02
RMM:  14    -0.100155211558E+03   -0.92052E-03   -0.76036E-03 28496   0.286E-01    0.321E-02
RMM:  15    -0.100155576633E+03   -0.36508E-03   -0.33156E-03 27909   0.181E-01    0.246E-02
RMM:  16    -0.100155739283E+03   -0.16265E-03   -0.15078E-03 27503   0.120E-01    0.145E-02
RMM:  17    -0.100155810338E+03   -0.71055E-04   -0.62306E-04 26886   0.827E-02    0.947E-03
RMM:  18    -0.100155841145E+03   -0.30808E-04   -0.30212E-04 26284   0.553E-02    0.682E-03
RMM:  19    -0.100155850743E+03   -0.95981E-05   -0.11996E-04 25201   0.396E-02    0.743E-03
RMM:  20    -0.100155856076E+03   -0.53323E-05   -0.34453E-05 19810   0.289E-02
   1 F= -.10015586E+03 E0= -.10015586E+03  d E =0.000000E+00  mag=    -0.0000
