Automatically generated mesh
     230
Reciprocal lattice
    0.00000000000000    0.00000000000000    0.00000000000000             1
    0.11111111111111    0.00000000000000    0.00000000000000             2
    0.22222222222222    0.00000000000000    0.00000000000000             2
    0.33333333333334   -0.00000000000000    0.00000000000000             2
    0.44444444444444    0.00000000000000    0.00000000000000             2
    0.00000000000000    0.10000000000000    0.00000000000000             2
    0.11111111111111    0.10000000000000    0.00000000000000             2
    0.22222222222222    0.10000000000000    0.00000000000000             2
    0.33333333333334    0.10000000000000    0.00000000000000             2
    0.44444444444444    0.10000000000000    0.00000000000000             2
   -0.44444444444444    0.10000000000000    0.00000000000000             2
   -0.33333333333334    0.10000000000000    0.00000000000000             2
   -0.22222222222222    0.10000000000000    0.00000000000000             2
   -0.11111111111111    0.10000000000000    0.00000000000000             2
    0.00000000000000    0.20000000000000    0.00000000000000             2
    0.11111111111111    0.20000000000000    0.00000000000000             2
    0.22222222222222    0.20000000000000    0.00000000000000             2
    0.33333333333334    0.20000000000000    0.00000000000000             2
    0.44444444444444    0.20000000000000    0.00000000000000             2
   -0.44444444444444    0.20000000000000    0.00000000000000             2
   -0.33333333333334    0.20000000000000    0.00000000000000             2
   -0.22222222222222    0.20000000000000    0.00000000000000             2
   -0.11111111111111    0.20000000000000    0.00000000000000             2
    0.00000000000000    0.30000000000000    0.00000000000000             2
    0.11111111111111    0.30000000000000    0.00000000000000             2
    0.22222222222222    0.30000000000000    0.00000000000000             2
    0.33333333333334    0.30000000000000    0.00000000000000             2
    0.44444444444444    0.30000000000000    0.00000000000000             2
   -0.44444444444444    0.30000000000000    0.00000000000000             2
   -0.33333333333334    0.30000000000000    0.00000000000000             2
   -0.22222222222222    0.30000000000000    0.00000000000000             2
   -0.11111111111111    0.30000000000000    0.00000000000000             2
    0.00000000000000    0.40000000000000    0.00000000000000             2
    0.11111111111111    0.40000000000000    0.00000000000000             2
    0.22222222222222    0.40000000000000    0.00000000000000             2
    0.33333333333334    0.40000000000000    0.00000000000000             2
    0.44444444444444    0.40000000000000    0.00000000000000             2
   -0.44444444444444    0.40000000000000    0.00000000000000             2
   -0.33333333333334    0.40000000000000    0.00000000000000             2
   -0.22222222222222    0.40000000000000    0.00000000000000             2
   -0.11111111111111    0.40000000000000    0.00000000000000             2
    0.00000000000000    0.50000000000000    0.00000000000000             1
    0.11111111111111    0.50000000000000    0.00000000000000             2
    0.22222222222222    0.50000000000000    0.00000000000000             2
    0.33333333333334    0.50000000000000    0.00000000000000             2
    0.44444444444444    0.50000000000000    0.00000000000000             2
    0.00000000000000    0.00000000000000    0.12500000000000             2
    0.11111111111111    0.00000000000000    0.12500000000000             4
    0.22222222222222    0.00000000000000    0.12500000000000             4
    0.33333333333334   -0.00000000000000    0.12500000000000             4
    0.44444444444444    0.00000000000000    0.12500000000000             4
    0.00000000000000    0.10000000000000    0.12500000000000             4
    0.11111111111111    0.10000000000000    0.12500000000000             4
    0.22222222222222    0.10000000000000    0.12500000000000             4
    0.33333333333334    0.10000000000000    0.12500000000000             4
    0.44444444444444    0.10000000000000    0.12500000000000             4
   -0.44444444444444    0.10000000000000    0.12500000000000             4
   -0.33333333333334    0.10000000000000    0.12500000000000             4
   -0.22222222222222    0.10000000000000    0.12500000000000             4
   -0.11111111111111    0.10000000000000    0.12500000000000             4
    0.00000000000000    0.20000000000000    0.12500000000000             4
    0.11111111111111    0.20000000000000    0.12500000000000             4
    0.22222222222222    0.20000000000000    0.12500000000000             4
    0.33333333333334    0.20000000000000    0.12500000000000             4
    0.44444444444444    0.20000000000000    0.12500000000000             4
   -0.44444444444444    0.20000000000000    0.12500000000000             4
   -0.33333333333334    0.20000000000000    0.12500000000000             4
   -0.22222222222222    0.20000000000000    0.12500000000000             4
   -0.11111111111111    0.20000000000000    0.12500000000000             4
    0.00000000000000    0.30000000000000    0.12500000000000             4
    0.11111111111111    0.30000000000000    0.12500000000000             4
    0.22222222222222    0.30000000000000    0.12500000000000             4
    0.33333333333334    0.30000000000000    0.12500000000000             4
    0.44444444444444    0.30000000000000    0.12500000000000             4
   -0.44444444444444    0.30000000000000    0.12500000000000             4
   -0.33333333333334    0.30000000000000    0.12500000000000             4
   -0.22222222222222    0.30000000000000    0.12500000000000             4
   -0.11111111111111    0.30000000000000    0.12500000000000             4
    0.00000000000000    0.40000000000000    0.12500000000000             4
    0.11111111111111    0.40000000000000    0.12500000000000             4
    0.22222222222222    0.40000000000000    0.12500000000000             4
    0.33333333333334    0.40000000000000    0.12500000000000             4
    0.44444444444444    0.40000000000000    0.12500000000000             4
   -0.44444444444444    0.40000000000000    0.12500000000000             4
   -0.33333333333334    0.40000000000000    0.12500000000000             4
   -0.22222222222222    0.40000000000000    0.12500000000000             4
   -0.11111111111111    0.40000000000000    0.12500000000000             4
    0.00000000000000    0.50000000000000    0.12500000000000             2
    0.11111111111111    0.50000000000000    0.12500000000000             4
    0.22222222222222    0.50000000000000    0.12500000000000             4
    0.33333333333334    0.50000000000000    0.12500000000000             4
    0.44444444444444    0.50000000000000    0.12500000000000             4
    0.00000000000000    0.00000000000000    0.25000000000000             2
    0.11111111111111    0.00000000000000    0.25000000000000             4
    0.22222222222222    0.00000000000000    0.25000000000000             4
    0.33333333333334   -0.00000000000000    0.25000000000000             4
    0.44444444444444    0.00000000000000    0.25000000000000             4
    0.00000000000000    0.10000000000000    0.25000000000000             4
    0.11111111111111    0.10000000000000    0.25000000000000             4
    0.22222222222222    0.10000000000000    0.25000000000000             4
    0.33333333333334    0.10000000000000    0.25000000000000             4
    0.44444444444444    0.10000000000000    0.25000000000000             4
   -0.44444444444444    0.10000000000000    0.25000000000000             4
   -0.33333333333334    0.10000000000000    0.25000000000000             4
   -0.22222222222222    0.10000000000000    0.25000000000000             4
   -0.11111111111111    0.10000000000000    0.25000000000000             4
    0.00000000000000    0.20000000000000    0.25000000000000             4
    0.11111111111111    0.20000000000000    0.25000000000000             4
    0.22222222222222    0.20000000000000    0.25000000000000             4
    0.33333333333334    0.20000000000000    0.25000000000000             4
    0.44444444444444    0.20000000000000    0.25000000000000             4
   -0.44444444444444    0.20000000000000    0.25000000000000             4
   -0.33333333333334    0.20000000000000    0.25000000000000             4
   -0.22222222222222    0.20000000000000    0.25000000000000             4
   -0.11111111111111    0.20000000000000    0.25000000000000             4
    0.00000000000000    0.30000000000000    0.25000000000000             4
    0.11111111111111    0.30000000000000    0.25000000000000             4
    0.22222222222222    0.30000000000000    0.25000000000000             4
    0.33333333333334    0.30000000000000    0.25000000000000             4
    0.44444444444444    0.30000000000000    0.25000000000000             4
   -0.44444444444444    0.30000000000000    0.25000000000000             4
   -0.33333333333334    0.30000000000000    0.25000000000000             4
   -0.22222222222222    0.30000000000000    0.25000000000000             4
   -0.11111111111111    0.30000000000000    0.25000000000000             4
    0.00000000000000    0.40000000000000    0.25000000000000             4
    0.11111111111111    0.40000000000000    0.25000000000000             4
    0.22222222222222    0.40000000000000    0.25000000000000             4
    0.33333333333334    0.40000000000000    0.25000000000000             4
    0.44444444444444    0.40000000000000    0.25000000000000             4
   -0.44444444444444    0.40000000000000    0.25000000000000             4
   -0.33333333333334    0.40000000000000    0.25000000000000             4
   -0.22222222222222    0.40000000000000    0.25000000000000             4
   -0.11111111111111    0.40000000000000    0.25000000000000             4
    0.00000000000000    0.50000000000000    0.25000000000000             2
    0.11111111111111    0.50000000000000    0.25000000000000             4
    0.22222222222222    0.50000000000000    0.25000000000000             4
    0.33333333333334    0.50000000000000    0.25000000000000             4
    0.44444444444444    0.50000000000000    0.25000000000000             4
    0.00000000000000    0.00000000000000    0.37500000000000             2
    0.11111111111111    0.00000000000000    0.37500000000000             4
    0.22222222222222    0.00000000000000    0.37500000000000             4
    0.33333333333334   -0.00000000000000    0.37500000000000             4
    0.44444444444444    0.00000000000000    0.37500000000000             4
    0.00000000000000    0.10000000000000    0.37500000000000             4
    0.11111111111111    0.10000000000000    0.37500000000000             4
    0.22222222222222    0.10000000000000    0.37500000000000             4
    0.33333333333334    0.10000000000000    0.37500000000000             4
    0.44444444444444    0.10000000000000    0.37500000000000             4
   -0.44444444444444    0.10000000000000    0.37500000000000             4
   -0.33333333333334    0.10000000000000    0.37500000000000             4
   -0.22222222222222    0.10000000000000    0.37500000000000             4
   -0.11111111111111    0.10000000000000    0.37500000000000             4
    0.00000000000000    0.20000000000000    0.37500000000000             4
    0.11111111111111    0.20000000000000    0.37500000000000             4
    0.22222222222222    0.20000000000000    0.37500000000000             4
    0.33333333333334    0.20000000000000    0.37500000000000             4
    0.44444444444444    0.20000000000000    0.37500000000000             4
   -0.44444444444444    0.20000000000000    0.37500000000000             4
   -0.33333333333334    0.20000000000000    0.37500000000000             4
   -0.22222222222222    0.20000000000000    0.37500000000000             4
   -0.11111111111111    0.20000000000000    0.37500000000000             4
    0.00000000000000    0.30000000000000    0.37500000000000             4
    0.11111111111111    0.30000000000000    0.37500000000000             4
    0.22222222222222    0.30000000000000    0.37500000000000             4
    0.33333333333334    0.30000000000000    0.37500000000000             4
    0.44444444444444    0.30000000000000    0.37500000000000             4
   -0.44444444444444    0.30000000000000    0.37500000000000             4
   -0.33333333333334    0.30000000000000    0.37500000000000             4
   -0.22222222222222    0.30000000000000    0.37500000000000             4
   -0.11111111111111    0.30000000000000    0.37500000000000             4
    0.00000000000000    0.40000000000000    0.37500000000000             4
    0.11111111111111    0.40000000000000    0.37500000000000             4
    0.22222222222222    0.40000000000000    0.37500000000000             4
    0.33333333333334    0.40000000000000    0.37500000000000             4
    0.44444444444444    0.40000000000000    0.37500000000000             4
   -0.44444444444444    0.40000000000000    0.37500000000000             4
   -0.33333333333334    0.40000000000000    0.37500000000000             4
   -0.22222222222222    0.40000000000000    0.37500000000000             4
   -0.11111111111111    0.40000000000000    0.37500000000000             4
    0.00000000000000    0.50000000000000    0.37500000000000             2
    0.11111111111111    0.50000000000000    0.37500000000000             4
    0.22222222222222    0.50000000000000    0.37500000000000             4
    0.33333333333334    0.50000000000000    0.37500000000000             4
    0.44444444444444    0.50000000000000    0.37500000000000             4
    0.00000000000000    0.00000000000000    0.50000000000000             1
    0.11111111111111    0.00000000000000    0.50000000000000             2
    0.22222222222222    0.00000000000000    0.50000000000000             2
    0.33333333333334   -0.00000000000000    0.50000000000000             2
    0.44444444444444    0.00000000000000    0.50000000000000             2
    0.00000000000000    0.10000000000000    0.50000000000000             2
    0.11111111111111    0.10000000000000    0.50000000000000             2
    0.22222222222222    0.10000000000000    0.50000000000000             2
    0.33333333333334    0.10000000000000    0.50000000000000             2
    0.44444444444444    0.10000000000000    0.50000000000000             2
   -0.44444444444444    0.10000000000000    0.50000000000000             2
   -0.33333333333334    0.10000000000000    0.50000000000000             2
   -0.22222222222222    0.10000000000000    0.50000000000000             2
   -0.11111111111111    0.10000000000000    0.50000000000000             2
    0.00000000000000    0.20000000000000    0.50000000000000             2
    0.11111111111111    0.20000000000000    0.50000000000000             2
    0.22222222222222    0.20000000000000    0.50000000000000             2
    0.33333333333334    0.20000000000000    0.50000000000000             2
    0.44444444444444    0.20000000000000    0.50000000000000             2
   -0.44444444444444    0.20000000000000    0.50000000000000             2
   -0.33333333333334    0.20000000000000    0.50000000000000             2
   -0.22222222222222    0.20000000000000    0.50000000000000             2
   -0.11111111111111    0.20000000000000    0.50000000000000             2
    0.00000000000000    0.30000000000000    0.50000000000000             2
    0.11111111111111    0.30000000000000    0.50000000000000             2
    0.22222222222222    0.30000000000000    0.50000000000000             2
    0.33333333333334    0.30000000000000    0.50000000000000             2
    0.44444444444444    0.30000000000000    0.50000000000000             2
   -0.44444444444444    0.30000000000000    0.50000000000000             2
   -0.33333333333334    0.30000000000000    0.50000000000000             2
   -0.22222222222222    0.30000000000000    0.50000000000000             2
   -0.11111111111111    0.30000000000000    0.50000000000000             2
    0.00000000000000    0.40000000000000    0.50000000000000             2
    0.11111111111111    0.40000000000000    0.50000000000000             2
    0.22222222222222    0.40000000000000    0.50000000000000             2
    0.33333333333334    0.40000000000000    0.50000000000000             2
    0.44444444444444    0.40000000000000    0.50000000000000             2
   -0.44444444444444    0.40000000000000    0.50000000000000             2
   -0.33333333333334    0.40000000000000    0.50000000000000             2
   -0.22222222222222    0.40000000000000    0.50000000000000             2
   -0.11111111111111    0.40000000000000    0.50000000000000             2
    0.00000000000000    0.50000000000000    0.50000000000000             1
    0.11111111111111    0.50000000000000    0.50000000000000             2
    0.22222222222222    0.50000000000000    0.50000000000000             2
    0.33333333333334    0.50000000000000    0.50000000000000             2
    0.44444444444444    0.50000000000000    0.50000000000000             2
Tetrahedra
      2160    0.00023148148148
         2         2         6         7        52
         2         1         2         6        52
         2         1         2        47        52
         2         2         7        52        53
         2         2        48        52        53
         2         2        47        48        52
         2         3         7         8        53
         2         2         3         7        53
         2         2         3        48        53
         2         3         8        53        54
         2         3        49        53        54
         2         3        48        49        53
         2         4         8         9        54
         2         3         4         8        54
         2         3         4        49        54
         2         4         9        54        55
         2         4        50        54        55
         2         4        49        50        54
         2         5         9        10        55
         2         4         5         9        55
         2         4         5        50        55
         2         5        10        55        56
         2         5        51        55        56
         2         5        50        51        55
         2         5        10        11        56
         2         5         5        10        56
         2         5         5        51        56
         2         5        11        56        57
         2         5        51        56        57
         2         5        51        51        56
         2         4        11        12        57
         2         4         5        11        57
         2         4         5        51        57
         2         4        12        57        58
         2         4        50        57        58
         2         4        50        51        57
         2         3        12        13        58
         2         3         4        12        58
         2         3         4        50        58
         2         3        13        58        59
         2         3        49        58        59
         2         3        49        50        58
         2         2        13        14        59
         2         2         3        13        59
         2         2         3        49        59
         2         2        14        59        60
         2         2        48        59        60
         2         2        48        49        59
         2         1         6        14        60
         2         1         2        14        60
         2         1         2        48        60
         2         1         6        52        60
         2         1        47        52        60
         2         1        47        48        60
         2         7        15        16        61
         2         6         7        15        61
         2         6         7        52        61
         2         7        16        61        62
         2         7        53        61        62
         2         7        52        53        61
         2         8        16        17        62
         2         7         8        16        62
         2         7         8        53        62
         2         8        17        62        63
         2         8        54        62        63
         2         8        53        54        62
         2         9        17        18        63
         2         8         9        17        63
         2         8         9        54        63
         2         9        18        63        64
         2         9        55        63        64
         2         9        54        55        63
         2        10        18        19        64
         2         9        10        18        64
         2         9        10        55        64
         2        10        19        64        65
         2        10        56        64        65
         2        10        55        56        64
         2        11        19        20        65
         2        10        11        19        65
         2        10        11        56        65
         2        11        20        65        66
         2        11        57        65        66
         2        11        56        57        65
         2        12        20        21        66
         2        11        12        20        66
         2        11        12        57        66
         2        12        21        66        67
         2        12        58        66        67
         2        12        57        58        66
         2        13        21        22        67
         2        12        13        21        67
         2        12        13        58        67
         2        13        22        67        68
         2        13        59        67        68
         2        13        58        59        67
         2        14        22        23        68
         2        13        14        22        68
         2        13        14        59        68
         2        14        23        68        69
         2        14        60        68        69
         2        14        59        60        68
         2         6        15        23        69
         2         6        14        23        69
         2         6        14        60        69
         2         6        15        61        69
         2         6        52        61        69
         2         6        52        60        69
         2        16        24        25        70
         2        15        16        24        70
         2        15        16        61        70
         2        16        25        70        71
         2        16        62        70        71
         2        16        61        62        70
         2        17        25        26        71
         2        16        17        25        71
         2        16        17        62        71
         2        17        26        71        72
         2        17        63        71        72
         2        17        62        63        71
         2        18        26        27        72
         2        17        18        26        72
         2        17        18        63        72
         2        18        27        72        73
         2        18        64        72        73
         2        18        63        64        72
         2        19        27        28        73
         2        18        19        27        73
         2        18        19        64        73
         2        19        28        73        74
         2        19        65        73        74
         2        19        64        65        73
         2        20        28        29        74
         2        19        20        28        74
         2        19        20        65        74
         2        20        29        74        75
         2        20        66        74        75
         2        20        65        66        74
         2        21        29        30        75
         2        20        21        29        75
         2        20        21        66        75
         2        21        30        75        76
         2        21        67        75        76
         2        21        66        67        75
         2        22        30        31        76
         2        21        22        30        76
         2        21        22        67        76
         2        22        31        76        77
         2        22        68        76        77
         2        22        67        68        76
         2        23        31        32        77
         2        22        23        31        77
         2        22        23        68        77
         2        23        32        77        78
         2        23        69        77        78
         2        23        68        69        77
         2        15        24        32        78
         2        15        23        32        78
         2        15        23        69        78
         2        15        24        70        78
         2        15        61        70        78
         2        15        61        69        78
         2        25        33        34        79
         2        24        25        33        79
         2        24        25        70        79
         2        25        34        79        80
         2        25        71        79        80
         2        25        70        71        79
         2        26        34        35        80
         2        25        26        34        80
         2        25        26        71        80
         2        26        35        80        81
         2        26        72        80        81
         2        26        71        72        80
         2        27        35        36        81
         2        26        27        35        81
         2        26        27        72        81
         2        27        36        81        82
         2        27        73        81        82
         2        27        72        73        81
         2        28        36        37        82
         2        27        28        36        82
         2        27        28        73        82
         2        28        37        82        83
         2        28        74        82        83
         2        28        73        74        82
         2        29        37        38        83
         2        28        29        37        83
         2        28        29        74        83
         2        29        38        83        84
         2        29        75        83        84
         2        29        74        75        83
         2        30        38        39        84
         2        29        30        38        84
         2        29        30        75        84
         2        30        39        84        85
         2        30        76        84        85
         2        30        75        76        84
         2        31        39        40        85
         2        30        31        39        85
         2        30        31        76        85
         2        31        40        85        86
         2        31        77        85        86
         2        31        76        77        85
         2        32        40        41        86
         2        31        32        40        86
         2        31        32        77        86
         2        32        41        86        87
         2        32        78        86        87
         2        32        77        78        86
         2        24        33        41        87
         2        24        32        41        87
         2        24        32        78        87
         2        24        33        79        87
         2        24        70        79        87
         2        24        70        78        87
         2        34        42        43        88
         2        33        34        42        88
         2        33        34        79        88
         2        34        43        88        89
         2        34        80        88        89
         2        34        79        80        88
         2        35        43        44        89
         2        34        35        43        89
         2        34        35        80        89
         2        35        44        89        90
         2        35        81        89        90
         2        35        80        81        89
         2        36        44        45        90
         2        35        36        44        90
         2        35        36        81        90
         2        36        45        90        91
         2        36        82        90        91
         2        36        81        82        90
         2        37        45        46        91
         2        36        37        45        91
         2        36        37        82        91
         2        37        46        91        92
         2        37        83        91        92
         2        37        82        83        91
         2        38        46        46        92
         2        37        38        46        92
         2        37        38        83        92
         2        38        46        92        92
         2        38        84        92        92
         2        38        83        84        92
         2        39        45        46        92
         2        38        39        46        92