 running on    8 total cores
 distrk:  each k-point on    8 cores,    1 groups
 distr:  one band on    1 cores,    8 groups
 using from now: INCAR     
 vasp.6.1.2 22Jul20 (build Mar 20 2021 11:25:07) complex                        
  
 POSCAR found type information on POSCAR LiP 
 POSCAR found :  2 types and      16 ions
 scaLAPACK will be used
 -----------------------------------------------------------------------------
|                                                                             |
|           W    W    AA    RRRRR   N    N  II  N    N   GGGG   !!!           |
|           W    W   A  A   R    R  NN   N  II  NN   N  G    G  !!!           |
|           W    W  A    A  R    R  N N  N  II  N N  N  G       !!!           |
|           W WW W  AAAAAA  RRRRR   N  N N  II  N  N N  G  GGG   !            |
|           WW  WW  A    A  R   R   N   NN  II  N   NN  G    G                |
|           W    W  A    A  R    R  N    N  II  N    N   GGGG   !!!           |
|                                                                             |
|     The value NCORE = 6 specified in the INCAR file was overwritten,        |
|     because it was not compatible with the 8 processes available:           |
|     NCORE = 1                                                               |
|     was used instead, please check that this makes sense for your           |
|     machine.                                                                |
|                                                                             |
 -----------------------------------------------------------------------------

 -----------------------------------------------------------------------------
|                                                                             |
|           W    W    AA    RRRRR   N    N  II  N    N   GGGG   !!!           |
|           W    W   A  A   R    R  NN   N  II  NN   N  G    G  !!!           |
|           W    W  A    A  R    R  N N  N  II  N N  N  G       !!!           |
|           W WW W  AAAAAA  RRRRR   N  N N  II  N  N N  G  GGG   !            |
|           WW  WW  A    A  R   R   N   NN  II  N   NN  G    G                |
|           W    W  A    A  R    R  N    N  II  N    N   GGGG   !!!           |
|                                                                             |
|     For optimal performance we recommend to set                             |
|       NCORE = 4 - approx SQRT(number of cores).                             |
|     NCORE specifies how many cores store one orbital (NPAR=cpu/NCORE).      |
|     This setting can greatly improve the performance of VASP for DFT.       |
|     The default, NCORE=1 might be grossly inefficient on modern             |
|     multi-core architectures or massively parallel machines. Do your        |
|     own testing!!!!                                                         |
|     Unfortunately you need to use the default for GW and RPA                |
|     calculations (for HF NCORE is supported but not extensively tested      |
|     yet).                                                                   |
|                                                                             |
 -----------------------------------------------------------------------------

 LDA part: xc-table for Pade appr. of Perdew
 generate k-points for:    6    7    4
 POSCAR, INCAR and KPOINTS ok, starting setup
 FFT: planning ...
 WAVECAR not read
 entering main loop
       N       E                     dE             d eps       ncg     rms          rms(c)
DAV:   1     0.395490728797E+03    0.39549E+03   -0.25683E+04 16512   0.131E+03
DAV:   2    -0.350001733272E+01   -0.39899E+03   -0.36491E+03 18336   0.315E+02
DAV:   3    -0.554650857268E+02   -0.51965E+02   -0.51268E+02 23456   0.882E+01
DAV:   4    -0.629483811149E+02   -0.74833E+01   -0.74036E+01 29160   0.326E+01
DAV:   5    -0.636647623090E+02   -0.71638E+00   -0.71607E+00 23144   0.747E+00    0.211E+01
DAV:   6    -0.649402809949E+02   -0.12755E+01   -0.27995E+00 22208   0.648E+00    0.113E+01
DAV:   7    -0.662119345513E+02   -0.12717E+01   -0.74011E-01 20256   0.411E+00    0.595E+00
DAV:   8    -0.664457803715E+02   -0.23385E+00   -0.61773E-01 21520   0.290E+00    0.127E+00
DAV:   9    -0.664763041197E+02   -0.30524E-01   -0.83307E-02 24480   0.113E+00    0.519E-01
DAV:  10    -0.664798814967E+02   -0.35774E-02   -0.71025E-03 21408   0.385E-01    0.228E-01
DAV:  11    -0.664813582259E+02   -0.14767E-02   -0.19819E-03 20600   0.207E-01    0.106E-01
DAV:  12    -0.664816480175E+02   -0.28979E-03   -0.60558E-04 21016   0.102E-01    0.413E-02
DAV:  13    -0.664816937551E+02   -0.45738E-04   -0.10022E-04 19144   0.514E-02    0.201E-02
DAV:  14    -0.664817090359E+02   -0.15281E-04   -0.33138E-05 16880   0.298E-02    0.669E-03
DAV:  15    -0.664817107682E+02   -0.17323E-05   -0.44416E-06 12392   0.128E-02
   1 F= -.66481711E+02 E0= -.66481711E+02  d E =0.000000E+00  mag=    -0.0003
