       N       E                     dE             d eps       ncg     rms          rms(c)
DAV:   1     0.271126862271E+00    0.27113E+00   -0.69296E+02  2712   0.254E+02
DAV:   2    -0.157016804208E+01   -0.18413E+01   -0.18138E+01  3936   0.363E+01
DAV:   3    -0.159537338556E+01   -0.25205E-01   -0.25197E-01  3016   0.326E+00
DAV:   4    -0.159581641459E+01   -0.44303E-03   -0.44286E-03  3992   0.358E-01
DAV:   5    -0.159581767907E+01   -0.12645E-05   -0.12641E-05  3128   0.180E-02    0.545E+00
RMM:   6    -0.181939618531E+01   -0.22358E+00   -0.61227E-02  3108   0.187E+00    0.259E+00
RMM:   7    -0.189599175528E+01   -0.76596E-01   -0.22321E-02  2827   0.116E+00    0.179E-01
RMM:   8    -0.189706158185E+01   -0.10698E-02   -0.50580E-03  3146   0.598E-01    0.953E-02
RMM:   9    -0.189729931880E+01   -0.23774E-03   -0.18973E-03  3595   0.336E-01    0.302E-02
RMM:  10    -0.189766377099E+01   -0.36445E-03   -0.16062E-03  3449   0.294E-01    0.279E-02
RMM:  11    -0.189770734207E+01   -0.43571E-04   -0.21221E-04  3818   0.115E-01    0.204E-02
RMM:  12    -0.189772820814E+01   -0.20866E-04   -0.15811E-04  3646   0.890E-02    0.105E-02
RMM:  13    -0.189773756114E+01   -0.93530E-05   -0.27482E-05  3318   0.451E-02
   1 F= -.18977376E+01 E0= -.18977376E+01  d E =0.000000E+00  mag=    -0.0001
