       N       E                     dE             d eps       ncg     rms          rms(c)
DAV:   1     0.867396877737E+02    0.86740E+02   -0.84636E+03 23760   0.119E+03
DAV:   2    -0.230474231934E+02   -0.10979E+03   -0.10625E+03 31142   0.271E+02
DAV:   3    -0.284848090571E+02   -0.54374E+01   -0.54161E+01 32888   0.654E+01
DAV:   4    -0.287087315077E+02   -0.22392E+00   -0.22381E+00 36558   0.112E+01
DAV:   5    -0.287116163576E+02   -0.28848E-02   -0.28845E-02 32594   0.133E+00    0.129E+01
RMM:   6    -0.275150924354E+02    0.11965E+01   -0.39367E+00 25781   0.138E+01    0.592E+00
RMM:   7    -0.274568036760E+02    0.58289E-01   -0.67995E-01 30822   0.765E+00    0.340E+00
RMM:   8    -0.274379365309E+02    0.18867E-01   -0.28537E-01 34072   0.427E+00    0.168E+00
RMM:   9    -0.274513967580E+02   -0.13460E-01   -0.77060E-02 36751   0.237E+00    0.645E-01
RMM:  10    -0.274523931714E+02   -0.99641E-03   -0.25629E-02 38687   0.126E+00    0.155E-01
RMM:  11    -0.274539258139E+02   -0.15326E-02   -0.10914E-02 41065   0.720E-01    0.912E-02
RMM:  12    -0.274546418189E+02   -0.71601E-03   -0.50878E-03 43651   0.453E-01    0.562E-02
RMM:  13    -0.274549032565E+02   -0.26144E-03   -0.21334E-03 43131   0.289E-01    0.214E-02
RMM:  14    -0.274550261307E+02   -0.12287E-03   -0.98290E-04 42058   0.203E-01    0.153E-02
RMM:  15    -0.274550815900E+02   -0.55459E-04   -0.45833E-04 39409   0.133E-01    0.920E-03
RMM:  16    -0.274551054664E+02   -0.23876E-04   -0.20842E-04 36208   0.912E-02    0.234E-03
RMM:  17    -0.274551170459E+02   -0.11579E-04   -0.94383E-05 31569   0.673E-02    0.221E-03
RMM:  18    -0.274551211436E+02   -0.40977E-05   -0.40622E-05 27636   0.542E-02
   1 F= -.27455121E+02 E0= -.27455121E+02  d E =0.000000E+00  mag=     0.0000
