 running on   12 total cores
 distrk:  each k-point on   12 cores,    1 groups
 distr:  one band on    6 cores,    2 groups
 using from now: INCAR     
 vasp.6.1.2 22Jul20 (build Mar 20 2021 11:25:07) complex                        
  
 POSCAR found type information on POSCAR P N 
 POSCAR found :  2 types and      16 ions
 scaLAPACK will be used
 LDA part: xc-table for Pade appr. of Perdew
 generate k-points for:    7    7    4
 POSCAR, INCAR and KPOINTS ok, starting setup
 FFT: planning ...
 WAVECAR not read
 entering main loop
       N       E                     dE             d eps       ncg     rms          rms(c)
DAV:   1     0.467130585009E+03    0.46713E+03   -0.39573E+04 12960   0.135E+03
DAV:   2    -0.973185265883E+02   -0.56445E+03   -0.54078E+03 16536   0.302E+02
DAV:   3    -0.136077233023E+03   -0.38759E+02   -0.38411E+02 16184   0.845E+01
DAV:   4    -0.136893587449E+03   -0.81635E+00   -0.81285E+00 16912   0.127E+01
DAV:   5    -0.136915403177E+03   -0.21816E-01   -0.21781E-01 16002   0.198E+00    0.432E+01
DAV:   6    -0.117603690109E+03    0.19312E+02   -0.67705E+01 15200   0.317E+01    0.213E+01
DAV:   7    -0.120186175106E+03   -0.25825E+01   -0.97569E+00 15806   0.115E+01    0.711E+00
DAV:   8    -0.120480884955E+03   -0.29471E+00   -0.77601E-01 15760   0.398E+00    0.427E+00
DAV:   9    -0.120489170887E+03   -0.82859E-02   -0.77829E-02 15620   0.147E+00    0.207E+00
DAV:  10    -0.120487702478E+03    0.14684E-02   -0.24841E-02 17324   0.832E-01    0.449E-01
DAV:  11    -0.120490105380E+03   -0.24029E-02   -0.54448E-03 15186   0.391E-01    0.257E-01
DAV:  12    -0.120490544354E+03   -0.43897E-03   -0.57195E-04 17314   0.130E-01    0.154E-01
DAV:  13    -0.120490791500E+03   -0.24715E-03   -0.24218E-04 15304   0.762E-02    0.596E-02
DAV:  14    -0.120490842968E+03   -0.51469E-04   -0.31057E-05 13282   0.280E-02    0.188E-02
DAV:  15    -0.120490854756E+03   -0.11788E-04   -0.10741E-05  9992   0.165E-02    0.102E-02
DAV:  16    -0.120490858228E+03   -0.34720E-05   -0.44827E-06  9034   0.914E-03
   1 F= -.12049086E+03 E0= -.12049086E+03  d E =0.000000E+00  mag=    -0.0005
