   16   16    1    2
  0.1429176E+02  0.4523050E-09  0.5593872E-09  0.1025075E-08  0.5000000E-15
  1.000000000000000E-004
  CAR 
 unknown system                          
     64     56     46
 
  0.0000000E+00  0.0000000E+00  0.0000000E+00  0.5952381E-02
    1      -40.626974    -40.626809   1.000000   1.000000
    2      -40.622341    -40.622176   1.000000   1.000000
    3      -40.618005    -40.617839   1.000000   1.000000
    4      -40.613195    -40.613029   1.000000   1.000000
    5      -40.610162    -40.609997   1.000000   1.000000
    6      -40.609699    -40.609534   1.000000   1.000000
    7      -40.606333    -40.606169   1.000000   1.000000
    8      -40.606175    -40.606012   1.000000   1.000000
    9       -8.791671     -8.791770   1.000000   1.000000
   10       -8.515613     -8.515740   1.000000   1.000000
   11       -5.901780     -5.901810   1.000000   1.000000
   12       -5.500456     -5.500502   1.000000   1.000000
   13       -5.266987     -5.267072   1.000000   1.000000
   14       -5.230033     -5.230093   1.000000   1.000000
   15       -1.646765     -1.646657   1.000000   1.000000
   16       -1.358382     -1.358352   1.000000   1.000000
   17       -0.623252     -0.623196   1.000000   1.000000
   18        0.093702      0.093812   1.000000   1.000000
   19        0.167059      0.167027   1.000000   1.000000
   20        0.545306      0.545321   1.000000   1.000000
   21        1.191624      1.191535   1.000000   1.000000
   22        1.492166      1.492078   1.000000   1.000000
   23        1.670043      1.669938   1.000000   1.000000
   24        1.907685      1.907713   1.000000   1.000000
   25        2.591182      2.591177   1.000000   1.000000
   26        2.800876      2.801076   1.000000   1.000000
   27        3.198985      3.198911   1.000000   1.000000
   28        3.376590      3.376656   1.000000   1.000000
   29        3.865392      3.865456   1.000000   1.000000
   30        4.249434      4.249484   1.000000   1.000000
   31        4.275908      4.275963   1.000000   1.000000
   32        4.910436      4.910468   1.000000   1.000000
   33        6.316966      6.317134   0.000000   0.000000
   34        6.710684      6.710816   0.000000   0.000000
   35        6.733509      6.733631   0.000000   0.000000
   36        7.442095      7.442119   0.000000   0.000000
   37        7.743521      7.743608   0.000000   0.000000
   38        8.385174      8.385219   0.000000   0.000000
   39        8.658697      8.658815   0.000000   0.000000
   40        8.696611      8.696749   0.000000   0.000000
   41        9.220331      9.220493   0.000000   0.000000
   42        9.327361      9.327481   0.000000   0.000000
   43        9.733283      9.733362   0.000000   0.000000
   44        9.774186      9.774288   0.000000   0.000000
   45        9.959909      9.959997   0.000000   0.000000
   46       10.354656     10.384082   0.000000   0.000000
 
  0.1428571E+00  0.0000000E+00  0.0000000E+00  0.1190476E-01
    1      -40.626222    -40.626057   1.000000   1.000000
    2      -40.621808    -40.621644   1.000000   1.000000
    3      -40.617709    -40.617543   1.000000   1.000000
    4      -40.613315    -40.613150   1.000000   1.000000
    5      -40.611133    -40.610968   1.000000   1.000000
    6      -40.611070    -40.610905   1.000000   1.000000
    7      -40.605790    -40.605627   1.000000   1.000000
    8      -40.605541    -40.605377   1.000000   1.000000
    9       -8.700782     -8.700880   1.000000   1.000000
   10       -8.428553     -8.428678   1.000000   1.000000
   11       -6.219700     -6.219753   1.000000   1.000000
   12       -6.057771     -6.057838   1.000000   1.000000
   13       -4.948058     -4.948100   1.000000   1.000000
   14       -4.727567     -4.727629   1.000000   1.000000
   15       -2.012450     -2.012394   1.000000   1.000000
   16       -1.499646     -1.499621   1.000000   1.000000
   17       -0.517089     -0.517012   1.000000   1.000000
   18        0.171034      0.171135   1.000000   1.000000
   19        0.338845      0.338808   1.000000   1.000000
   20        0.438074      0.438070   1.000000   1.000000
   21        0.841677      0.841572   1.000000   1.000000
   22        1.518870      1.518878   1.000000   1.000000
   23        1.762806      1.762787   1.000000   1.000000
   24        1.937151      1.937143   1.000000   1.000000
   25        2.801656      2.801639   1.000000   1.000000
   26        2.987060      2.987222   1.000000   1.000000
   27        3.042019      3.041995   1.000000   1.000000
   28        3.424087      3.424122   1.000000   1.000000
   29        3.748209      3.748338   1.000000   1.000000
   30        3.822196      3.822260   1.000000   1.000000
   31        4.105678      4.105680   1.000000   1.000000
   32        4.962609      4.962633   1.000000   1.000000
   33        6.495296      6.495466   0.000000   0.000000
   34        6.856786      6.856895   0.000000   0.000000
   35        7.322535      7.322633   0.000000   0.000000
   36        7.424788      7.424888   0.000000   0.000000
   37        8.053429      8.053515   0.000000   0.000000
   38        8.122693      8.122794   0.000000   0.000000
   39        8.301725      8.301842   0.000000   0.000000
   40        9.176615      9.176766   0.000000   0.000000
   41        9.230581      9.230718   0.000000   0.000000
   42        9.535326      9.535522   0.000000   0.000000
   43        9.649714      9.649859   0.000000   0.000000
   44        9.853217      9.853274   0.000000   0.000000
   45       10.065887     10.066121   0.000000   0.000000
   46       10.389286     10.392285   0.000000   0.000000
 
  0.2857143E+00  0.0000000E+00  0.0000000E+00  0.1190476E-01
    1      -40.624140    -40.623975   1.000000   1.000000
    2      -40.620417    -40.620252   1.000000   1.000000
    3      -40.616928    -40.616762   1.000000   1.000000
    4      -40.613971    -40.613806   1.000000   1.000000
    5      -40.613792    -40.613626   1.000000   1.000000
    6      -40.613231    -40.613066   1.000000   1.000000
    7      -40.604982    -40.604818   1.000000   1.000000
    8      -40.604773    -40.604609   1.000000   1.000000
    9       -8.433024     -8.433119   1.000000   1.000000
   10       -8.173839     -8.173958   1.000000   1.000000
   11       -6.808896     -6.808969   1.000000   1.000000
   12       -6.684018     -6.684097   1.000000   1.000000
   13       -4.463257     -4.463280   1.000000   1.000000
   14       -4.095351     -4.095406   1.000000   1.000000
   15       -2.626540     -2.626516   1.000000   1.000000
   16       -2.074144     -2.074155   1.000000   1.000000
   17       -0.112319     -0.112217   1.000000   1.000000
   18        0.128118      0.128048   1.000000   1.000000
   19        0.389953      0.390014   1.000000   1.000000
   20        0.623831      0.623711   1.000000   1.000000
   21        0.880535      0.880564   1.000000   1.000000
   22        1.003214      1.003194   1.000000   1.000000
   23        1.796967      1.797043   1.000000   1.000000
   24        1.861697      1.861773   1.000000   1.000000
   25        2.377782      2.377797   1.000000   1.000000
   26        2.873061      2.873243   1.000000   1.000000
   27        3.107077      3.107131   1.000000   1.000000
   28        3.314748      3.314860   1.000000   1.000000
   29        3.816333      3.816340   1.000000   1.000000
   30        3.934896      3.934930   1.000000   1.000000
   31        4.070903      4.070893   1.000000   1.000000
   32        5.030450      5.030469   1.000000   1.000000
   33        6.719915      6.720076   0.000000   0.000000
   34        7.151789      7.151943   0.000000   0.000000
   35        7.292218      7.292424   0.000000   0.000000
   36        7.924462      7.924536   0.000000   0.000000
   37        8.030298      8.030430   0.000000   0.000000
   38        8.616063      8.616199   0.000000   0.000000
   39        8.731039      8.731142   0.000000   0.000000
   40        9.154990      9.155126   0.000000   0.000000
   41        9.169843      9.169984   0.000000   0.000000
   42        9.362877      9.363089   0.000000   0.000000
   43       10.288719     10.288762   0.000000   0.000000
   44       10.392859     10.392946   0.000000   0.000000
   45       10.605276     10.605548   0.000000   0.000000
   46       10.785283     10.786546   0.000000   0.000000
 
  0.4285714E+00  0.0000000E+00  0.0000000E+00  0.1190476E-01
    1      -40.621079    -40.620914   1.000000   1.000000
    2      -40.618471    -40.618306   1.000000   1.000000
    3      -40.617331    -40.617165   1.000000   1.000000
    4      -40.616237    -40.616071   1.000000   1.000000
    5      -40.615246    -40.615081   1.000000   1.000000
    6      -40.614592    -40.614426   1.000000   1.000000
    7      -40.604489    -40.604326   1.000000   1.000000
    8      -40.604413    -40.604249   1.000000   1.000000
    9       -8.004168     -8.004258   1.000000   1.000000
   10       -7.771970     -7.772079   1.000000   1.000000
   11       -7.444555     -7.444638   1.000000   1.000000
   12       -7.259593     -7.259689   1.000000   1.000000
   13       -3.904746     -3.904754   1.000000   1.000000
   14       -3.441242     -3.441288   1.000000   1.000000
   15       -3.282209     -3.282204   1.000000   1.000000
   16       -2.758367     -2.758399   1.000000   1.000000
   17        0.151179      0.151110   1.000000   1.000000
   18        0.250879      0.250894   1.000000   1.000000
   19        0.588369      0.588333   1.000000   1.000000
   20        0.602752      0.602639   1.000000   1.000000
   21        0.787793      0.787835   1.000000   1.000000
   22        1.278713      1.278823   1.000000   1.000000
   23        1.306155      1.306221   1.000000   1.000000
   24        1.661535      1.661601   1.000000   1.000000
   25        2.044094      2.044200   1.000000   1.000000
   26        2.206417      2.206612   1.000000   1.000000
   27        3.147462      3.147556   1.000000   1.000000
   28        3.359468      3.359565   1.000000   1.000000
   29        3.823339      3.823368   1.000000   1.000000
   30        4.012183      4.012203   1.000000   1.000000
   31        4.737703      4.737711   1.000000   1.000000
   32        5.002829      5.002853   1.000000   1.000000
   33        7.044105      7.044242   0.000000   0.000000
   34        7.212699      7.212885   0.000000   0.000000
   35        7.322610      7.322846   0.000000   0.000000
   36        7.636447      7.636668   0.000000   0.000000
   37        8.275804      8.276002   0.000000   0.000000
   38        8.714401      8.714613   0.000000   0.000000
   39        9.163325      9.163386   0.000000   0.000000
   40        9.469407      9.469512   0.000000   0.000000
   41        9.499369      9.499449   0.000000   0.000000
   42       10.139534     10.139622   0.000000   0.000000
   43       10.305817     10.305812   0.000000   0.000000
   44       11.062145     11.062138   0.000000   0.000000
   45       11.065452     11.065441   0.000000   0.000000
   46       11.232510     11.231758   0.000000   0.000000
 
  0.0000000E+00  0.1666667E+00 -0.2845537E-16  0.1190476E-01
    1      -40.625996    -40.625831   1.000000   1.000000
    2      -40.622452    -40.622287   1.000000   1.000000
    3      -40.617199    -40.617034   1.000000   1.000000
    4      -40.613923    -40.613758   1.000000   1.000000
    5      -40.611536    -40.611371   1.000000   1.000000
    6      -40.611479    -40.611314   1.000000   1.000000
    7      -40.605198    -40.605034   1.000000   1.000000
    8      -40.604955    -40.604791   1.000000   1.000000
    9       -8.746277     -8.746382   1.000000   1.000000
   10       -8.529350     -8.529476   1.000000   1.000000
   11       -5.817688     -5.817723   1.000000   1.000000
   12       -5.551881     -5.551921   1.000000   1.000000
   13       -5.429272     -5.429337   1.000000   1.000000
   14       -5.258767     -5.258826   1.000000   1.000000
   15       -1.547339     -1.547250   1.000000   1.000000
   16       -1.211457     -1.211434   1.000000   1.000000
   17       -0.595055     -0.595015   1.000000   1.000000
   18       -0.153862     -0.153849   1.000000   1.000000
   19        0.167187      0.167302   1.000000   1.000000
   20        0.725372      0.725363   1.000000   1.000000
   21        1.085384      1.085322   1.000000   1.000000
   22        1.471444      1.471362   1.000000   1.000000
   23        1.693980      1.693896   1.000000   1.000000
   24        1.844590      1.844583   1.000000   1.000000
   25        2.463863      2.463859   1.000000   1.000000
   26        3.015606      3.015758   1.000000   1.000000
   27        3.112386      3.112324   1.000000   1.000000
   28        3.685825      3.685883   1.000000   1.000000
   29        4.000534      4.000607   1.000000   1.000000
   30        4.143052      4.143089   1.000000   1.000000
   31        4.282818      4.282853   1.000000   1.000000
   32        4.765135      4.765205   1.000000   1.000000
   33        6.463072      6.463231   0.000000   0.000000
   34        6.741490      6.741595   0.000000   0.000000
   35        6.796601      6.796722   0.000000   0.000000
   36        7.648438      7.648583   0.000000   0.000000
   37        7.730919      7.730925   0.000000   0.000000
   38        7.909964      7.910025   0.000000   0.000000
   39        8.672446      8.672529   0.000000   0.000000
   40        8.769450      8.769577   0.000000   0.000000
   41        9.396179      9.396325   0.000000   0.000000
   42        9.520389      9.520616   0.000000   0.000000
   43        9.705398      9.705630   0.000000   0.000000
   44        9.721838      9.721873   0.000000   0.000000
   45        9.846516      9.846578   0.000000   0.000000
   46       10.286630     10.285383   0.000000   0.000000
 
  0.1428571E+00  0.1666667E+00 -0.2845537E-16  0.2380952E-01
    1      -40.625417    -40.625251   1.000000   1.000000
    2      -40.621824    -40.621659   1.000000   1.000000
    3      -40.616993    -40.616827   1.000000   1.000000
    4      -40.614009    -40.613843   1.000000   1.000000
    5      -40.613529    -40.613365   1.000000   1.000000
    6      -40.610338    -40.610173   1.000000   1.000000
    7      -40.606280    -40.606117   1.000000   1.000000
    8      -40.604203    -40.604039   1.000000   1.000000
    9       -8.655774     -8.655878   1.000000   1.000000
   10       -8.443200     -8.443324   1.000000   1.000000
   11       -6.183749     -6.183805   1.000000   1.000000
   12       -6.095612     -6.095677   1.000000   1.000000
   13       -5.035092     -5.035124   1.000000   1.000000
   14       -4.789175     -4.789224   1.000000   1.000000
   15       -1.912501     -1.912450   1.000000   1.000000
   16       -1.513909     -1.513896   1.000000   1.000000
   17       -0.411488     -0.411424   1.000000   1.000000
   18       -0.027896     -0.027845   1.000000   1.000000
   19        0.197692      0.197734   1.000000   1.000000
   20        0.773474      0.773452   1.000000   1.000000
   21        0.839576      0.839500   1.000000   1.000000
   22        1.399281      1.399255   1.000000   1.000000
   23        1.662348      1.662357   1.000000   1.000000
   24        1.994138      1.994122   1.000000   1.000000
   25        2.582394      2.582460   1.000000   1.000000
   26        2.992073      2.992024   1.000000   1.000000
   27        3.212565      3.212656   1.000000   1.000000
   28        3.775264      3.775304   1.000000   1.000000
   29        3.812511      3.812584   1.000000   1.000000
   30        3.984940      3.985006   1.000000   1.000000
   31        4.053290      4.053295   1.000000   1.000000
   32        4.997031      4.997064   1.000000   1.000000
   33        6.578703      6.578866   0.000000   0.000000
   34        6.807839      6.807954   0.000000   0.000000
   35        7.190578      7.190680   0.000000   0.000000
   36        7.522651      7.522772   0.000000   0.000000
   37        7.603390      7.603549   0.000000   0.000000
   38        8.123362      8.123440   0.000000   0.000000
   39        8.620004      8.620127   0.000000   0.000000
   40        8.977238      8.977355   0.000000   0.000000
   41        9.339672      9.339741   0.000000   0.000000
   42        9.531156      9.531342   0.000000   0.000000
   43        9.846043      9.846194   0.000000   0.000000
   44        9.989807      9.989924   0.000000   0.000000
   45       10.059569     10.059633   0.000000   0.000000
   46       10.323578     10.323562   0.000000   0.000000
 
  0.2857143E+00  0.1666667E+00 -0.2845537E-16  0.2380952E-01
    1      -40.623824    -40.623658   1.000000   1.000000
    2      -40.620040    -40.619875   1.000000   1.000000
    3      -40.616755    -40.616590   1.000000   1.000000
    4      -40.615606    -40.615441   1.000000   1.000000
    5      -40.614295    -40.614129   1.000000   1.000000
    6      -40.611350    -40.611185   1.000000   1.000000
    7      -40.606280    -40.606117   1.000000   1.000000
    8      -40.604024    -40.603860   1.000000   1.000000
    9       -8.389489     -8.389588   1.000000   1.000000
   10       -8.191657     -8.191775   1.000000   1.000000
   11       -6.761136     -6.761212   1.000000   1.000000
   12       -6.726685     -6.726761   1.000000   1.000000
   13       -4.503766     -4.503785   1.000000   1.000000
   14       -4.190049     -4.190089   1.000000   1.000000
   15       -2.550335     -2.550314   1.000000   1.000000
   16       -2.180138     -2.180144   1.000000   1.000000
   17       -0.230464     -0.230445   1.000000   1.000000
   18        0.116969      0.117032   1.000000   1.000000
   19        0.415722      0.415709   1.000000   1.000000
   20        0.689291      0.689241   1.000000   1.000000
   21        0.839610      0.839591   1.000000   1.000000
   22        1.040889      1.040868   1.000000   1.000000
   23        1.694665      1.694751   1.000000   1.000000
   24        1.988593      1.988654   1.000000   1.000000
   25        2.520192      2.520255   1.000000   1.000000
   26        2.822365      2.822452   1.000000   1.000000
   27        3.294953      3.295035   1.000000   1.000000
   28        3.683492      3.683538   1.000000   1.000000
   29        3.724943      3.724997   1.000000   1.000000
   30        3.836463      3.836491   1.000000   1.000000
   31        4.200725      4.200722   1.000000   1.000000
   32        5.156365      5.156375   1.000000   1.000000
   33        6.806136      6.806285   0.000000   0.000000
   34        7.200983      7.201126   0.000000   0.000000
   35        7.517571      7.517765   0.000000   0.000000
   36        7.652951      7.653109   0.000000   0.000000
   37        8.028427      8.028495   0.000000   0.000000
   38        8.336971      8.337105   0.000000   0.000000
   39        8.790439      8.790577   0.000000   0.000000
   40        9.008296      9.008515   0.000000   0.000000
   41        9.338602      9.338640   0.000000   0.000000
   42        9.611931      9.612049   0.000000   0.000000
   43       10.167592     10.167779   0.000000   0.000000
   44       10.257424     10.257619   0.000000   0.000000
   45       10.370203     10.370368   0.000000   0.000000
   46       10.616927     10.616419   0.000000   0.000000
 
  0.4285714E+00  0.1666667E+00 -0.2845537E-16  0.2380952E-01
    1      -40.621504    -40.621339   1.000000   1.000000
    2      -40.618892    -40.618727   1.000000   1.000000
    3      -40.617423    -40.617258   1.000000   1.000000
    4      -40.615403    -40.615237   1.000000   1.000000
    5      -40.614938    -40.614773   1.000000   1.000000
    6      -40.613845    -40.613680   1.000000   1.000000
    7      -40.605334    -40.605170   1.000000   1.000000
    8      -40.604465    -40.604301   1.000000   1.000000
    9       -7.965435     -7.965529   1.000000   1.000000
   10       -7.800379     -7.800486   1.000000   1.000000
   11       -7.394673     -7.394760   1.000000   1.000000
   12       -7.281958     -7.282053   1.000000   1.000000
   13       -3.908143     -3.908151   1.000000   1.000000
   14       -3.569794     -3.569824   1.000000   1.000000
   15       -3.230666     -3.230663   1.000000   1.000000
   16       -2.881072     -2.881092   1.000000   1.000000
   17       -0.131896     -0.131909   1.000000   1.000000
   18        0.202499      0.202474   1.000000   1.000000
   19        0.410483      0.410455   1.000000   1.000000
   20        0.586797      0.586757   1.000000   1.000000
   21        0.907330      0.907380   1.000000   1.000000
   22        1.432824      1.432835   1.000000   1.000000
   23        1.494027      1.494102   1.000000   1.000000
   24        1.689261      1.689319   1.000000   1.000000
   25        2.386777      2.386859   1.000000   1.000000
   26        2.606686      2.606823   1.000000   1.000000
   27        3.066807      3.066910   1.000000   1.000000
   28        3.370024      3.370113   1.000000   1.000000
   29        3.765100      3.765160   1.000000   1.000000
   30        3.863672      3.863717   1.000000   1.000000
   31        4.810488      4.810491   1.000000   1.000000
   32        5.126822      5.126828   1.000000   1.000000
   33        7.171710      7.171853   0.000000   0.000000
   34        7.432150      7.432331   0.000000   0.000000
   35        7.848931      7.849121   0.000000   0.000000
   36        8.011472      8.011576   0.000000   0.000000
   37        8.350752      8.350915   0.000000   0.000000
   38        8.712859      8.713063   0.000000   0.000000
   39        8.954552      8.954748   0.000000   0.000000
   40        9.165529      9.165616   0.000000   0.000000
   41        9.352442      9.352621   0.000000   0.000000
   42        9.545277      9.545343   0.000000   0.000000
   43        9.754523      9.754679   0.000000   0.000000
   44       10.331426     10.331635   0.000000   0.000000
   45       10.703445     10.703576   0.000000   0.000000
   46       11.180230     11.180734   0.000000   0.000000
 
  0.0000000E+00  0.3333333E+00 -0.4096822E-16  0.1190476E-01
    1      -40.623409    -40.623244   1.000000   1.000000
    2      -40.622038    -40.621872   1.000000   1.000000
    3      -40.617015    -40.616850   1.000000   1.000000
    4      -40.615614    -40.615448   1.000000   1.000000
    5      -40.613973    -40.613808   1.000000   1.000000
    6      -40.613087    -40.612921   1.000000   1.000000
    7      -40.604223    -40.604059   1.000000   1.000000
    8      -40.603373    -40.603209   1.000000   1.000000
    9       -8.646200     -8.646318   1.000000   1.000000
   10       -8.554960     -8.555086   1.000000   1.000000
   11       -5.779780     -5.779798   1.000000   1.000000
   12       -5.763901     -5.763930   1.000000   1.000000
   13       -5.491102     -5.491162   1.000000   1.000000
   14       -5.281712     -5.281770   1.000000   1.000000
   15       -1.608159     -1.608080   1.000000   1.000000
   16       -0.905845     -0.905833   1.000000   1.000000
   17       -0.648557     -0.648508   1.000000   1.000000
   18       -0.322925     -0.322896   1.000000   1.000000
   19        0.429741      0.429815   1.000000   1.000000
   20        0.764306      0.764285   1.000000   1.000000
   21        1.175057      1.174999   1.000000   1.000000
   22        1.307333      1.307278   1.000000   1.000000
   23        1.807368      1.807326   1.000000   1.000000
   24        1.809980      1.809954   1.000000   1.000000
   25        2.249194      2.249209   1.000000   1.000000
   26        3.033926      3.033879   1.000000   1.000000
   27        3.511738      3.511801   1.000000   1.000000
   28        3.543775      3.543878   1.000000   1.000000
   29        3.903863      3.903856   1.000000   1.000000
   30        4.278447      4.278490   1.000000   1.000000
   31        4.387639      4.387669   1.000000   1.000000
   32        4.698240      4.698316   1.000000   1.000000
   33        6.738587      6.738708   0.000000   0.000000
   34        6.772226      6.772358   0.000000   0.000000
   35        6.884327      6.884493   0.000000   0.000000
   36        6.999181      6.999296   0.000000   0.000000
   37        7.958376      7.958463   0.000000   0.000000
   38        8.463171      8.463127   0.000000   0.000000
   39        8.800824      8.800891   0.000000   0.000000
   40        8.824555      8.824694   0.000000   0.000000
   41        9.167551      9.167907   0.000000   0.000000
   42        9.267989      9.268090   0.000000   0.000000
   43        9.672303      9.672332   0.000000   0.000000
   44       10.014628     10.014796   0.000000   0.000000
   45       10.092174     10.092527   0.000000   0.000000
   46       10.189218     10.189354   0.000000   0.000000
 
  0.1428571E+00  0.3333333E+00 -0.4096822E-16  0.2380952E-01
    1      -40.623480    -40.623315   1.000000   1.000000
    2      -40.620928    -40.620763   1.000000   1.000000
    3      -40.617673    -40.617509   1.000000   1.000000
    4      -40.615297    -40.615131   1.000000   1.000000
    5      -40.614201    -40.614036   1.000000   1.000000
    6      -40.612482    -40.612317   1.000000   1.000000
    7      -40.605012    -40.604848   1.000000   1.000000
    8      -40.603436    -40.603272   1.000000   1.000000
    9       -8.557058     -8.557174   1.000000   1.000000
   10       -8.469582     -8.469705   1.000000   1.000000
   11       -6.290609     -6.290654   1.000000   1.000000
   12       -6.020533     -6.020602   1.000000   1.000000
   13       -5.247058     -5.247069   1.000000   1.000000
   14       -4.790406     -4.790451   1.000000   1.000000
   15       -1.870939     -1.870889   1.000000   1.000000
   16       -1.552673     -1.552660   1.000000   1.000000
   17       -0.439390     -0.439321   1.000000   1.000000
   18       -0.056698     -0.056666   1.000000   1.000000
   19        0.295701      0.295716   1.000000   1.000000
   20        0.739033      0.738964   1.000000   1.000000
   21        1.136358      1.136353   1.000000   1.000000
   22        1.248283      1.248272   1.000000   1.000000
   23        1.611624      1.611658   1.000000   1.000000
   24        2.023438      2.023401   1.000000   1.000000
   25        2.568069      2.568113   1.000000   1.000000
   26        2.986098      2.986065   1.000000   1.000000
   27        3.543394      3.543459   1.000000   1.000000
   28        3.747522      3.747533   1.000000   1.000000
   29        3.946532      3.946530   1.000000   1.000000
   30        3.981834      3.981897   1.000000   1.000000
   31        4.384290      4.384326   1.000000   1.000000
   32        4.834732      4.834798   1.000000   1.000000
   33        6.780496      6.780638   0.000000   0.000000
   34        6.837533      6.837663   0.000000   0.000000
   35        7.201492      7.201600   0.000000   0.000000
   36        7.259663      7.259797   0.000000   0.000000
   37        7.900369      7.900458   0.000000   0.000000
   38        8.413668      8.413777   0.000000   0.000000
   39        8.599835      8.600037   0.000000   0.000000
   40        8.839297      8.839333   0.000000   0.000000
   41        9.279838      9.280014   0.000000   0.000000
   42        9.387929      9.388051   0.000000   0.000000
   43        9.478169      9.478379   0.000000   0.000000
   44       10.049027     10.049113   0.000000   0.000000
   45       10.166888     10.167340   0.000000   0.000000
   46       10.615861     10.659987   0.000000   0.000000
 
  0.2857143E+00  0.3333333E+00 -0.4096822E-16  0.2380952E-01
    1      -40.622988    -40.622823   1.000000   1.000000
    2      -40.619128    -40.618963   1.000000   1.000000
    3      -40.618381    -40.618217   1.000000   1.000000
    4      -40.615115    -40.614950   1.000000   1.000000
    5      -40.614355    -40.614190   1.000000   1.000000
    6      -40.611605    -40.611440   1.000000   1.000000
    7      -40.606428    -40.606265   1.000000   1.000000
    8      -40.604113    -40.603949   1.000000   1.000000
    9       -8.296529     -8.296639   1.000000   1.000000
   10       -8.219446     -8.219564   1.000000   1.000000
   11       -6.830233     -6.830301   1.000000   1.000000
   12       -6.661626     -6.661709   1.000000   1.000000
   13       -4.680487     -4.680487   1.000000   1.000000
   14       -4.219049     -4.219082   1.000000   1.000000
   15       -2.445014     -2.445005   1.000000   1.000000
   16       -2.389309     -2.389291   1.000000   1.000000
   17       -0.395416     -0.395401   1.000000   1.000000
   18       -0.008446     -0.008384   1.000000   1.000000
   19        0.440967      0.440958   1.000000   1.000000
   20        0.599827      0.599764   1.000000   1.000000
   21        0.969524      0.969562   1.000000   1.000000
   22        1.038760      1.038756   1.000000   1.000000
   23        1.787984      1.788046   1.000000   1.000000
   24        2.159445      2.159458   1.000000   1.000000
   25        2.802063      2.802101   1.000000   1.000000
   26        3.054336      3.054385   1.000000   1.000000
   27        3.421515      3.421578   1.000000   1.000000
   28        3.504530      3.504586   1.000000   1.000000
   29        3.966215      3.966248   1.000000   1.000000
   30        4.199265      4.199255   1.000000   1.000000
   31        4.528110      4.528104   1.000000   1.000000
   32        5.218681      5.218692   1.000000   1.000000
   33        6.889966      6.890111   0.000000   0.000000
   34        7.130854      7.131008   0.000000   0.000000
   35        7.524234      7.524387   0.000000   0.000000
   36        7.803671      7.803788   0.000000   0.000000
   37        8.148900      8.149003   0.000000   0.000000
   38        8.442697      8.442881   0.000000   0.000000
   39        8.510772      8.510941   0.000000   0.000000
   40        8.876439      8.876575   0.000000   0.000000
   41        9.024651      9.024750   0.000000   0.000000