 running on   12 total cores
 distrk:  each k-point on   12 cores,    1 groups
 distr:  one band on    6 cores,    2 groups
 using from now: INCAR     
 vasp.6.1.2 22Jul20 (build Mar 20 2021 11:25:07) complex                        
  
 POSCAR found type information on POSCAR LiP 
 POSCAR found :  2 types and      16 ions
 scaLAPACK will be used
 LDA part: xc-table for Pade appr. of Perdew
 generate k-points for:    7    6    4
 POSCAR, INCAR and KPOINTS ok, starting setup
 FFT: planning ...
 WAVECAR not read
 entering main loop
       N       E                     dE             d eps       ncg     rms          rms(c)
DAV:   1     0.411552394072E+03    0.41155E+03   -0.26232E+04 10304   0.139E+03
DAV:   2    -0.234083115403E+01   -0.41389E+03   -0.38065E+03 11598   0.335E+02
DAV:   3    -0.547960821881E+02   -0.52455E+02   -0.51786E+02 14768   0.918E+01
DAV:   4    -0.627374969944E+02   -0.79414E+01   -0.78684E+01 17816   0.343E+01
DAV:   5    -0.634003028764E+02   -0.66281E+00   -0.66249E+00 14618   0.786E+00    0.220E+01
DAV:   6    -0.646912976741E+02   -0.12910E+01   -0.28298E+00 13684   0.686E+00    0.119E+01
DAV:   7    -0.659747609090E+02   -0.12835E+01   -0.78147E-01 12550   0.439E+00    0.656E+00
DAV:   8    -0.661968606388E+02   -0.22210E+00   -0.66453E-01 13362   0.312E+00    0.133E+00
DAV:   9    -0.662313266478E+02   -0.34466E-01   -0.79258E-02 15440   0.117E+00    0.549E-01
DAV:  10    -0.662356678462E+02   -0.43412E-02   -0.64782E-03 13458   0.375E-01    0.223E-01
DAV:  11    -0.662371861776E+02   -0.15183E-02   -0.21870E-03 12544   0.214E-01    0.928E-02
DAV:  12    -0.662374273638E+02   -0.24119E-03   -0.62187E-04 13656   0.113E-01    0.397E-02
DAV:  13    -0.662374678844E+02   -0.40521E-04   -0.96698E-05 13424   0.520E-02    0.210E-02
DAV:  14    -0.662374778175E+02   -0.99331E-05   -0.16202E-05  8616   0.233E-02
   1 F= -.66237478E+02 E0= -.66237478E+02  d E =0.000000E+00  mag=    -0.0003
