   14   14    1    2
  0.1302245E+02  0.8967202E-09  0.8745663E-09  0.4937041E-09  0.5000000E-15
  1.000000000000000E-004
  CAR 
 unknown system                          
     80    172     52
 
  0.0000000E+00  0.0000000E+00  0.0000000E+00  0.2915452E-02
    1      -22.323053    -22.322922   1.000000   1.000000
    2      -21.499454    -21.499333   1.000000   1.000000
    3      -20.755532    -20.755405   1.000000   1.000000
    4      -19.425240    -19.425154   1.000000   1.000000
    5      -19.194766    -19.194685   1.000000   1.000000
    6      -19.095844    -19.095753   1.000000   1.000000
    7      -17.650563    -17.650457   1.000000   1.000000
    8      -17.276392    -17.276302   1.000000   1.000000
    9      -17.180800    -17.180710   1.000000   1.000000
   10      -17.022061    -17.021965   1.000000   1.000000
   11      -12.616191    -12.616033   1.000000   1.000000
   12      -10.912202    -10.912050   1.000000   1.000000
   13       -8.853644     -8.853496   1.000000   1.000000
   14       -7.638359     -7.638224   1.000000   1.000000
   15       -7.399746     -7.399613   1.000000   1.000000
   16       -7.152217     -7.152074   1.000000   1.000000
   17       -5.581058     -5.580923   1.000000   1.000000
   18       -5.292717     -5.292578   1.000000   1.000000
   19       -4.867774     -4.867610   1.000000   1.000000
   20       -3.998750     -3.998634   1.000000   1.000000
   21       -3.897104     -3.896971   1.000000   1.000000
   22       -3.776205     -3.776079   1.000000   1.000000
   23       -3.600821     -3.600703   1.000000   1.000000
   24       -3.539213     -3.539083   1.000000   1.000000
   25       -3.146673     -3.146570   1.000000   1.000000
   26       -2.922504     -2.922401   1.000000   1.000000
   27       -2.160251     -2.160150   1.000000   1.000000
   28       -1.839766     -1.839687   1.000000   1.000000
   29       -1.676569     -1.676502   1.000000   1.000000
   30       -1.563198     -1.563120   1.000000   1.000000
   31       -1.460568     -1.460496   1.000000   1.000000
   32       -1.088308     -1.088244   1.000000   1.000000
   33       -0.489845     -0.489745   1.000000   1.000000
   34       -0.433886     -0.433794   1.000000   1.000000
   35       -0.306236     -0.306145   1.000000   1.000000
   36       -0.247774     -0.247682   1.000000   1.000000
   37       -0.071832     -0.071739   1.000000   1.000000
   38       -0.024057     -0.023980   1.000000   1.000000
   39        0.040204      0.040285   1.000000   1.000000
   40        0.133890      0.133963   1.000000   1.000000
   41        5.677298      5.677466   0.000000   0.000000
   42        7.353729      7.353896   0.000000   0.000000
   43        7.427359      7.427595   0.000000   0.000000
   44        7.974757      7.975022   0.000000   0.000000
   45        8.348029      8.348292   0.000000   0.000000
   46        8.828537      8.828782   0.000000   0.000000
   47        9.087997      9.088287   0.000000   0.000000
   48        9.404950      9.405174   0.000000   0.000000
   49        9.602506      9.602731   0.000000   0.000000
   50        9.758265      9.758514   0.000000   0.000000
   51       10.235319     10.235623   0.000000   0.000000
   52       10.448923     10.448804   0.000000   0.000000
 
  0.1428571E+00 -0.5312154E-17  0.1133495E-14  0.5830904E-02
    1      -22.273885    -22.273755   1.000000   1.000000
    2      -21.519348    -21.519227   1.000000   1.000000
    3      -20.731215    -20.731090   1.000000   1.000000
    4      -19.554548    -19.554458   1.000000   1.000000
    5      -19.195784    -19.195702   1.000000   1.000000
    6      -19.093623    -19.093531   1.000000   1.000000
    7      -17.617180    -17.617077   1.000000   1.000000
    8      -17.275828    -17.275737   1.000000   1.000000
    9      -17.192575    -17.192484   1.000000   1.000000
   10      -17.020694    -17.020598   1.000000   1.000000
   11      -12.496177    -12.496019   1.000000   1.000000
   12      -10.873767    -10.873617   1.000000   1.000000
   13       -8.957713     -8.957566   1.000000   1.000000
   14       -7.685894     -7.685759   1.000000   1.000000
   15       -7.331653     -7.331520   1.000000   1.000000
   16       -7.128642     -7.128499   1.000000   1.000000
   17       -5.522392     -5.522256   1.000000   1.000000
   18       -5.222747     -5.222608   1.000000   1.000000
   19       -4.853985     -4.853824   1.000000   1.000000
   20       -4.137195     -4.137069   1.000000   1.000000
   21       -3.913210     -3.913081   1.000000   1.000000
   22       -3.810961     -3.810830   1.000000   1.000000
   23       -3.534137     -3.534021   1.000000   1.000000
   24       -3.481810     -3.481687   1.000000   1.000000
   25       -3.104497     -3.104397   1.000000   1.000000
   26       -2.985672     -2.985563   1.000000   1.000000
   27       -2.162894     -2.162795   1.000000   1.000000
   28       -1.897140     -1.897064   1.000000   1.000000
   29       -1.780434     -1.780357   1.000000   1.000000
   30       -1.625247     -1.625170   1.000000   1.000000
   31       -1.538063     -1.537990   1.000000   1.000000
   32       -1.129061     -1.128999   1.000000   1.000000
   33       -0.468338     -0.468237   1.000000   1.000000
   34       -0.403362     -0.403272   1.000000   1.000000
   35       -0.277796     -0.277705   1.000000   1.000000
   36       -0.230487     -0.230394   1.000000   1.000000
   37       -0.091437     -0.091349   1.000000   1.000000
   38       -0.045917     -0.045832   1.000000   1.000000
   39        0.038857      0.038938   1.000000   1.000000
   40        0.115888      0.115963   1.000000   1.000000
   41        5.871562      5.871739   0.000000   0.000000
   42        7.386062      7.386243   0.000000   0.000000
   43        7.626480      7.626713   0.000000   0.000000
   44        8.084176      8.084432   0.000000   0.000000
   45        8.454979      8.455226   0.000000   0.000000
   46        8.841539      8.841801   0.000000   0.000000
   47        9.118687      9.118965   0.000000   0.000000
   48        9.335419      9.335646   0.000000   0.000000
   49        9.541034      9.541279   0.000000   0.000000
   50        9.808045      9.808301   0.000000   0.000000
   51       10.201707     10.202397   0.000000   0.000000
   52       10.474762     10.479775   0.000000   0.000000
 
  0.2857143E+00  0.3720316E-16 -0.1427208E-14  0.5830904E-02
    1      -22.141629    -22.141500   1.000000   1.000000
    2      -21.578674    -21.578552   1.000000   1.000000
    3      -20.673852    -20.673730   1.000000   1.000000
    4      -19.824261    -19.824161   1.000000   1.000000
    5      -19.197224    -19.197142   1.000000   1.000000
    6      -19.095450    -19.095357   1.000000   1.000000
    7      -17.576578    -17.576481   1.000000   1.000000
    8      -17.272358    -17.272268   1.000000   1.000000
    9      -17.210868    -17.210776   1.000000   1.000000
   10      -17.016518    -17.016422   1.000000   1.000000
   11      -12.206534    -12.206377   1.000000   1.000000
   12      -10.781395    -10.781249   1.000000   1.000000
   13       -9.195932     -9.195785   1.000000   1.000000
   14       -7.794752     -7.794616   1.000000   1.000000
   15       -7.231198     -7.231067   1.000000   1.000000
   16       -7.024620     -7.024480   1.000000   1.000000
   17       -5.378307     -5.378169   1.000000   1.000000
   18       -5.050745     -5.050603   1.000000   1.000000
   19       -4.802940     -4.802787   1.000000   1.000000
   20       -4.307971     -4.307838   1.000000   1.000000
   21       -4.125997     -4.125864   1.000000   1.000000
   22       -3.881030     -3.880893   1.000000   1.000000
   23       -3.455805     -3.455690   1.000000   1.000000
   24       -3.341056     -3.340945   1.000000   1.000000
   25       -3.167281     -3.167172   1.000000   1.000000
   26       -2.916782     -2.916680   1.000000   1.000000
   27       -2.206558     -2.206467   1.000000   1.000000
   28       -2.117201     -2.117116   1.000000   1.000000
   29       -1.909115     -1.909035   1.000000   1.000000
   30       -1.836477     -1.836400   1.000000   1.000000
   31       -1.631907     -1.631831   1.000000   1.000000
   32       -1.205641     -1.205579   1.000000   1.000000
   33       -0.429584     -0.429485   1.000000   1.000000
   34       -0.361404     -0.361313   1.000000   1.000000
   35       -0.278739     -0.278653   1.000000   1.000000
   36       -0.208761     -0.208667   1.000000   1.000000
   37       -0.127181     -0.127093   1.000000   1.000000
   38       -0.011373     -0.011286   1.000000   1.000000
   39        0.048424      0.048506   1.000000   1.000000
   40        0.102289      0.102368   1.000000   1.000000
   41        6.235826      6.236029   0.000000   0.000000
   42        7.626843      7.627031   0.000000   0.000000
   43        7.946626      7.946875   0.000000   0.000000
   44        8.302619      8.302870   0.000000   0.000000
   45        8.712671      8.712914   0.000000   0.000000
   46        8.905372      8.905629   0.000000   0.000000
   47        9.229872      9.230129   0.000000   0.000000
   48        9.263028      9.263283   0.000000   0.000000
   49        9.494836      9.495084   0.000000   0.000000
   50        9.879131      9.879387   0.000000   0.000000
   51       10.081206     10.081444   0.000000   0.000000
   52       10.466773     10.466534   0.000000   0.000000
 
  0.4285714E+00 -0.2362014E-16 -0.3375989E-15  0.5830904E-02
    1      -21.987020    -21.986890   1.000000   1.000000
    2      -21.667233    -21.667110   1.000000   1.000000
    3      -20.620646    -20.620529   1.000000   1.000000
    4      -20.035913    -20.035806   1.000000   1.000000
    5      -19.198375    -19.198293   1.000000   1.000000
    6      -19.098916    -19.098823   1.000000   1.000000
    7      -17.568636    -17.568541   1.000000   1.000000
    8      -17.278902    -17.278811   1.000000   1.000000
    9      -17.209083    -17.208992   1.000000   1.000000
   10      -17.012227    -17.012131   1.000000   1.000000
   11      -11.946289    -11.946132   1.000000   1.000000
   12      -10.699771    -10.699628   1.000000   1.000000
   13       -9.405135     -9.404988   1.000000   1.000000
   14       -7.882402     -7.882265   1.000000   1.000000
   15       -7.185271     -7.185142   1.000000   1.000000
   16       -6.906125     -6.905988   1.000000   1.000000
   17       -5.238482     -5.238341   1.000000   1.000000
   18       -4.914130     -4.913987   1.000000   1.000000
   19       -4.678840     -4.678695   1.000000   1.000000
   20       -4.452896     -4.452761   1.000000   1.000000
   21       -4.328912     -4.328770   1.000000   1.000000
   22       -3.984427     -3.984289   1.000000   1.000000
   23       -3.468997     -3.468880   1.000000   1.000000
   24       -3.346979     -3.346864   1.000000   1.000000
   25       -3.118427     -3.118321   1.000000   1.000000
   26       -2.753631     -2.753535   1.000000   1.000000
   27       -2.368145     -2.368055   1.000000   1.000000
   28       -2.170381     -2.170300   1.000000   1.000000
   29       -2.130301     -2.130213   1.000000   1.000000
   30       -1.911614     -1.911535   1.000000   1.000000
   31       -1.714709     -1.714632   1.000000   1.000000
   32       -1.247877     -1.247814   1.000000   1.000000
   33       -0.451417     -0.451323   1.000000   1.000000
   34       -0.402988     -0.402892   1.000000   1.000000
   35       -0.256235     -0.256149   1.000000   1.000000
   36       -0.216367     -0.216275   1.000000   1.000000
   37       -0.051342     -0.051257   1.000000   1.000000
   38       -0.002120     -0.002029   1.000000   1.000000
   39        0.077314      0.077399   1.000000   1.000000
   40        0.115534      0.115611   1.000000   1.000000
   41        6.450595      6.450817   0.000000   0.000000
   42        7.885435      7.885675   0.000000   0.000000
   43        8.247388      8.247617   0.000000   0.000000
   44        8.436308      8.436568   0.000000   0.000000
   45        8.758304      8.758579   0.000000   0.000000
   46        9.149581      9.149860   0.000000   0.000000
   47        9.272918      9.273155   0.000000   0.000000
   48        9.397473      9.397697   0.000000   0.000000
   49        9.490800      9.491049   0.000000   0.000000
   50        9.845854      9.846068   0.000000   0.000000
   51       10.023587     10.023788   0.000000   0.000000
   52       10.403071     10.411060   0.000000   0.000000
 
 -0.4582901E-17  0.1428571E+00 -0.2438156E-14  0.5830904E-02
    1      -22.281028    -22.280898   1.000000   1.000000
    2      -21.483340    -21.483220   1.000000   1.000000
    3      -20.787329    -20.787202   1.000000   1.000000
    4      -19.481376    -19.481288   1.000000   1.000000
    5      -19.203882    -19.203798   1.000000   1.000000
    6      -19.130584    -19.130492   1.000000   1.000000
    7      -17.617244    -17.617142   1.000000   1.000000
    8      -17.276675    -17.276584   1.000000   1.000000
    9      -17.193195    -17.193104   1.000000   1.000000
   10      -17.019834    -17.019738   1.000000   1.000000
   11      -12.506640    -12.506482   1.000000   1.000000
   12      -10.847916    -10.847765   1.000000   1.000000
   13       -8.980923     -8.980777   1.000000   1.000000
   14       -7.686841     -7.686705   1.000000   1.000000
   15       -7.339184     -7.339052   1.000000   1.000000
   16       -7.114137     -7.113995   1.000000   1.000000
   17       -5.518537     -5.518402   1.000000   1.000000
   18       -5.216551     -5.216412   1.000000   1.000000
   19       -4.865422     -4.865260   1.000000   1.000000
   20       -4.154264     -4.154135   1.000000   1.000000
   21       -3.878406     -3.878281   1.000000   1.000000
   22       -3.776300     -3.776168   1.000000   1.000000
   23       -3.575537     -3.575423   1.000000   1.000000
   24       -3.465587     -3.465465   1.000000   1.000000
   25       -3.168062     -3.167959   1.000000   1.000000
   26       -2.941923     -2.941817   1.000000   1.000000
   27       -2.178018     -2.177920   1.000000   1.000000
   28       -1.900020     -1.899939   1.000000   1.000000
   29       -1.780767     -1.780693   1.000000   1.000000
   30       -1.623748     -1.623670   1.000000   1.000000
   31       -1.534129     -1.534057   1.000000   1.000000
   32       -1.123896     -1.123833   1.000000   1.000000
   33       -0.467190     -0.467090   1.000000   1.000000
   34       -0.413892     -0.413800   1.000000   1.000000
   35       -0.262677     -0.262588   1.000000   1.000000
   36       -0.246637     -0.246545   1.000000   1.000000
   37       -0.067159     -0.067071   1.000000   1.000000
   38       -0.036990     -0.036905   1.000000   1.000000
   39        0.021794      0.021875   1.000000   1.000000
   40        0.114453      0.114528   1.000000   1.000000
   41        5.888357      5.888533   0.000000   0.000000
   42        7.331073      7.331261   0.000000   0.000000
   43        7.635216      7.635438   0.000000   0.000000
   44        8.129870      8.130128   0.000000   0.000000
   45        8.462720      8.462980   0.000000   0.000000
   46        8.819298      8.819557   0.000000   0.000000
   47        9.101712      9.101986   0.000000   0.000000
   48        9.302844      9.303079   0.000000   0.000000
   49        9.622100      9.622332   0.000000   0.000000
   50        9.806204      9.806440   0.000000   0.000000
   51       10.073645     10.073922   0.000000   0.000000
   52       10.545796     10.546533   0.000000   0.000000
 
  0.1428571E+00  0.1428571E+00 -0.1313367E-14  0.5830904E-02
    1      -22.306373    -22.306243   1.000000   1.000000
    2      -21.570992    -21.570869   1.000000   1.000000
    3      -20.658525    -20.658401   1.000000   1.000000
    4      -19.445702    -19.445613   1.000000   1.000000
    5      -19.199491    -19.199409   1.000000   1.000000
    6      -19.136203    -19.136112   1.000000   1.000000
    7      -17.621550    -17.621445   1.000000   1.000000
    8      -17.282573    -17.282482   1.000000   1.000000
    9      -17.181291    -17.181201   1.000000   1.000000
   10      -17.023255    -17.023158   1.000000   1.000000
   11      -12.555689    -12.555531   1.000000   1.000000
   12      -11.037903    -11.037751   1.000000   1.000000
   13       -8.742236     -8.742089   1.000000   1.000000
   14       -7.664849     -7.664714   1.000000   1.000000
   15       -7.392663     -7.392530   1.000000   1.000000
   16       -7.170066     -7.169924   1.000000   1.000000
   17       -5.595340     -5.595203   1.000000   1.000000
   18       -5.316565     -5.316426   1.000000   1.000000
   19       -4.823537     -4.823375   1.000000   1.000000
   20       -4.005634     -4.005510   1.000000   1.000000
   21       -3.880359     -3.880226   1.000000   1.000000
   22       -3.815763     -3.815644   1.000000   1.000000
   23       -3.606625     -3.606507   1.000000   1.000000
   24       -3.527859     -3.527734   1.000000   1.000000
   25       -3.106611     -3.106507   1.000000   1.000000
   26       -2.920512     -2.920407   1.000000   1.000000
   27       -2.165402     -2.165302   1.000000   1.000000
   28       -1.904238     -1.904161   1.000000   1.000000
   29       -1.621919     -1.621851   1.000000   1.000000
   30       -1.555739     -1.555661   1.000000   1.000000
   31       -1.456399     -1.456327   1.000000   1.000000
   32       -1.102690     -1.102626   1.000000   1.000000
   33       -0.494737     -0.494639   1.000000   1.000000
   34       -0.443989     -0.443896   1.000000   1.000000
   35       -0.321815     -0.321721   1.000000   1.000000
   36       -0.265344     -0.265250   1.000000   1.000000
   37       -0.072858     -0.072767   1.000000   1.000000
   38       -0.015089     -0.015012   1.000000   1.000000
   39        0.049164      0.049245   1.000000   1.000000
   40        0.131938      0.132011   1.000000   1.000000
   41        5.770446      5.770613   0.000000   0.000000
   42        7.320486      7.320694   0.000000   0.000000
   43        7.446336      7.446527   0.000000   0.000000
   44        7.970082      7.970343   0.000000   0.000000
   45        8.377877      8.378133   0.000000   0.000000
   46        8.782187      8.782434   0.000000   0.000000
   47        9.080403      9.080693   0.000000   0.000000
   48        9.317719      9.317945   0.000000   0.000000
   49        9.541234      9.541488   0.000000   0.000000
   50        9.868988      9.869238   0.000000   0.000000
   51       10.164110     10.164553   0.000000   0.000000
   52       10.533282     10.616087   0.000000   0.000000
 
  0.2857143E+00  0.1428571E+00 -0.3884619E-14  0.5830904E-02
    1      -22.234349    -22.234220   1.000000   1.000000
    2      -21.654875    -21.654750   1.000000   1.000000
    3      -20.528274    -20.528153   1.000000   1.000000
    4      -19.667464    -19.667367   1.000000   1.000000
    5      -19.196762    -19.196680   1.000000   1.000000
    6      -19.120123    -19.120033   1.000000   1.000000
    7      -17.576528    -17.576429   1.000000   1.000000
    8      -17.283060    -17.282969   1.000000   1.000000
    9      -17.193930    -17.193839   1.000000   1.000000
   10      -17.022999    -17.022903   1.000000   1.000000
   11      -12.366869    -12.366712   1.000000   1.000000
   12      -11.129554    -11.129402   1.000000   1.000000
   13       -8.737964     -8.737817   1.000000   1.000000
   14       -7.759142     -7.759006   1.000000   1.000000
   15       -7.311722     -7.311590   1.000000   1.000000
   16       -7.150581     -7.150439   1.000000   1.000000
   17       -5.552191     -5.552053   1.000000   1.000000
   18       -5.259800     -5.259660   1.000000   1.000000
   19       -4.767123     -4.766965   1.000000   1.000000
   20       -4.112431     -4.112300   1.000000   1.000000
   21       -4.029756     -4.029624   1.000000   1.000000
   22       -3.795172     -3.795049   1.000000   1.000000
   23       -3.519474     -3.519361   1.000000   1.000000
   24       -3.483585     -3.483465   1.000000   1.000000
   25       -3.020715     -3.020616   1.000000   1.000000
   26       -2.978882     -2.978771   1.000000   1.000000
   27       -2.175018     -2.174920   1.000000   1.000000
   28       -2.019592     -2.019513   1.000000   1.000000
   29       -1.683507     -1.683430   1.000000   1.000000
   30       -1.606084     -1.606008   1.000000   1.000000
   31       -1.534214     -1.534140   1.000000   1.000000
   32       -1.159793     -1.159731   1.000000   1.000000
   33       -0.472160     -0.472061   1.000000   1.000000
   34       -0.417631     -0.417539   1.000000   1.000000
   35       -0.310409     -0.310316   1.000000   1.000000
   36       -0.251618     -0.251521   1.000000   1.000000
   37       -0.096534     -0.096448   1.000000   1.000000
   38       -0.030856     -0.030775   1.000000   1.000000
   39        0.060113      0.060193   1.000000   1.000000
   40        0.110201      0.110277   1.000000   1.000000
   41        6.018826      6.019003   0.000000   0.000000
   42        7.392900      7.393095   0.000000   0.000000
   43        7.634766      7.634976   0.000000   0.000000
   44        8.030983      8.031233   0.000000   0.000000
   45        8.497898      8.498126   0.000000   0.000000
   46        8.805326      8.805589   0.000000   0.000000
   47        9.101645      9.101925   0.000000   0.000000
   48        9.238694      9.238934   0.000000   0.000000
   49        9.454640      9.454903   0.000000   0.000000
   50        9.886555      9.886813   0.000000   0.000000
   51       10.192857     10.194506   0.000000   0.000000
   52       10.554596     10.482847   0.000000   0.000000
 
  0.4285714E+00  0.1428571E+00 -0.2765002E-14  0.5830904E-02
    1      -22.079993    -22.079865   1.000000   1.000000
    2      -21.724327    -21.724201   1.000000   1.000000
    3      -20.449546    -20.449430   1.000000   1.000000
    4      -19.965823    -19.965718   1.000000   1.000000
    5      -19.198632    -19.198550   1.000000   1.000000
    6      -19.115754    -19.115663   1.000000   1.000000
    7      -17.552894    -17.552799   1.000000   1.000000
    8      -17.270224    -17.270133   1.000000   1.000000
    9      -17.215742    -17.215650   1.000000   1.000000
   10      -17.018275    -17.018179   1.000000   1.000000
   11      -12.034670    -12.034513   1.000000   1.000000
   12      -11.111482    -11.111333   1.000000   1.000000
   13       -8.939654     -8.939509   1.000000   1.000000
   14       -7.891615     -7.891477   1.000000   1.000000
   15       -7.234973     -7.234842   1.000000   1.000000
   16       -7.003160     -7.003022   1.000000   1.000000
   17       -5.415920     -5.415780   1.000000   1.000000
   18       -5.070586     -5.070446   1.000000   1.000000
   19       -4.697726     -4.697574   1.000000   1.000000
   20       -4.312320     -4.312183   1.000000   1.000000
   21       -4.216624     -4.216488   1.000000   1.000000
   22       -3.872372     -3.872243   1.000000   1.000000
   23       -3.472652     -3.472539   1.000000   1.000000
   24       -3.369574     -3.369461   1.000000   1.000000
   25       -3.070916     -3.070809   1.000000   1.000000
   26       -2.854124     -2.854024   1.000000   1.000000
   27       -2.337924     -2.337831   1.000000   1.000000
   28       -2.126373     -2.126286   1.000000   1.000000
   29       -1.866306     -1.866227   1.000000   1.000000
   30       -1.818933     -1.818855   1.000000   1.000000
   31       -1.615400     -1.615325   1.000000   1.000000
   32       -1.225716     -1.225654   1.000000   1.000000
   33       -0.434619     -0.434524   1.000000   1.000000
   34       -0.395557     -0.395460   1.000000   1.000000
   35       -0.279287     -0.279199   1.000000   1.000000
   36       -0.190445     -0.190353   1.000000   1.000000
   37       -0.155726     -0.155638   1.000000   1.000000
   38        0.012369      0.012455   1.000000   1.000000
   39        0.046231      0.046311   1.000000   1.000000
   40        0.103076      0.103157   1.000000   1.000000
   41        6.364575      6.364779   0.000000   0.000000
   42        7.632166      7.632359   0.000000   0.000000
   43        7.990651      7.990895   0.000000   0.000000
   44        8.241734      8.241975   0.000000   0.000000
   45        8.713829      8.714072   0.000000   0.000000
   46        8.948397      8.948628   0.000000   0.000000
   47        9.132622      9.132893   0.000000   0.000000
   48        9.239256      9.239519   0.000000   0.000000
   49        9.442341      9.442599   0.000000   0.000000
   50        9.888344      9.888552   0.000000   0.000000
   51       10.050564     10.051018   0.000000   0.000000
   52       10.464785     10.511373   0.000000   0.000000
 
 -0.4285714E+00  0.1428571E+00 -0.3489855E-14  0.5830904E-02
    1      -21.961171    -21.961042   1.000000   1.000000
    2      -21.711269    -21.711145   1.000000   1.000000
    3      -20.582028    -20.581913   1.000000   1.000000
    4      -20.045447    -20.045338   1.000000   1.000000
    5      -19.200549    -19.200466   1.000000   1.000000
    6      -19.114696    -19.114603   1.000000   1.000000
    7      -17.561105    -17.561011   1.000000   1.000000
    8      -17.278328    -17.278237   1.000000   1.000000
    9      -17.211858    -17.211767   1.000000   1.000000
   10      -17.012071    -17.011975   1.000000   1.000000
   11      -11.884170    -11.884013   1.000000   1.000000
   12      -10.833989    -10.833845   1.000000   1.000000
   13       -9.306899     -9.306753   1.000000   1.000000
   14       -7.910005     -7.909867   1.000000   1.000000
   15       -7.187985     -7.187856   1.000000   1.000000
   16       -6.895670     -6.895533   1.000000   1.000000
   17       -5.253467     -5.253326   1.000000   1.000000
   18       -4.911543     -4.911401   1.000000   1.000000
   19       -4.620065     -4.619920   1.000000   1.000000
   20       -4.501460     -4.501323   1.000000   1.000000
   21       -4.335151     -4.335010   1.000000   1.000000
   22       -3.978217     -3.978082   1.000000   1.000000
   23       -3.493639     -3.493523   1.000000   1.000000
   24       -3.347431     -3.347313   1.000000   1.000000
   25       -3.073397     -3.073293   1.000000   1.000000
   26       -2.722318     -2.722224   1.000000   1.000000
   27       -2.461180     -2.461086   1.000000   1.000000
   28       -2.191032     -2.190948   1.000000   1.000000
   29       -2.063882     -2.063796   1.000000   1.000000
   30       -1.921861     -1.921784   1.000000   1.000000
   31       -1.706871     -1.706795   1.000000   1.000000
   32       -1.251319     -1.251255   1.000000   1.000000
   33       -0.469412     -0.469317   1.000000   1.000000
   34       -0.401175     -0.401079   1.000000   1.000000
   35       -0.246576     -0.246491   1.000000   1.000000
   36       -0.211428     -0.211335   1.000000   1.000000
   37       -0.062383     -0.062300   1.000000   1.000000
   38       -0.004261     -0.004168   1.000000   1.000000
   39        0.082433      0.082516   1.000000   1.000000
   40        0.117544      0.117622   1.000000   1.000000
   41        6.505728      6.505950   0.000000   0.000000
   42        7.874770      7.875012   0.000000   0.000000
   43        8.291376      8.291605   0.000000   0.000000
   44        8.417048      8.417313   0.000000   0.000000
   45        8.714162      8.714429   0.000000   0.000000
   46        9.108841      9.109119   0.000000   0.000000
   47        9.302608      9.302853   0.000000   0.000000
   48        9.405418      9.405640   0.000000   0.000000
   49        9.493132      9.493369   0.000000   0.000000
   50        9.787547      9.787739   0.000000   0.000000
   51       10.050406     10.050790   0.000000   0.000000
   52       10.375344     10.376196   0.000000   0.000000
 
 -0.2857143E+00  0.1428571E+00 -0.2237709E-14  0.5830904E-02
    1      -22.041423    -22.041294   1.000000   1.000000
    2      -21.536437    -21.536316   1.000000   1.000000
    3      -20.797049    -20.796927   1.000000   1.000000
    4      -19.912862    -19.912758   1.000000   1.000000
    5      -19.201230    -19.201147   1.000000   1.000000
    6      -19.112880    -19.112787   1.000000   1.000000
    7      -17.570478    -17.570383   1.000000   1.000000
    8      -17.283363    -17.283271   1.000000   1.000000
    9      -17.209441    -17.209349   1.000000   1.000000
   10      -17.010270    -17.010174   1.000000   1.000000
   11      -12.028084    -12.027927   1.000000   1.000000
   12      -10.451236    -10.451094   1.000000   1.000000
   13       -9.618262     -9.618114   1.000000   1.000000
   14       -7.836063     -7.835926   1.000000   1.000000
   15       -7.175663     -7.175534   1.000000   1.000000
   16       -6.923950     -6.923811   1.000000   1.000000
   17       -5.201153     -5.201015   1.000000   1.000000
   18       -4.937043     -4.936895   1.000000   1.000000
   19       -4.737404     -4.737263   1.000000   1.000000
   20       -4.483565     -4.483424   1.000000   1.000000
   21       -4.210550     -4.210416   1.000000   1.000000
   22       -3.995320     -3.995181   1.000000   1.000000
   23       -3.458388     -3.458273   1.000000   1.000000
   24       -3.370870     -3.370753   1.000000   1.000000
   25       -3.139054     -3.138947   1.000000   1.000000
   26       -2.774193     -2.774096   1.000000   1.000000
   27       -2.326369     -2.326281   1.000000   1.000000
   28       -2.198960     -2.198875   1.000000   1.000000
   29       -2.119442     -2.119359   1.000000   1.000000
   30       -1.899882     -1.899802   1.000000   1.000000
   31       -1.729090     -1.729013   1.000000   1.000000
   32       -1.244557     -1.244493   1.000000   1.000000
   33       -0.445643     -0.445549   1.000000   1.000000
   34       -0.391338     -0.391242   1.000000   1.000000
   35       -0.281376     -0.281290   1.000000   1.000000