   14   14    1    2
  0.1302757E+02  0.9152087E-09  0.8658288E-09  0.4887791E-09  0.5000000E-15
  1.000000000000000E-004
  CAR 
 unknown system                          
     80     64     56
 
  0.0000000E+00  0.0000000E+00  0.0000000E+00  0.2915452E-02
    1      -22.164006    -22.163875   1.000000   1.000000
    2      -21.432495    -21.432375   1.000000   1.000000
    3      -20.669553    -20.669426   1.000000   1.000000
    4      -19.305109    -19.305026   1.000000   1.000000
    5      -19.295778    -19.295695   1.000000   1.000000
    6      -19.216677    -19.216581   1.000000   1.000000
    7      -17.707036    -17.706928   1.000000   1.000000
    8      -17.292039    -17.291950   1.000000   1.000000
    9      -17.235624    -17.235539   1.000000   1.000000
   10      -17.224157    -17.224071   1.000000   1.000000
   11      -12.551321    -12.551168   1.000000   1.000000
   12      -10.910766    -10.910618   1.000000   1.000000
   13       -8.839017     -8.838877   1.000000   1.000000
   14       -7.622155     -7.622023   1.000000   1.000000
   15       -7.440505     -7.440375   1.000000   1.000000
   16       -7.182803     -7.182668   1.000000   1.000000
   17       -5.432259     -5.432129   1.000000   1.000000
   18       -5.287314     -5.287180   1.000000   1.000000
   19       -4.823665     -4.823507   1.000000   1.000000
   20       -3.903855     -3.903754   1.000000   1.000000
   21       -3.861327     -3.861201   1.000000   1.000000
   22       -3.746008     -3.745869   1.000000   1.000000
   23       -3.608698     -3.608588   1.000000   1.000000
   24       -3.601216     -3.601097   1.000000   1.000000
   25       -3.130612     -3.130511   1.000000   1.000000
   26       -2.963047     -2.962955   1.000000   1.000000
   27       -2.151486     -2.151384   1.000000   1.000000
   28       -1.860833     -1.860756   1.000000   1.000000
   29       -1.702118     -1.702056   1.000000   1.000000
   30       -1.572010     -1.571929   1.000000   1.000000
   31       -1.483548     -1.483476   1.000000   1.000000
   32       -1.099140     -1.099081   1.000000   1.000000
   33       -0.467700     -0.467613   1.000000   1.000000
   34       -0.455743     -0.455646   1.000000   1.000000
   35       -0.353337     -0.353259   1.000000   1.000000
   36       -0.248332     -0.248250   1.000000   1.000000
   37       -0.207427     -0.207341   1.000000   1.000000
   38       -0.037489     -0.037421   1.000000   1.000000
   39       -0.035497     -0.035424   1.000000   1.000000
   40        0.097853      0.097920   1.000000   1.000000
   41        5.754266      5.754428   0.000001   0.000000
   42        7.411782      7.411920   0.000000   0.000000
   43        7.732404      7.732616   0.000000   0.000000
   44        7.929380      7.929664   0.000000   0.000000
   45        8.376177      8.376421   0.000000   0.000000
   46        8.874082      8.874334   0.000000   0.000000
   47        9.138788      9.139067   0.000000   0.000000
   48        9.456498      9.456762   0.000000   0.000000
   49        9.484965      9.485065   0.000000   0.000000
   50        9.731398      9.731671   0.000000   0.000000
   51       10.364390     10.364656   0.000000   0.000000
   52       10.618159     10.618378   0.000000   0.000000
   53       10.688228     10.688379   0.000000   0.000000
   54       11.074143     11.074395   0.000000   0.000000
   55       12.270594     12.270528   0.000000   0.000000
   56       12.578406     12.578291   0.000000   0.000000
 
  0.1428571E+00  0.4889520E-17  0.4548499E-14  0.2332362E-01
    1      -22.126198    -22.126067   1.000000   1.000000
    2      -21.416676    -21.416556   1.000000   1.000000
    3      -20.685251    -20.685124   1.000000   1.000000
    4      -19.404520    -19.404432   1.000000   1.000000
    5      -19.299123    -19.299041   1.000000   1.000000
    6      -19.226972    -19.226877   1.000000   1.000000
    7      -17.658116    -17.658012   1.000000   1.000000
    8      -17.296357    -17.296268   1.000000   1.000000
    9      -17.248733    -17.248647   1.000000   1.000000
   10      -17.228693    -17.228607   1.000000   1.000000
   11      -12.451858    -12.451705   1.000000   1.000000
   12      -10.844706    -10.844559   1.000000   1.000000
   13       -8.952768     -8.952627   1.000000   1.000000
   14       -7.695639     -7.695507   1.000000   1.000000
   15       -7.355348     -7.355218   1.000000   1.000000
   16       -7.160295     -7.160161   1.000000   1.000000
   17       -5.359409     -5.359279   1.000000   1.000000
   18       -5.222124     -5.221990   1.000000   1.000000
   19       -4.816945     -4.816789   1.000000   1.000000
   20       -4.059235     -4.059115   1.000000   1.000000
   21       -3.848059     -3.847936   1.000000   1.000000
   22       -3.778260     -3.778130   1.000000   1.000000
   23       -3.567257     -3.567146   1.000000   1.000000
   24       -3.518838     -3.518726   1.000000   1.000000
   25       -3.086892     -3.086792   1.000000   1.000000
   26       -3.025754     -3.025659   1.000000   1.000000
   27       -2.161728     -2.161630   1.000000   1.000000
   28       -1.910541     -1.910464   1.000000   1.000000
   29       -1.795535     -1.795464   1.000000   1.000000
   30       -1.660590     -1.660512   1.000000   1.000000
   31       -1.539727     -1.539654   1.000000   1.000000
   32       -1.146877     -1.146820   1.000000   1.000000
   33       -0.444095     -0.444001   1.000000   1.000000
   34       -0.422832     -0.422746   1.000000   1.000000
   35       -0.327249     -0.327170   1.000000   1.000000
   36       -0.252571     -0.252488   1.000000   1.000000
   37       -0.188537     -0.188454   1.000000   1.000000
   38       -0.079471     -0.079397   1.000000   1.000000
   39       -0.025577     -0.025507   1.000000   1.000000
   40        0.067083      0.067151   1.000000   1.000000
   41        5.980641      5.980808  -0.000000  -0.000000
   42        7.473281      7.473433   0.000000   0.000000
   43        7.912334      7.912532   0.000000   0.000000
   44        8.051354      8.051632   0.000000   0.000000
   45        8.454568      8.454811   0.000000   0.000000
   46        8.871330      8.871589   0.000000   0.000000
   47        9.146382      9.146652   0.000000   0.000000
   48        9.329201      9.329402   0.000000   0.000000
   49        9.545685      9.545893   0.000000   0.000000
   50        9.769451      9.769691   0.000000   0.000000
   51       10.249903     10.250156   0.000000   0.000000
   52       10.629348     10.629557   0.000000   0.000000
   53       10.760322     10.760493   0.000000   0.000000
   54       11.035545     11.035775   0.000000   0.000000
   55       12.220652     12.220575   0.000000   0.000000
   56       12.498351     12.498205   0.000000   0.000000
 
  0.2857143E+00 -0.1053275E-16 -0.5032381E-14  0.2332362E-01
    1      -22.035094    -22.034964   1.000000   1.000000
    2      -21.364626    -21.364504   1.000000   1.000000
    3      -20.748548    -20.748425   1.000000   1.000000
    4      -19.616725    -19.616627   1.000000   1.000000
    5      -19.300001    -19.299919   1.000000   1.000000
    6      -19.237059    -19.236965   1.000000   1.000000
    7      -17.577920    -17.577821   1.000000   1.000000
    8      -17.305058    -17.304970   1.000000   1.000000
    9      -17.276426    -17.276339   1.000000   1.000000
   10      -17.236395    -17.236309   1.000000   1.000000
   11      -12.225945    -12.225792   1.000000   1.000000
   12      -10.646300    -10.646155   1.000000   1.000000
   13       -9.252391     -9.252251   1.000000   1.000000
   14       -7.799674     -7.799542   1.000000   1.000000
   15       -7.249917     -7.249788   1.000000   1.000000
   16       -7.079931     -7.079799   1.000000   1.000000
   17       -5.181375     -5.181243   1.000000   1.000000
   18       -5.051890     -5.051755   1.000000   1.000000
   19       -4.794392     -4.794241   1.000000   1.000000
   20       -4.223431     -4.223302   1.000000   1.000000
   21       -4.030694     -4.030565   1.000000   1.000000
   22       -3.836016     -3.835891   1.000000   1.000000
   23       -3.498990     -3.498880   1.000000   1.000000
   24       -3.378305     -3.378200   1.000000   1.000000
   25       -3.201739     -3.201638   1.000000   1.000000
   26       -2.901151     -2.901053   1.000000   1.000000
   27       -2.252945     -2.252855   1.000000   1.000000
   28       -2.082351     -2.082266   1.000000   1.000000
   29       -1.949292     -1.949214   1.000000   1.000000
   30       -1.829348     -1.829271   1.000000   1.000000
   31       -1.637374     -1.637299   1.000000   1.000000
   32       -1.239117     -1.239060   1.000000   1.000000
   33       -0.413355     -0.413267   1.000000   1.000000
   34       -0.374053     -0.373963   1.000000   1.000000
   35       -0.287997     -0.287918   1.000000   1.000000
   36       -0.253517     -0.253434   1.000000   1.000000
   37       -0.193457     -0.193376   1.000000   1.000000
   38       -0.077125     -0.077045   1.000000   1.000000
   39       -0.016010     -0.015938   1.000000   1.000000
   40        0.028815      0.028885   1.000000   1.000000
   41        6.432649      6.432840   0.000000   0.000000
   42        7.721788      7.721946   0.000000   0.000000
   43        8.222679      8.222897   0.000000   0.000000
   44        8.326975      8.327236   0.000000   0.000000
   45        8.622360      8.622606   0.000000   0.000000
   46        8.881237      8.881497   0.000000   0.000000
   47        9.196433      9.196672   0.000000   0.000000
   48        9.281540      9.281775   0.000000   0.000000
   49        9.615758      9.615997   0.000000   0.000000
   50        9.852891      9.853112   0.000000   0.000000
   51       10.008666     10.008884   0.000000   0.000000
   52       10.595871     10.596046   0.000000   0.000000
   53       10.790268     10.790500   0.000000   0.000000
   54       10.959261     10.959402   0.000000   0.000000
   55       12.016629     12.016589   0.000000   0.000000
   56       12.330332     12.330244   0.000000   0.000000
 
  0.4285714E+00 -0.4800813E-16 -0.5072919E-15  0.2332362E-01
    1      -21.955934    -21.955805   1.000000   1.000000
    2      -21.283767    -21.283642   1.000000   1.000000
    3      -20.855063    -20.854946   1.000000   1.000000
    4      -19.760041    -19.759936   1.000000   1.000000
    5      -19.300592    -19.300509   1.000000   1.000000
    6      -19.243665    -19.243571   1.000000   1.000000
    7      -17.537621    -17.537524   1.000000   1.000000
    8      -17.322997    -17.322909   1.000000   1.000000
    9      -17.274399    -17.274312   1.000000   1.000000
   10      -17.248289    -17.248203   1.000000   1.000000
   11      -12.044670    -12.044519   1.000000   1.000000
   12      -10.361172    -10.361029   1.000000   1.000000
   13       -9.611393     -9.611253   1.000000   1.000000
   14       -7.864951     -7.864817   1.000000   1.000000
   15       -7.196607     -7.196479   1.000000   1.000000
   16       -6.997667     -6.997537   1.000000   1.000000
   17       -4.989443     -4.989306   1.000000   1.000000
   18       -4.918910     -4.918772   1.000000   1.000000
   19       -4.710737     -4.710601   1.000000   1.000000
   20       -4.399640     -4.399504   1.000000   1.000000
   21       -4.166113     -4.165978   1.000000   1.000000
   22       -3.925507     -3.925387   1.000000   1.000000
   23       -3.559409     -3.559297   1.000000   1.000000
   24       -3.372274     -3.372165   1.000000   1.000000
   25       -3.141416     -3.141317   1.000000   1.000000
   26       -2.717055     -2.716958   1.000000   1.000000
   27       -2.414183     -2.414095   1.000000   1.000000
   28       -2.227780     -2.227699   1.000000   1.000000
   29       -2.087385     -2.087303   1.000000   1.000000
   30       -1.862841     -1.862764   1.000000   1.000000
   31       -1.758015     -1.757939   1.000000   1.000000
   32       -1.291567     -1.291508   1.000000   1.000000
   33       -0.470223     -0.470135   1.000000   1.000000
   34       -0.334000     -0.333908   1.000000   1.000000
   35       -0.291824     -0.291748   1.000000   1.000000
   36       -0.249963     -0.249881   1.000000   1.000000
   37       -0.139945     -0.139862   1.000000   1.000000
   38       -0.085787     -0.085709   1.000000   1.000000
   39        0.007323      0.007398   1.000000   1.000000
   40        0.048407      0.048478   1.000000   1.000000
   41        6.719729      6.719940   0.000000   0.000000
   42        8.108632      8.108831   0.000000   0.000000
   43        8.352631      8.352874   0.000000   0.000000
   44        8.476795      8.477036   0.000000   0.000000
   45        8.705526      8.705786   0.000000   0.000000
   46        9.033229      9.033453   0.000000   0.000000
   47        9.179351      9.179594   0.000000   0.000000
   48        9.422008      9.422249   0.000000   0.000000
   49        9.747008      9.747243   0.000000   0.000000
   50        9.792535      9.792709   0.000000   0.000000
   51        9.962383      9.962615   0.000000   0.000000
   52       10.528811     10.528957   0.000000   0.000000
   53       10.646460     10.646667   0.000000   0.000000
   54       11.007966     11.008106   0.000000   0.000000
   55       11.583922     11.583896   0.000000   0.000000
   56       12.204833     12.204694   0.000000   0.000000
 
  0.1428571E+00  0.1428571E+00  0.1931494E-16  0.5830904E-02
    1      -22.142562    -22.142431   1.000000   1.000000
    2      -21.511463    -21.511341   1.000000   1.000000
    3      -20.563846    -20.563721   1.000000   1.000000
    4      -19.312810    -19.312724   1.000000   1.000000
    5      -19.296076    -19.295993   1.000000   1.000000
    6      -19.281396    -19.281302   1.000000   1.000000
    7      -17.672656    -17.672551   1.000000   1.000000
    8      -17.308417    -17.308328   1.000000   1.000000
    9      -17.231429    -17.231343   1.000000   1.000000
   10      -17.223741    -17.223655   1.000000   1.000000
   11      -12.489900    -12.489747   1.000000   1.000000
   12      -11.036439    -11.036291   1.000000   1.000000
   13       -8.727722     -8.727581   1.000000   1.000000
   14       -7.651478     -7.651345   1.000000   1.000000
   15       -7.430274     -7.430143   1.000000   1.000000
   16       -7.203210     -7.203075   1.000000   1.000000
   17       -5.438372     -5.438242   1.000000   1.000000
   18       -5.317606     -5.317471   1.000000   1.000000
   19       -4.778816     -4.778660   1.000000   1.000000
   20       -3.880417     -3.880281   1.000000   1.000000
   21       -3.868466     -3.868365   1.000000   1.000000
   22       -3.817041     -3.816916   1.000000   1.000000
   23       -3.596517     -3.596398   1.000000   1.000000
   24       -3.582568     -3.582456   1.000000   1.000000
   25       -3.082287     -3.082185   1.000000   1.000000
   26       -2.970251     -2.970158   1.000000   1.000000
   27       -2.158720     -2.158619   1.000000   1.000000
   28       -1.927748     -1.927672   1.000000   1.000000
   29       -1.642719     -1.642655   1.000000   1.000000
   30       -1.562648     -1.562568   1.000000   1.000000
   31       -1.480714     -1.480642   1.000000   1.000000
   32       -1.115085     -1.115027   1.000000   1.000000
   33       -0.482120     -0.482032   1.000000   1.000000
   34       -0.454490     -0.454394   1.000000   1.000000
   35       -0.366605     -0.366525   1.000000   1.000000
   36       -0.299684     -0.299598   1.000000   1.000000
   37       -0.171681     -0.171600   1.000000   1.000000
   38       -0.040559     -0.040490   1.000000   1.000000
   39       -0.020136     -0.020063   1.000000   1.000000
   40        0.095383      0.095450   1.000000   1.000000
   41        5.851681      5.851841   0.000000   0.000000
   42        7.449037      7.449184   0.000000   0.000000
   43        7.632875      7.633074   0.000000   0.000000
   44        7.951404      7.951685   0.000000   0.000000
   45        8.430000      8.430236   0.000000   0.000000
   46        8.820041      8.820284   0.000000   0.000000
   47        9.131188      9.131469   0.000000   0.000000
   48        9.349907      9.350081   0.000000   0.000000
   49        9.445116      9.445380   0.000000   0.000000
   50        9.863722      9.863942   0.000000   0.000000
   51       10.296742     10.296992   0.000000   0.000000
   52       10.505229     10.505388   0.000000   0.000000
   53       10.698285     10.698517   0.000000   0.000000
   54       11.064379     11.064623   0.000000   0.000000
   55       12.494946     12.494802   0.000000   0.000000
   56       12.632297     12.632226   0.000000   0.000000
 
  0.2857143E+00  0.1428571E+00  0.1038129E-14  0.2332362E-01
    1      -22.084329    -22.084199   1.000000   1.000000
    2      -21.554463    -21.554339   1.000000   1.000000
    3      -20.498928    -20.498806   1.000000   1.000000
    4      -19.492033    -19.491937   1.000000   1.000000
    5      -19.299307    -19.299225   1.000000   1.000000
    6      -19.264215    -19.264125   1.000000   1.000000
    7      -17.605579    -17.605478   1.000000   1.000000
    8      -17.325851    -17.325761   1.000000   1.000000
    9      -17.242607    -17.242521   1.000000   1.000000
   10      -17.226995    -17.226909   1.000000   1.000000
   11      -12.333809    -12.333656   1.000000   1.000000
   12      -11.081612    -11.081464   1.000000   1.000000
   13       -8.746901     -8.746762   1.000000   1.000000
   14       -7.762265     -7.762132   1.000000   1.000000
   15       -7.345822     -7.345692   1.000000   1.000000
   16       -7.176149     -7.176016   1.000000   1.000000
   17       -5.370308     -5.370177   1.000000   1.000000
   18       -5.272401     -5.272266   1.000000   1.000000
   19       -4.734160     -4.734006   1.000000   1.000000
   20       -4.064472     -4.064340   1.000000   1.000000
   21       -3.931419     -3.931295   1.000000   1.000000
   22       -3.759343     -3.759228   1.000000   1.000000
   23       -3.549841     -3.549729   1.000000   1.000000
   24       -3.507963     -3.507853   1.000000   1.000000
   25       -3.085744     -3.085642   1.000000   1.000000
   26       -2.953371     -2.953276   1.000000   1.000000
   27       -2.193112     -2.193015   1.000000   1.000000
   28       -2.029205     -2.029125   1.000000   1.000000
   29       -1.704491     -1.704416   1.000000   1.000000
   30       -1.625583     -1.625508   1.000000   1.000000
   31       -1.534041     -1.533967   1.000000   1.000000
   32       -1.180047     -1.179990   1.000000   1.000000
   33       -0.460083     -0.459994   1.000000   1.000000
   34       -0.429869     -0.429777   1.000000   1.000000
   35       -0.343980     -0.343898   1.000000   1.000000
   36       -0.311755     -0.311670   1.000000   1.000000
   37       -0.147631     -0.147550   1.000000   1.000000
   38       -0.066694     -0.066621   1.000000   1.000000
   39       -0.018995     -0.018924   1.000000   1.000000
   40        0.064005      0.064073   1.000000   1.000000
   41        6.155954      6.156119   0.000000   0.000000
   42        7.484869      7.485039   0.000000   0.000000
   43        7.780761      7.780936   0.000000   0.000000
   44        8.092391      8.092667   0.000000   0.000000
   45        8.557049      8.557277   0.000000   0.000000
   46        8.793469      8.793721   0.000000   0.000000
   47        9.113052      9.113324   0.000000   0.000000
   48        9.205185      9.205398   0.000000   0.000000
   49        9.489229      9.489478   0.000000   0.000000
   50        9.910045      9.910250   0.000000   0.000000
   51       10.138927     10.139154   0.000000   0.000000
   52       10.458467     10.458655   0.000000   0.000000
   53       10.745111     10.745335   0.000000   0.000000
   54       11.027644     11.027871   0.000000   0.000000
   55       12.477137     12.476954   0.000000   0.000000
   56       12.736662     12.733869   0.000000   0.000000
 
  0.4285714E+00  0.1428571E+00 -0.5067187E-14  0.2332362E-01
    1      -21.984794    -21.984665   1.000000   1.000000
    2      -21.526083    -21.525958   1.000000   1.000000
    3      -20.541535    -20.541417   1.000000   1.000000
    4      -19.716391    -19.716288   1.000000   1.000000
    5      -19.300056    -19.299974   1.000000   1.000000
    6      -19.256772    -19.256680   1.000000   1.000000
    7      -17.537131    -17.537033   1.000000   1.000000
    8      -17.333376    -17.333288   1.000000   1.000000
    9      -17.272175    -17.272089   1.000000   1.000000
   10      -17.232973    -17.232887   1.000000   1.000000
   11      -12.091664    -12.091513   1.000000   1.000000
   12      -10.945199    -10.945053   1.000000   1.000000
   13       -9.002936     -9.002797   1.000000   1.000000
   14       -7.875301     -7.875167   1.000000   1.000000
   15       -7.264009     -7.263880   1.000000   1.000000
   16       -7.060248     -7.060117   1.000000   1.000000
   17       -5.200023     -5.199889   1.000000   1.000000
   18       -5.099479     -5.099345   1.000000   1.000000
   19       -4.685859     -4.685711   1.000000   1.000000
   20       -4.252368     -4.252231   1.000000   1.000000
   21       -4.099321     -4.099193   1.000000   1.000000
   22       -3.795266     -3.795149   1.000000   1.000000
   23       -3.510720     -3.510612   1.000000   1.000000
   24       -3.428694     -3.428586   1.000000   1.000000
   25       -3.119622     -3.119522   1.000000   1.000000
   26       -2.826173     -2.826078   1.000000   1.000000
   27       -2.379177     -2.379084   1.000000   1.000000
   28       -2.107799     -2.107711   1.000000   1.000000
   29       -1.916779     -1.916702   1.000000   1.000000
   30       -1.788494     -1.788418   1.000000   1.000000
   31       -1.619790     -1.619716   1.000000   1.000000
   32       -1.265719     -1.265661   1.000000   1.000000
   33       -0.449000     -0.448914   1.000000   1.000000
   34       -0.373558     -0.373465   1.000000   1.000000
   35       -0.297288     -0.297205   1.000000   1.000000
   36       -0.238704     -0.238624   1.000000   1.000000
   37       -0.200114     -0.200034   1.000000   1.000000
   38       -0.078186     -0.078106   1.000000   1.000000
   39       -0.013623     -0.013551   1.000000   1.000000
   40        0.038774      0.038845   1.000000   1.000000
   41        6.606015      6.606206   0.000000   0.000000
   42        7.703169      7.703335   0.000000   0.000000
   43        8.142788      8.142993   0.000000   0.000000
   44        8.375068      8.375332   0.000000   0.000000
   45        8.669209      8.669463   0.000000   0.000000
   46        8.877877      8.878105   0.000000   0.000000
   47        9.069094      9.069341   0.000000   0.000000
   48        9.239714      9.239955   0.000000   0.000000
   49        9.583533      9.583768   0.000000   0.000000
   50        9.851738      9.851920   0.000000   0.000000
   51        9.979615      9.979841   0.000000   0.000000
   52       10.452734     10.452942   0.000000   0.000000
   53       10.721152     10.721348   0.000000   0.000000
   54       10.939766     10.939943   0.000000   0.000000
   55       12.138532     12.138428   0.000000   0.000000
   56       12.571810     12.571772   0.000000   0.000000
 
 -0.4285714E+00  0.1428571E+00 -0.3948594E-14  0.2332362E-01
    1      -21.934782    -21.934652   1.000000   1.000000
    2      -21.377504    -21.377378   1.000000   1.000000
    3      -20.747193    -20.747078   1.000000   1.000000
    4      -19.796384    -19.796277   1.000000   1.000000
    5      -19.300595    -19.300512   1.000000   1.000000
    6      -19.249934    -19.249841   1.000000   1.000000
    7      -17.525030    -17.524933   1.000000   1.000000
    8      -17.329091    -17.329003   1.000000   1.000000
    9      -17.278252    -17.278165   1.000000   1.000000
   10      -17.245014    -17.244928   1.000000   1.000000
   11      -11.991257    -11.991106   1.000000   1.000000
   12      -10.550523    -10.550378   1.000000   1.000000
   13       -9.445010     -9.444871   1.000000   1.000000
   14       -7.893413     -7.893280   1.000000   1.000000
   15       -7.205186     -7.205058   1.000000   1.000000
   16       -6.985337     -6.985207   1.000000   1.000000
   17       -5.010414     -5.010273   1.000000   1.000000
   18       -4.931142     -4.931008   1.000000   1.000000
   19       -4.631365     -4.631228   1.000000   1.000000
   20       -4.435203     -4.435065   1.000000   1.000000
   21       -4.199871     -4.199736   1.000000   1.000000
   22       -3.911751     -3.911634   1.000000   1.000000
   23       -3.559741     -3.559629   1.000000   1.000000
   24       -3.390799     -3.390689   1.000000   1.000000
   25       -3.100577     -3.100480   1.000000   1.000000
   26       -2.672915     -2.672819   1.000000   1.000000
   27       -2.508328     -2.508238   1.000000   1.000000
   28       -2.216163     -2.216079   1.000000   1.000000
   29       -2.056283     -2.056202   1.000000   1.000000
   30       -1.884247     -1.884171   1.000000   1.000000
   31       -1.738294     -1.738217   1.000000   1.000000
   32       -1.298496     -1.298437   1.000000   1.000000
   33       -0.487615     -0.487527   1.000000   1.000000
   34       -0.326417     -0.326325   1.000000   1.000000
   35       -0.281149     -0.281072   1.000000   1.000000
   36       -0.247356     -0.247275   1.000000   1.000000
   37       -0.147049     -0.146965   1.000000   1.000000
   38       -0.102685     -0.102607   1.000000   1.000000
   39        0.016436      0.016511   1.000000   1.000000
   40        0.052324      0.052395   1.000000   1.000000
   41        6.781664      6.781875   0.000000   0.000000
   42        8.084396      8.084605   0.000000   0.000000
   43        8.391570      8.391817   0.000000   0.000000
   44        8.509983      8.510214   0.000000   0.000000
   45        8.645379      8.645634   0.000000   0.000000
   46        8.958487      8.958727   0.000000   0.000000
   47        9.270694      9.270917   0.000000   0.000000
   48        9.419187      9.419433   0.000000   0.000000
   49        9.668556      9.668736   0.000000   0.000000
   50        9.746902      9.747103   0.000000   0.000000
   51       10.021896     10.022126   0.000000   0.000000
   52       10.426423     10.426647   0.000000   0.000000
   53       10.636014     10.636164   0.000000   0.000000
   54       10.946363     10.946486   0.000000   0.000000
   55       11.678633     11.678626   0.000000   0.000000
   56       12.265217     12.265028   0.000000   0.000000
 
 -0.2857143E+00  0.1428571E+00  0.5106129E-15  0.2332362E-01
    1      -21.970926    -21.970796   1.000000   1.000000
    2      -21.159048    -21.158924   1.000000   1.000000
    3      -20.990533    -20.990415   1.000000   1.000000
    4      -19.733928    -19.733825   1.000000   1.000000
    5      -19.300592    -19.300509   1.000000   1.000000
    6      -19.238337    -19.238242   1.000000   1.000000
    7      -17.547245    -17.547147   1.000000   1.000000
    8      -17.320019    -17.319931   1.000000   1.000000
    9      -17.266994    -17.266907   1.000000   1.000000
   10      -17.254113    -17.254027   1.000000   1.000000
   11      -12.083370    -12.083218   1.000000   1.000000
   12      -10.110969    -10.110826   1.000000   1.000000
   13       -9.845732     -9.845591   1.000000   1.000000
   14       -7.844986     -7.844853   1.000000   1.000000
   15       -7.185183     -7.185056   1.000000   1.000000
   16       -7.010982     -7.010851   1.000000   1.000000
   17       -4.974706     -4.974574   1.000000   1.000000
   18       -4.896009     -4.895862   1.000000   1.000000
   19       -4.769093     -4.768960   1.000000   1.000000
   20       -4.396286     -4.396150   1.000000   1.000000
   21       -4.101118     -4.100982   1.000000   1.000000
   22       -3.985505     -3.985386   1.000000   1.000000
   23       -3.489749     -3.489638   1.000000   1.000000
   24       -3.405074     -3.404964   1.000000   1.000000
   25       -3.174484     -3.174385   1.000000   1.000000
   26       -2.744025     -2.743928   1.000000   1.000000
   27       -2.359508     -2.359423   1.000000   1.000000
   28       -2.196460     -2.196378   1.000000   1.000000
   29       -2.134636     -2.134554   1.000000   1.000000
   30       -1.848458     -1.848379   1.000000   1.000000
   31       -1.776650     -1.776574   1.000000   1.000000
   32       -1.289034     -1.288975   1.000000   1.000000
   33       -0.446932     -0.446844   1.000000   1.000000
   34       -0.346345     -0.346255   1.000000   1.000000
   35       -0.304227     -0.304146   1.000000   1.000000
   36       -0.254876     -0.254796   1.000000   1.000000
   37       -0.117343     -0.117260   1.000000   1.000000
   38       -0.084824     -0.084747   1.000000   1.000000
   39        0.001873      0.001948   1.000000   1.000000
   40        0.043676      0.043747   1.000000   1.000000
   41        6.676727      6.676939   0.000000   0.000000
   42        8.121886      8.122074   0.000000   0.000000
   43        8.295606      8.295852   0.000000   0.000000
   44        8.525499      8.525739   0.000000   0.000000
   45        8.688828      8.689085   0.000000   0.000000
   46        8.925100      8.925360   0.000000   0.000000
   47        9.340740      9.340958   0.000000   0.000000
   48        9.479986      9.480224   0.000000   0.000000
   49        9.738889      9.739123   0.000000   0.000000
   50        9.847622      9.847832   0.000000   0.000000
   51        9.931528      9.931755   0.000000   0.000000
   52       10.411797     10.411954   0.000000   0.000000
   53       10.702298     10.702453   0.000000   0.000000
   54       11.222222     11.222373   0.000000   0.000000
   55       11.441655     11.441718   0.000000   0.000000
   56       12.108400     12.108165   0.000000   0.000000
 