 running on   24 total cores
 distrk:  each k-point on   24 cores,    1 groups
 distr:  one band on    6 cores,    4 groups
 using from now: INCAR     
 vasp.6.1.2 22Jul20 (build Mar 31 2021 18:09:49) complex                        
  
 POSCAR found type information on POSCAR LiO 
 POSCAR found :  2 types and       8 ions
 scaLAPACK will be used
 -----------------------------------------------------------------------------
|                                                                             |
|               ----> ADVICE to this user running VASP <----                  |
|                                                                             |
|     You have a (more or less) 'small supercell' and for smaller cells       |
|     it is recommended to use the reciprocal-space projection scheme!        |
|     The real-space optimization is not efficient for small cells and it     |
|     is also less accurate ...                                               |
|     Therefore, set LREAL=.FALSE. in the INCAR file.                         |
|                                                                             |
 -----------------------------------------------------------------------------

 LDA part: xc-table for Pade appr. of Perdew
 generate k-points for:   12   12    4
 POSCAR, INCAR and KPOINTS ok, starting setup
 FFT: planning ...
 WAVECAR not read
 entering main loop
       N       E                     dE             d eps       ncg     rms          rms(c)
DAV:   1     0.252060043937E+03    0.25206E+03   -0.17357E+04 18384   0.137E+03
DAV:   2    -0.145861125368E+02   -0.26665E+03   -0.25637E+03 21968   0.347E+02
DAV:   3    -0.374589316746E+02   -0.22873E+02   -0.22677E+02 29612   0.845E+01
DAV:   4    -0.392000062048E+02   -0.17411E+01   -0.17343E+01 27392   0.213E+01
DAV:   5    -0.392453017143E+02   -0.45296E-01   -0.45292E-01 25908   0.309E+00    0.178E+01
RMM:   6    -0.381235259628E+02    0.11218E+01   -0.45230E+00 20472   0.109E+01    0.783E+00
RMM:   7    -0.387279121858E+02   -0.60439E+00   -0.68494E-01 23148   0.508E+00    0.389E+00
RMM:   8    -0.388048881369E+02   -0.76976E-01   -0.30578E-01 27237   0.315E+00    0.156E+00
RMM:   9    -0.388151665680E+02   -0.10278E-01   -0.10178E-01 28756   0.204E+00    0.386E-01
RMM:  10    -0.388246368656E+02   -0.94703E-02   -0.53069E-02 32406   0.115E+00    0.187E-01
RMM:  11    -0.388284016056E+02   -0.37647E-02   -0.20288E-02 33078   0.669E-01    0.127E-01
RMM:  12    -0.388296922323E+02   -0.12906E-02   -0.85062E-03 34288   0.402E-01    0.909E-02
RMM:  13    -0.388301036891E+02   -0.41146E-03   -0.31877E-03 32871   0.272E-01    0.364E-02
RMM:  14    -0.388303599358E+02   -0.25625E-03   -0.16009E-03 33422   0.190E-01    0.872E-03
RMM:  15    -0.388304482191E+02   -0.88283E-04   -0.73178E-04 31656   0.112E-01    0.919E-03
RMM:  16    -0.388304818312E+02   -0.33612E-04   -0.30631E-04 30555   0.737E-02    0.571E-03
RMM:  17    -0.388304949101E+02   -0.13079E-04   -0.12140E-04 28078   0.508E-02    0.325E-03
RMM:  18    -0.388304992420E+02   -0.43319E-05   -0.43986E-05 24008   0.372E-02
   1 F= -.38830499E+02 E0= -.38830499E+02  d E =0.000000E+00  mag=    -0.0000
