   16   16    1    2
  0.1501020E+02  0.4890430E-09  0.5513026E-09  0.1010432E-08  0.5000000E-15
  1.000000000000000E-004
  CAR 
 unknown system                          
     64     60     48
 
  0.0000000E+00  0.0000000E+00  0.0000000E+00  0.5102041E-02
    1      -41.166968    -41.166397   1.000000   1.000000
    2      -41.165589    -41.165017   1.000000   1.000000
    3      -41.154698    -41.154126   1.000000   1.000000
    4      -41.154655    -41.154082   1.000000   1.000000
    5      -41.141501    -41.140944   1.000000   1.000000
    6      -41.140132    -41.139573   1.000000   1.000000
    7      -41.138284    -41.137726   1.000000   1.000000
    8      -41.138196    -41.137638   1.000000   1.000000
    9       -8.831534     -8.831734   1.000000   1.000000
   10       -8.523519     -8.523729   1.000000   1.000000
   11       -6.153180     -6.153406   1.000000   1.000000
   12       -5.757685     -5.757936   1.000000   1.000000
   13       -5.581398     -5.581651   1.000000   1.000000
   14       -5.455229     -5.455479   1.000000   1.000000
   15       -1.954435     -1.954683   1.000000   1.000000
   16       -1.701257     -1.701563   1.000000   1.000000
   17       -0.765032     -0.765196   1.000000   1.000000
   18       -0.087913     -0.088090   1.000000   1.000000
   19        0.043663      0.043566   1.000000   1.000000
   20        0.118221      0.118140   1.000000   1.000000
   21        0.831512      0.831440   1.000000   1.000000
   22        1.183040      1.182897   1.000000   1.000000
   23        1.365677      1.365603   1.000000   1.000000
   24        1.658244      1.658091   1.000000   1.000000
   25        2.175312      2.175201   1.000000   1.000000
   26        2.651243      2.651133   1.000000   1.000000
   27        2.846357      2.846185   1.000000   1.000000
   28        3.132201      3.132051   1.000000   1.000000
   29        3.558885      3.558804   1.000000   1.000000
   30        3.725968      3.725815   1.000000   1.000000
   31        3.854526      3.854331   1.000000   1.000000
   32        4.712816      4.712632   1.000000   1.000000
   33        5.835823      5.835722   0.000000   0.000000
   34        6.103139      6.103083   0.000000   0.000000
   35        6.544962      6.544966   0.000000   0.000000
   36        6.689453      6.689446   0.000000   0.000000
   37        7.095514      7.095495   0.000000   0.000000
   38        7.848768      7.848727   0.000000   0.000000
   39        7.879961      7.880126   0.000000   0.000000
   40        8.088202      8.088386   0.000000   0.000000
   41        8.789922      8.789935   0.000000   0.000000
   42        8.820895      8.821320   0.000000   0.000000
   43        9.317986      9.318306   0.000000   0.000000
   44        9.581719      9.583599   0.000000   0.000000
   45        9.739292      9.740090   0.000000   0.000000
   46        9.856666      9.856241   0.000000   0.000000
   47       10.320288     10.308403   0.000000   0.000000
   48       10.432755     10.429720   0.000000   0.000000
 
  0.1428571E+00  0.0000000E+00  0.0000000E+00  0.1020408E-01
    1      -41.166670    -41.166099   1.000000   1.000000
    2      -41.165459    -41.164887   1.000000   1.000000
    3      -41.154915    -41.154343   1.000000   1.000000
    4      -41.154899    -41.154327   1.000000   1.000000
    5      -41.141335    -41.140777   1.000000   1.000000
    6      -41.140040    -41.139481   1.000000   1.000000
    7      -41.138466    -41.137908   1.000000   1.000000
    8      -41.138271    -41.137714   1.000000   1.000000
    9       -8.752906     -8.753108   1.000000   1.000000
   10       -8.449521     -8.449731   1.000000   1.000000
   11       -6.478953     -6.479185   1.000000   1.000000
   12       -6.329857     -6.330098   1.000000   1.000000
   13       -5.177372     -5.177619   1.000000   1.000000
   14       -4.980211     -4.980461   1.000000   1.000000
   15       -2.319439     -2.319696   1.000000   1.000000
   16       -1.812320     -1.812606   1.000000   1.000000
   17       -0.676041     -0.676194   1.000000   1.000000
   18        0.030536      0.030456   1.000000   1.000000
   19        0.111741      0.111642   1.000000   1.000000
   20        0.201041      0.200851   1.000000   1.000000
   21        0.641582      0.641497   1.000000   1.000000
   22        1.289080      1.288952   1.000000   1.000000
   23        1.411104      1.410980   1.000000   1.000000
   24        1.542380      1.542277   1.000000   1.000000
   25        2.415329      2.415204   1.000000   1.000000
   26        2.747334      2.747177   1.000000   1.000000
   27        2.774026      2.773907   1.000000   1.000000
   28        3.088208      3.088064   1.000000   1.000000
   29        3.310254      3.310156   1.000000   1.000000
   30        3.513393      3.513319   1.000000   1.000000
   31        3.641354      3.641144   1.000000   1.000000
   32        4.757746      4.757557   1.000000   1.000000
   33        6.173094      6.172975   0.000000   0.000000
   34        6.524268      6.524214   0.000000   0.000000
   35        6.670140      6.670082   0.000000   0.000000
   36        6.693523      6.693521   0.000000   0.000000
   37        7.378083      7.378051   0.000000   0.000000
   38        7.694511      7.694520   0.000000   0.000000
   39        7.700572      7.700515   0.000000   0.000000
   40        8.515607      8.515770   0.000000   0.000000
   41        8.785047      8.785159   0.000000   0.000000
   42        9.063288      9.063399   0.000000   0.000000
   43        9.250113      9.250749   0.000000   0.000000
   44        9.530778      9.532457   0.000000   0.000000
   45        9.584830      9.585230   0.000000   0.000000
   46        9.881335      9.881754   0.000000   0.000000
   47       10.386606     10.382472   0.000000   0.000000
   48       10.776946     10.808132   0.000000   0.000000
 
  0.2857143E+00  0.0000000E+00  0.0000000E+00  0.1020408E-01
    1      -41.165960    -41.165388   1.000000   1.000000
    2      -41.165097    -41.164525   1.000000   1.000000
    3      -41.155449    -41.154877   1.000000   1.000000
    4      -41.155444    -41.154872   1.000000   1.000000
    5      -41.140878    -41.140320   1.000000   1.000000
    6      -41.139741    -41.139183   1.000000   1.000000
    7      -41.138869    -41.138311   1.000000   1.000000
    8      -41.138561    -41.138003   1.000000   1.000000
    9       -8.520339     -8.520545   1.000000   1.000000
   10       -8.232093     -8.232307   1.000000   1.000000
   11       -7.059417     -7.059647   1.000000   1.000000
   12       -6.913501     -6.913734   1.000000   1.000000
   13       -4.681968     -4.682207   1.000000   1.000000
   14       -4.321816     -4.322069   1.000000   1.000000
   15       -2.913518     -2.913769   1.000000   1.000000
   16       -2.339211     -2.339477   1.000000   1.000000
   17       -0.293884     -0.294029   1.000000   1.000000
   18       -0.047072     -0.047156   1.000000   1.000000
   19        0.309743      0.309626   1.000000   1.000000
   20        0.528050      0.527949   1.000000   1.000000
   21        0.662183      0.661996   1.000000   1.000000
   22        0.831620      0.831504   1.000000   1.000000
   23        1.464439      1.464323   1.000000   1.000000
   24        1.585415      1.585273   1.000000   1.000000
   25        2.133372      2.133292   1.000000   1.000000
   26        2.562769      2.562715   1.000000   1.000000
   27        2.846745      2.846633   1.000000   1.000000
   28        3.048849      3.048704   1.000000   1.000000
   29        3.358161      3.358000   1.000000   1.000000
   30        3.431085      3.430906   1.000000   1.000000
   31        3.601043      3.600921   1.000000   1.000000
   32        4.779039      4.778844   1.000000   1.000000
   33        6.511400      6.511376   0.000000   0.000000
   34        6.662331      6.662340   0.000000   0.000000
   35        6.800208      6.800095   0.000000   0.000000
   36        7.404937      7.404919   0.000000   0.000000
   37        7.497871      7.497748   0.000000   0.000000
   38        8.071421      8.071426   0.000000   0.000000
   39        8.090841      8.090795   0.000000   0.000000
   40        8.561194      8.561315   0.000000   0.000000
   41        8.912738      8.912784   0.000000   0.000000
   42        9.002472      9.002661   0.000000   0.000000
   43        9.632343      9.632458   0.000000   0.000000
   44        9.759348      9.759509   0.000000   0.000000
   45        9.867370      9.867289   0.000000   0.000000
   46       10.286953     10.287008   0.000000   0.000000
   47       10.550733     10.552490   0.000000   0.000000
   48       10.686082     10.687703   0.000000   0.000000
 
  0.4285714E+00  0.0000000E+00  0.0000000E+00  0.1020408E-01
    1      -41.165216    -41.164644   1.000000   1.000000
    2      -41.164886    -41.164314   1.000000   1.000000
    3      -41.155941    -41.155370   1.000000   1.000000
    4      -41.155937    -41.155366   1.000000   1.000000
    5      -41.140202    -41.139644   1.000000   1.000000
    6      -41.139470    -41.138912   1.000000   1.000000
    7      -41.139374    -41.138815   1.000000   1.000000
    8      -41.138978    -41.138420   1.000000   1.000000
    9       -8.144448     -8.144660   1.000000   1.000000
   10       -7.885524     -7.885744   1.000000   1.000000
   11       -7.645381     -7.645602   1.000000   1.000000
   12       -7.434940     -7.435166   1.000000   1.000000
   13       -4.132900     -4.133139   1.000000   1.000000
   14       -3.659686     -3.659940   1.000000   1.000000
   15       -3.537075     -3.537319   1.000000   1.000000
   16       -2.991398     -2.991657   1.000000   1.000000
   17        0.027037      0.026942   1.000000   1.000000
   18        0.089640      0.089516   1.000000   1.000000
   19        0.493974      0.493843   1.000000   1.000000
   20        0.531791      0.531660   1.000000   1.000000
   21        0.602030      0.601896   1.000000   1.000000
   22        1.000643      1.000514   1.000000   1.000000
   23        1.109945      1.109785   1.000000   1.000000
   24        1.462807      1.462656   1.000000   1.000000
   25        1.863318      1.863283   1.000000   1.000000
   26        1.990303      1.990279   1.000000   1.000000
   27        2.882279      2.882184   1.000000   1.000000
   28        3.037327      3.037185   1.000000   1.000000
   29        3.456130      3.455994   1.000000   1.000000
   30        3.682614      3.682458   1.000000   1.000000
   31        4.139436      4.139228   1.000000   1.000000
   32        4.611906      4.611699   1.000000   1.000000
   33        6.690174      6.690112   0.000000   0.000000
   34        6.713682      6.713641   0.000000   0.000000
   35        7.058285      7.058233   0.000000   0.000000
   36        7.260200      7.260072   0.000000   0.000000
   37        7.836117      7.836135   0.000000   0.000000
   38        8.289632      8.289635   0.000000   0.000000
   39        8.587834      8.587889   0.000000   0.000000
   40        8.953060      8.952991   0.000000   0.000000
   41        8.975568      8.975498   0.000000   0.000000
   42        9.490724      9.490754   0.000000   0.000000
   43        9.604602      9.604785   0.000000   0.000000
   44        9.847625      9.846894   0.000000   0.000000
   45       10.142291     10.142873   0.000000   0.000000
   46       10.498252     10.501563   0.000000   0.000000
   47       11.001069     11.095671   0.000000   0.000000
   48       11.180273     11.179228   0.000000   0.000000
 
  0.0000000E+00  0.1428571E+00  0.1210986E-16  0.1020408E-01
    1      -41.166580    -41.166009   1.000000   1.000000
    2      -41.165467    -41.164895   1.000000   1.000000
    3      -41.155026    -41.154454   1.000000   1.000000
    4      -41.154982    -41.154410   1.000000   1.000000
    5      -41.141396    -41.140838   1.000000   1.000000
    6      -41.140314    -41.139755   1.000000   1.000000
    7      -41.138178    -41.137620   1.000000   1.000000
    8      -41.138117    -41.137559   1.000000   1.000000
    9       -8.793707     -8.793909   1.000000   1.000000
   10       -8.536388     -8.536596   1.000000   1.000000
   11       -6.090996     -6.091224   1.000000   1.000000
   12       -5.789547     -5.789792   1.000000   1.000000
   13       -5.621097     -5.621339   1.000000   1.000000
   14       -5.552232     -5.552488   1.000000   1.000000
   15       -1.893340     -1.893598   1.000000   1.000000
   16       -1.615177     -1.615488   1.000000   1.000000
   17       -0.753120     -0.753283   1.000000   1.000000
   18       -0.336984     -0.337140   1.000000   1.000000
   19        0.040811      0.040719   1.000000   1.000000
   20        0.276826      0.276740   1.000000   1.000000
   21        0.728811      0.728721   1.000000   1.000000
   22        1.169120      1.168994   1.000000   1.000000
   23        1.403252      1.403154   1.000000   1.000000
   24        1.647139      1.646999   1.000000   1.000000
   25        2.042379      2.042265   1.000000   1.000000
   26        2.753864      2.753705   1.000000   1.000000
   27        2.802171      2.802065   1.000000   1.000000
   28        3.310842      3.310691   1.000000   1.000000
   29        3.692063      3.691971   1.000000   1.000000
   30        3.742077      3.741927   1.000000   1.000000
   31        3.893903      3.893693   1.000000   1.000000
   32        4.544312      4.544144   1.000000   1.000000
   33        6.122628      6.122518   0.000000   0.000000
   34        6.143389      6.143343   0.000000   0.000000
   35        6.627582      6.627566   0.000000   0.000000
   36        6.958869      6.958847   0.000000   0.000000
   37        6.984558      6.984547   0.000000   0.000000
   38        7.496350      7.496266   0.000000   0.000000
   39        7.966884      7.967051   0.000000   0.000000
   40        8.008164      8.008342   0.000000   0.000000
   41        9.105582      9.105690   0.000000   0.000000
   42        9.109647      9.109798   0.000000   0.000000
   43        9.166198      9.166231   0.000000   0.000000
   44        9.205878      9.205944   0.000000   0.000000
   45        9.662768      9.663578   0.000000   0.000000
   46       10.064894     10.064763   0.000000   0.000000
   47       10.115175     10.115043   0.000000   0.000000
   48       10.216322     10.216088   0.000000   0.000000
 
  0.1428571E+00  0.1428571E+00  0.1210986E-16  0.2040816E-01
    1      -41.166389    -41.165817   1.000000   1.000000
    2      -41.165296    -41.164724   1.000000   1.000000
    3      -41.155526    -41.154955   1.000000   1.000000
    4      -41.154782    -41.154210   1.000000   1.000000
    5      -41.141242    -41.140684   1.000000   1.000000
    6      -41.140234    -41.139676   1.000000   1.000000
    7      -41.138412    -41.137855   1.000000   1.000000
    8      -41.138172    -41.137614   1.000000   1.000000
    9       -8.715480     -8.715683   1.000000   1.000000
   10       -8.463137     -8.463350   1.000000   1.000000
   11       -6.439468     -6.439701   1.000000   1.000000
   12       -6.363177     -6.363419   1.000000   1.000000
   13       -5.228641     -5.228881   1.000000   1.000000
   14       -5.037998     -5.038250   1.000000   1.000000
   15       -2.249705     -2.249963   1.000000   1.000000
   16       -1.834934     -1.835220   1.000000   1.000000
   17       -0.614387     -0.614539   1.000000   1.000000
   18       -0.215306     -0.215403   1.000000   1.000000
   19        0.055003      0.054855   1.000000   1.000000
   20        0.453377      0.453257   1.000000   1.000000
   21        0.622764      0.622671   1.000000   1.000000
   22        1.208820      1.208682   1.000000   1.000000
   23        1.306683      1.306577   1.000000   1.000000
   24        1.609699      1.609585   1.000000   1.000000
   25        2.287568      2.287465   1.000000   1.000000
   26        2.670940      2.670796   1.000000   1.000000
   27        2.909998      2.909879   1.000000   1.000000
   28        3.303543      3.303382   1.000000   1.000000
   29        3.452505      3.452393   1.000000   1.000000
   30        3.620965      3.620782   1.000000   1.000000
   31        3.670800      3.670683   1.000000   1.000000
   32        4.759455      4.759262   1.000000   1.000000
   33        6.228225      6.228122   0.000000   0.000000
   34        6.537525      6.537483   0.000000   0.000000
   35        6.600810      6.600727   0.000000   0.000000
   36        6.869072      6.869032   0.000000   0.000000
   37        7.184894      7.184894   0.000000   0.000000
   38        7.459379      7.459356   0.000000   0.000000
   39        8.033004      8.033113   0.000000   0.000000
   40        8.568699      8.568775   0.000000   0.000000
   41        8.693212      8.693338   0.000000   0.000000
   42        9.213048      9.213070   0.000000   0.000000
   43        9.307614      9.307711   0.000000   0.000000
   44        9.538586      9.539025   0.000000   0.000000
   45        9.834119      9.833122   0.000000   0.000000
   46        9.996791      9.996859   0.000000   0.000000
   47       10.267859     10.268100   0.000000   0.000000
   48       10.517012     10.604931   0.000000   0.000000
 
  0.2857143E+00  0.1428571E+00  0.1210986E-16  0.2040816E-01
    1      -41.165867    -41.165295   1.000000   1.000000
    2      -41.164950    -41.164378   1.000000   1.000000
    3      -41.155996    -41.155425   1.000000   1.000000
    4      -41.155028    -41.154456   1.000000   1.000000
    5      -41.140801    -41.140243   1.000000   1.000000
    6      -41.140000    -41.139442   1.000000   1.000000
    7      -41.138834    -41.138277   1.000000   1.000000
    8      -41.138528    -41.137970   1.000000   1.000000
    9       -8.484358     -8.484565   1.000000   1.000000
   10       -8.248398     -8.248613   1.000000   1.000000
   11       -7.019806     -7.020038   1.000000   1.000000
   12       -6.943449     -6.943682   1.000000   1.000000
   13       -4.705049     -4.705284   1.000000   1.000000
   14       -4.401202     -4.401453   1.000000   1.000000
   15       -2.858712     -2.858963   1.000000   1.000000
   16       -2.427881     -2.428143   1.000000   1.000000
   17       -0.368531     -0.368619   1.000000   1.000000
   18       -0.081050     -0.081177   1.000000   1.000000
   19        0.271956      0.271818   1.000000   1.000000
   20        0.568544      0.568424   1.000000   1.000000
   21        0.655871      0.655740   1.000000   1.000000
   22        0.835224      0.835072   1.000000   1.000000
   23        1.432608      1.432506   1.000000   1.000000
   24        1.641301      1.641157   1.000000   1.000000
   25        2.264559      2.264478   1.000000   1.000000
   26        2.605092      2.605011   1.000000   1.000000
   27        2.999234      2.999132   1.000000   1.000000
   28        3.144632      3.144456   1.000000   1.000000
   29        3.347076      3.346937   1.000000   1.000000
   30        3.446262      3.446113   1.000000   1.000000
   31        3.674925      3.674780   1.000000   1.000000
   32        4.862604      4.862393   1.000000   1.000000
   33        6.560891      6.560833   0.000000   0.000000
   34        6.627855      6.627816   0.000000   0.000000
   35        7.004180      7.004114   0.000000   0.000000
   36        7.235404      7.235334   0.000000   0.000000
   37        7.472074      7.472030   0.000000   0.000000
   38        7.796947      7.796933   0.000000   0.000000
   39        8.341874      8.341891   0.000000   0.000000
   40        8.774201      8.774159   0.000000   0.000000
   41        8.828979      8.828980   0.000000   0.000000
   42        9.189198      9.189318   0.000000   0.000000
   43        9.618718      9.618991   0.000000   0.000000
   44        9.765580      9.765666   0.000000   0.000000
   45        9.996669      9.996754   0.000000   0.000000
   46       10.069361     10.069632   0.000000   0.000000
   47       10.419616     10.455492   0.000000   0.000000
   48       10.823805     11.026834   0.000000   0.000000
 
  0.4285714E+00  0.1428571E+00  0.1210986E-16  0.2040816E-01
    1      -41.165240    -41.164668   1.000000   1.000000
    2      -41.164861    -41.164289   1.000000   1.000000
    3      -41.156033    -41.155462   1.000000   1.000000
    4      -41.155586    -41.155015   1.000000   1.000000
    5      -41.140128    -41.139570   1.000000   1.000000
    6      -41.139732    -41.139174   1.000000   1.000000
    7      -41.139272    -41.138714   1.000000   1.000000
    8      -41.139089    -41.138531   1.000000   1.000000
    9       -8.112804     -8.113014   1.000000   1.000000
   10       -7.913081     -7.913299   1.000000   1.000000
   11       -7.599629     -7.599849   1.000000   1.000000
   12       -7.451737     -7.451964   1.000000   1.000000
   13       -4.131888     -4.132124   1.000000   1.000000
   14       -3.767301     -3.767553   1.000000   1.000000
   15       -3.495401     -3.495643   1.000000   1.000000
   16       -3.091939     -3.092192   1.000000   1.000000
   17       -0.223113     -0.223194   1.000000   1.000000
   18        0.077717      0.077618   1.000000   1.000000
   19        0.315479      0.315365   1.000000   1.000000
   20        0.476987      0.476854   1.000000   1.000000
   21        0.681132      0.680979   1.000000   1.000000
   22        1.184810      1.184659   1.000000   1.000000
   23        1.248186      1.248016   1.000000   1.000000
   24        1.487465      1.487320   1.000000   1.000000
   25        2.136263      2.136208   1.000000   1.000000
   26        2.345443      2.345400   1.000000   1.000000
   27        2.843331      2.843234   1.000000   1.000000
   28        3.030698      3.030559   1.000000   1.000000
   29        3.392388      3.392257   1.000000   1.000000
   30        3.508224      3.508086   1.000000   1.000000
   31        4.220791      4.220580   1.000000   1.000000
   32        4.701762      4.701542   1.000000   1.000000
   33        6.778029      6.777965   0.000000   0.000000
   34        6.861851      6.861814   0.000000   0.000000
   35        7.355014      7.354969   0.000000   0.000000
   36        7.537201      7.537035   0.000000   0.000000
   37        7.870101      7.870106   0.000000   0.000000
   38        8.311592      8.311585   0.000000   0.000000
   39        8.573564      8.573460   0.000000   0.000000
   40        8.797473      8.797503   0.000000   0.000000
   41        8.908291      8.908244   0.000000   0.000000
   42        9.077506      9.077519   0.000000   0.000000
   43        9.446980      9.446948   0.000000   0.000000
   44        9.730280      9.730372   0.000000   0.000000
   45       10.035597     10.034794   0.000000   0.000000
   46       10.205292     10.208220   0.000000   0.000000
   47       10.651389     10.645883   0.000000   0.000000
   48       10.816937     10.766521   0.000000   0.000000
 
  0.0000000E+00  0.2857143E+00 -0.1105815E-15  0.1020408E-01
    1      -41.165658    -41.165086   1.000000   1.000000
    2      -41.165106    -41.164534   1.000000   1.000000
    3      -41.155829    -41.155258   1.000000   1.000000
    4      -41.155717    -41.155145   1.000000   1.000000
    5      -41.140978    -41.140420   1.000000   1.000000
    6      -41.140812    -41.140254   1.000000   1.000000
    7      -41.138081    -41.137523   1.000000   1.000000
    8      -41.137824    -41.137265   1.000000   1.000000
    9       -8.700955     -8.701155   1.000000   1.000000
   10       -8.563373     -8.563588   1.000000   1.000000
   11       -6.031332     -6.031567   1.000000   1.000000
   12       -5.890832     -5.891064   1.000000   1.000000
   13       -5.760917     -5.761153   1.000000   1.000000
   14       -5.576457     -5.576714   1.000000   1.000000
   15       -1.880146     -1.880415   1.000000   1.000000
   16       -1.428281     -1.428604   1.000000   1.000000
   17       -0.774387     -0.774541   1.000000   1.000000
   18       -0.590820     -0.590966   1.000000   1.000000
   19        0.097446      0.097364   1.000000   1.000000
   20        0.383524      0.383475   1.000000   1.000000
   21        0.707711      0.707580   1.000000   1.000000
   22        1.014918      1.014814   1.000000   1.000000
   23        1.568289      1.568146   1.000000   1.000000
   24        1.609483      1.609336   1.000000   1.000000
   25        1.798899      1.798799   1.000000   1.000000
   26        2.678127      2.677981   1.000000   1.000000
   27        3.197901      3.197796   1.000000   1.000000
   28        3.246158      3.246023   1.000000   1.000000
   29        3.737099      3.736955   1.000000   1.000000
   30        3.862254      3.862043   1.000000   1.000000
   31        4.067005      4.066868   1.000000   1.000000
   32        4.572542      4.572344   1.000000   1.000000
   33        6.195460      6.195444   0.000000   0.000000
   34        6.299512      6.299436   0.000000   0.000000
   35        6.742100      6.742113   0.000000   0.000000
   36        6.858730      6.858624   0.000000   0.000000
   37        7.301846      7.301842   0.000000   0.000000
   38        7.623195      7.623207   0.000000   0.000000
   39        8.101406      8.101597   0.000000   0.000000
   40        8.231926      8.232091   0.000000   0.000000
   41        8.943715      8.943760   0.000000   0.000000
   42        9.048074      9.048178   0.000000   0.000000
   43        9.268352      9.268558   0.000000   0.000000
   44        9.316556      9.316687   0.000000   0.000000
   45        9.650975      9.651187   0.000000   0.000000
   46        9.870277      9.873377   0.000000   0.000000
   47       10.343068     10.334517   0.000000   0.000000
   48       10.618436     10.665929   0.000000   0.000000
 
  0.1428571E+00  0.2857143E+00 -0.1105815E-15  0.2040816E-01
    1      -41.165710    -41.165138   1.000000   1.000000
    2      -41.164903    -41.164331   1.000000   1.000000
    3      -41.156240    -41.155669   1.000000   1.000000
    4      -41.155234    -41.154662   1.000000   1.000000
    5      -41.140892    -41.140334   1.000000   1.000000
    6      -41.140722    -41.140164   1.000000   1.000000
    7      -41.138304    -41.137746   1.000000   1.000000
    8      -41.137987    -41.137428   1.000000   1.000000
    9       -8.623933     -8.624137   1.000000   1.000000
   10       -8.491116     -8.491327   1.000000   1.000000
   11       -6.500127     -6.500362   1.000000   1.000000
   12       -6.307698     -6.307937   1.000000   1.000000
   13       -5.413524     -5.413752   1.000000   1.000000
   14       -5.045794     -5.046044   1.000000   1.000000
   15       -2.141080     -2.141342   1.000000   1.000000
   16       -1.941053     -1.941326   1.000000   1.000000
   17       -0.588156     -0.588300   1.000000   1.000000
   18       -0.312925     -0.313016   1.000000   1.000000
   19       -0.028880     -0.029048   1.000000   1.000000
   20        0.531640      0.531538   1.000000   1.000000
   21        0.845968      0.845855   1.000000   1.000000
   22        0.939678      0.939548   1.000000   1.000000
   23        1.170154      1.170057   1.000000   1.000000
   24        1.719082      1.718949   1.000000   1.000000
   25        2.237088      2.236975   1.000000   1.000000
   26        2.646914      2.646789   1.000000   1.000000
   27        3.243210      3.243098   1.000000   1.000000
   28        3.341226      3.341038   1.000000   1.000000
   29        3.491178      3.490997   1.000000   1.000000
   30        3.758218      3.758097   1.000000   1.000000
   31        4.053344      4.053196   1.000000   1.000000
   32        4.659060      4.658879   1.000000   1.000000
   33        6.411125      6.411017   0.000000   0.000000
   34        6.547421      6.547377   0.000000   0.000000
   35        6.723671      6.723582   0.000000   0.000000
   36        6.984701      6.984646   0.000000   0.000000
   37        7.115842      7.115809   0.000000   0.000000
   38        7.811026      7.811076   0.000000   0.000000
   39        8.123851      8.123990   0.000000   0.000000
   40        8.425021      8.425032   0.000000   0.000000
   41        8.782456      8.782650   0.000000   0.000000
   42        9.180839      9.180723   0.000000   0.000000
   43        9.268381      9.268496   0.000000   0.000000
   44        9.551534      9.551595   0.000000   0.000000
   45        9.668724      9.668148   0.000000   0.000000
   46       10.176044     10.178669   0.000000   0.000000
   47       10.380726     10.338678   0.000000   0.000000
   48       10.692743     10.571054   0.000000   0.000000
 
  0.2857143E+00  0.2857143E+00 -0.1105815E-15  0.2040816E-01
    1      -41.165599    -41.165028   1.000000   1.000000
    2      -41.164720    -41.164148   1.000000   1.000000
    3      -41.156283    -41.155712   1.000000   1.000000
    4      -41.155006    -41.154434   1.000000   1.000000
    5      -41.140596    -41.140038   1.000000   1.000000
    6      -41.140469    -41.139911   1.000000   1.000000
    7      -41.138851    -41.138293   1.000000   1.000000
    8      -41.138465    -41.137907   1.000000   1.000000
    9       -8.397286     -8.397495   1.000000   1.000000
   10       -8.279209     -8.279424   1.000000   1.000000
   11       -7.031254     -7.031487   1.000000   1.000000
   12       -6.921640     -6.921872   1.000000   1.000000
   13       -4.844614     -4.844840   1.000000   1.000000
   14       -4.448551     -4.448801   1.000000   1.000000
   15       -2.755061     -2.755308   1.000000   1.000000
   16       -2.632879     -2.633135   1.000000   1.000000
   17       -0.558568     -0.558630   1.000000   1.000000
   18       -0.128732     -0.128859   1.000000   1.000000
   19        0.293275      0.293153   1.000000   1.000000
   20        0.484400      0.484276   1.000000   1.000000
   21        0.597176      0.597013   1.000000   1.000000