Automatically generated mesh
      60
Reciprocal lattice
    0.00000000000000    0.00000000000000    0.00000000000000             1
    0.14285714285715    0.00000000000000    0.00000000000000             2
    0.28571428571428    0.00000000000000    0.00000000000000             2
    0.42857142857143    0.00000000000000    0.00000000000000             2
    0.00000000000000    0.14285714285715    0.00000000000000             2
    0.14285714285715    0.14285714285715    0.00000000000000             4
    0.28571428571428    0.14285714285715    0.00000000000000             4
    0.42857142857143    0.14285714285715    0.00000000000000             4
    0.00000000000000    0.28571428571428   -0.00000000000000             2
    0.14285714285715    0.28571428571428   -0.00000000000000             4
    0.28571428571428    0.28571428571428   -0.00000000000000             4
    0.42857142857143    0.28571428571428   -0.00000000000000             4
    0.00000000000000    0.42857142857143   -0.00000000000000             2
    0.14285714285715    0.42857142857143   -0.00000000000000             4
    0.28571428571428    0.42857142857143   -0.00000000000000             4
    0.42857142857143    0.42857142857143   -0.00000000000000             4
    0.00000000000000   -0.00000000000000    0.25000000000000             2
    0.14285714285715   -0.00000000000000    0.25000000000000             4
    0.28571428571428   -0.00000000000000    0.25000000000000             4
    0.42857142857143   -0.00000000000000    0.25000000000000             4
    0.00000000000000    0.14285714285715    0.25000000000000             2
    0.14285714285715    0.14285714285715    0.25000000000000             4
    0.28571428571428    0.14285714285715    0.25000000000000             4
    0.42857142857143    0.14285714285715    0.25000000000000             4
    0.00000000000000    0.28571428571428    0.25000000000000             2
    0.14285714285715    0.28571428571428    0.25000000000000             4
    0.28571428571428    0.28571428571428    0.25000000000000             4
    0.42857142857143    0.28571428571428    0.25000000000000             4
    0.00000000000000    0.42857142857143    0.25000000000000             2
    0.14285714285715    0.42857142857143    0.25000000000000             4
    0.28571428571428    0.42857142857143    0.25000000000000             4
    0.42857142857143    0.42857142857143    0.25000000000000             4
    0.00000000000000   -0.42857142857143    0.25000000000000             2
    0.14285714285715   -0.42857142857143    0.25000000000000             4
    0.28571428571428   -0.42857142857143    0.25000000000000             4
    0.42857142857143   -0.42857142857143    0.25000000000000             4
    0.00000000000000   -0.28571428571428    0.25000000000000             2
    0.14285714285715   -0.28571428571428    0.25000000000000             4
    0.28571428571428   -0.28571428571428    0.25000000000000             4
    0.42857142857143   -0.28571428571428    0.25000000000000             4
    0.00000000000000   -0.14285714285715    0.25000000000000             2
    0.14285714285715   -0.14285714285715    0.25000000000000             4
    0.28571428571428   -0.14285714285715    0.25000000000000             4
    0.42857142857143   -0.14285714285715    0.25000000000000             4
    0.00000000000000   -0.00000000000000    0.50000000000000             1
    0.14285714285715   -0.00000000000000    0.50000000000000             2
    0.28571428571428   -0.00000000000000    0.50000000000000             2
    0.42857142857143   -0.00000000000000    0.50000000000000             2
    0.00000000000000    0.14285714285715    0.50000000000000             2
    0.14285714285715    0.14285714285715    0.50000000000000             4
    0.28571428571428    0.14285714285715    0.50000000000000             4
    0.42857142857143    0.14285714285715    0.50000000000000             4
    0.00000000000000    0.28571428571428    0.50000000000000             2
    0.14285714285715    0.28571428571428    0.50000000000000             4
    0.28571428571428    0.28571428571428    0.50000000000000             4
    0.42857142857143    0.28571428571428    0.50000000000000             4
    0.00000000000000    0.42857142857143    0.50000000000000             2
    0.14285714285715    0.42857142857143    0.50000000000000             4
    0.28571428571428    0.42857142857143    0.50000000000000             4
    0.42857142857143    0.42857142857143    0.50000000000000             4
Tetrahedra
       586    0.00085034013605
         2         2         5         6        21
         2         1         2         5        21
         2         1         2        17        21
         2         2         6        21        22
         2         2        18        21        22
         2         2        17        18        21
         2         3         6         7        22
         2         2         3         6        22
         2         2         3        18        22
         2         3         7        22        23
         2         3        19        22        23
         2         3        18        19        22
         2         4         7         8        23
         2         3         4         7        23
         2         3         4        19        23
         2         4         8        23        24
         2         4        20        23        24
         2         4        19        20        23
         2         4         8         8        24
         2         4         4         8        24
         2         4         4        20        24
         2         4         8        24        24
         2         4        20        24        24
         2         4        20        20        24
         2         3         7         8        24
         2         3         4         8        24
         2         3         4        20        24
         2         3         7        23        24
         2         3        19        23        24
         2         3        19        20        24
         2         2         6         7        23
         2         2         3         7        23
         2         2         3        19        23
         2         2         6        22        23
         2         2        18        22        23
         2         2        18        19        23
         2         1         5         6        22
         2         1         2         6        22
         2         1         2        18        22
         2         1         5        21        22
         2         1        17        21        22
         2         1        17        18        22
         2         6         9        10        25
         2         5         6         9        25
         2         5         6        21        25
         2         6        10        25        26
         2         6        22        25        26
         2         6        21        22        25
         2         7        10        11        26
         2         6         7        10        26
         2         6         7        22        26
         2         7        11        26        27
         2         7        23        26        27
         2         7        22        23        26
         2         8        11        12        27
         2         7         8        11        27
         2         7         8        23        27
         2         8        12        27        28
         2         8        24        27        28
         2         8        23        24        27
         2         8        12        12        28
         2         8         8        12        28
         2         8         8        24        28
         2         8        12        28        28
         2         8        24        28        28
         2         8        24        24        28
         2         7        11        12        28
         2         7         8        12        28
         2         7         8        24        28
         2         7        11        27        28
         2         7        23        27        28
         2         7        23        24        28
         2         6        10        11        27
         2         6         7        11        27
         2         6         7        23        27
         2         6        10        26        27
         2         6        22        26        27
         2         6        22        23        27
         2         5         9        10        26
         2         5         6        10        26
         2         5         6        22        26
         2         5         9        25        26
         2         5        21        25        26
         2         5        21        22        26
         2        10        13        14        29
         2         9        10        13        29
         2         9        10        25        29
         2        10        14        29        30
         2        10        26        29        30
         2        10        25        26        29
         2        11        14        15        30
         2        10        11        14        30
         2        10        11        26        30
         2        11        15        30        31
         2        11        27        30        31
         2        11        26        27        30
         2        12        15        16        31
         2        11        12        15        31
         2        11        12        27        31
         2        12        16        31        32
         2        12        28        31        32
         2        12        27        28        31
         2        12        16        16        32
         2        12        12        16        32
         2        12        12        28        32
         2        12        16        32        32
         2        12        28        32        32
         2        12        28        28        32
         2        11        15        16        32
         2        11        12        16        32
         2        11        12        28        32
         2        11        15        31        32
         2        11        27        31        32
         2        11        27        28        32
         2        10        14        15        31
         2        10        11        15        31
         2        10        11        27        31
         2        10        14        30        31
         2        10        26        30        31
         2        10        26        27        31
         2         9        13        14        30
         2         9        10        14        30
         2         9        10        26        30
         2         9        13        29        30
         2         9        25        29        30
         2         9        25        26        30
         2        13        14        14        33
         2        13        13        14        33
         2        13        14        29        33
         2        14        14        33        34
         2        14        30        33        34
         2        14        29        30        33
         2        14        15        15        34
         2        14        14        15        34
         2        14        15        30        34
         2        15        15        34        35
         2        15        31        34        35
         2        15        30        31        34
         2        15        16        16        35
         2        15        15        16        35
         2        15        16        31        35
         2        16        16        35        36
         2        16        32        35        36
         2        16        31        32        35
         4        16        16        16        36
         2        16        16        32        36
         2        16        16        36        36
         2        16        32        36        36
         2        16        32        32        36
         2        15        15        16        36
         2        15        16        16        36
         2        15        16        32        36
         2        15        15        35        36
         2        15        31        35        36
         2        15        31        32        36
         2        14        14        15        35
         2        14        15        15        35
         2        14        15        31        35
         2        14        14        34        35
         2        14        30        34        35
         2        14        30        31        35
         2        13        13        14        34
         2        13        14        14        34
         2        13        14        30        34
         2        13        13        33        34
         2        13        29        33        34
         2        13        29        30        34
         2         9        10        14        37
         2         9        13        14        37
         2        13        14        33        37
         2        10        14        37        38
         2        14        34        37        38
         2        14        33        34        37
         2        10        11        15        38
         2        10        14        15        38
         2        14        15        34        38
         2        11        15        38        39
         2        15        35        38        39
         2        15        34        35        38
         2        11        12        16        39
         2        11        15        16        39
         2        15        16        35        39
         2        12        16        39        40
         2        16        36        39        40
         2        16        35        36        39
         2        12        12        16        40
         2        12        16        16        40
         2        16        16        36        40
         2        12        16        40        40
         2        16        36        40        40
         2        16        36        36        40
         2        11        12        15        40
         2        12        15        16        40
         2        15        16        36        40
         2        11        15        39        40
         2        15        35        39        40
         2        15        35        36        40
         2        10        11        14        39
         2        11        14        15        39
         2        14        15        35        39
         2        10        14        38        39
         2        14        34        38        39
         2        14        34        35        39
         2         9        10        13        38
         2        10        13        14        38
         2        13        14        34        38
         2         9        13        37        38
         2        13        33        37        38
         2        13        33        34        38
         2         5         6        10        41
         2         5         9        10        41
         2         9        10        37        41
         2         6        10        41        42
         2        10        38        41        42
         2        10        37        38        41
         2         6         7        11        42
         2         6        10        11        42
         2        10        11        38        42
         2         7        11        42        43
         2        11        39        42        43
         2        11        38        39        42
         2         7         8        12        43
         2         7        11        12        43
         2        11        12        39        43
         2         8        12        43        44
         2        12        40        43        44
         2        12        39        40        43
         2         8         8        12        44
         2         8        12        12        44
         2        12        12        40        44
         2         8        12        44        44
         2        12        40        44        44
         2        12        40        40        44
         2         7         8        11        44
         2         8        11        12        44
         2        11        12        40        44
         2         7        11        43        44
         2        11        39        43        44
         2        11        39        40        44
         2         6         7        10        43
         2         7        10        11        43
         2        10        11        39        43
         2         6        10        42        43
         2        10        38        42        43
         2        10        38        39        43
         2         5         6         9        42
         2         6         9        10        42
         2         9        10        38        42
         2         5         9        41        42
         2         9        37        41        42
         2         9        37        38        42
         2         1         2         6        17
         2         1         5         6        17
         2         5         6        17        41
         2         2         6        17        18
         2         6        17        18        42
         2         6        17        41        42
         2         2         3         7        18
         2         2         6         7        18
         2         6         7        18        42
         2         3         7        18        19
         2         7        18        19        43
         2         7        18        42        43
         2         3         4         8        19
         2         3         7         8        19
         2         7         8        19        43
         2         4         8        19        20
         2         8        19        20        44
         2         8        19        43        44
         2         4         4         8        20
         2         4         8         8        20
         2         8         8        20        44
         2         4         8        20        20
         2         8        20        20        44
         2         8        20        44        44
         2         3         4         7        20
         2         4         7         8        20
         2         7         8        20        44
         2         3         7        19        20
         2         7        19        20        43
         2         7        20        43        44
         2         2         3         6        19
         2         3         6         7        19
         2         6         7        19        43
         2         2         6        18        19
         2         6        18        19        42
         2         6        19        42        43
         2         1         2         5        18
         2         2         5         6        18
         2         5         6        18        42
         2         1         5        17        18
         2         5        17        18        41
         2         5        18        41        42
         2        18        21        22        49
         2        17        18        21        49
         2        17        18        45        49
         2        18        22        49        50
         2        18        46        49        50
         2        18        45        46        49
         2        19        22        23        50
         2        18        19        22        50
         2        18        19        46        50
         2        19        23        50        51
         2        19        47        50        51
         2        19        46        47        50
         2        20        23        24        51
         2        19        20        23        51
         2        19        20        47        51
         2        20        24        51        52
         2        20        48        51        52
         2        20        47        48        51
         2        20        24        24        52
         2        20        20        24        52
         2        20        20        48        52
         2        20        24        52        52
         2        20        48        52        52
         2        20        48        48        52
         2        19        23        24        52
         2        19        20        24        52
         2        19        20        48        52
         2        19        23        51        52
         2        19        47        51        52
         2        19        47        48        52
         2        18        22        23        51
         2        18        19        23        51
         2        18        19        47        51
         2        18        22        50        51
         2        18        46        50        51
         2        18        46        47        51
         2        17        21        22        50
         2        17        18        22        50
         2        17        18        46        50
         2        17        21        49        50
         2        17        45        49        50
         2        17        45        46        50
         2        22        25        26        53
         2        21        22        25        53
         2        21        22        49        53
         2        22        26        53        54
         2        22        50        53        54
         2        22        49        50        53
         2        23        26        27        54
         2        22        23        26        54
         2        22        23        50        54
         2        23        27        54        55
         2        23        51        54        55
         2        23        50        51        54
         2        24        27        28        55
         2        23        24        27        55
         2        23        24        51        55
         2        24        28        55        56
         2        24        52        55        56
         2        24        51        52        55
         2        24        28        28        56
         2        24        24        28        56
         2        24        24        52        56
         2        24        28        56        56
         2        24        52        56        56
         2        24        52        52        56
         2        23        27        28        56
         2        23        24        28        56
         2        23        24        52        56
         2        23        27        55        56
         2        23        51        55        56
         2        23        51        52        56
         2        22        26        27        55
         2        22        23        27        55
         2        22        23        51        55
         2        22        26        54        55
         2        22        50        54        55
         2        22        50        51        55
         2        21        25        26        54
         2        21        22        26        54
         2        21        22        50        54
         2        21        25        53        54
         2        21        49        53        54
         2        21        49        50        54
         2        26        29        30        57
         2        25        26        29        57
         2        25        26        53        57
         2        26        30        57        58
         2        26        54        57        58
         2        26        53        54        57
         2        27        30        31        58
         2        26        27        30        58
         2        26        27        54        58
         2        27        31        58        59
         2        27        55        58        59
         2        27        54        55        58
         2        28        31        32        59
         2        27        28        31        59
         2        27        28        55        59
         2        28        32        59        60
         2        28        56        59        60
         2        28        55        56        59
         2        28        32        32        60
         2        28        28        32        60
         2        28        28        56        60
         2        28        32        60        60
         2        28        56        60        60
         2        28        56        56        60
         2        27        31        32        60
         2        27        28        32        60
         2        27        28        56        60
         2        27        31        59        60
         2        27        55        59        60
         2        27        55        56        60
         2        26        30        31        59
         2        26        27        31        59
         2        26        27        55        59
         2        26        30        58        59
         2        26        54        58        59
         2        26        54        55        59
         2        25        29        30        58
         2        25        26        30        58
         2        25        26        54        58
         2        25        29        57        58
         2        25        53        57        58
         2        25        53        54        58
         2        30        33        34        57
         2        29        30        33        57
         2        29        30        57        57
         2        30        34        57        58
         2        30        57        58        58
         2        30        57        57        58
         2        31        34        35        58
         2        30        31        34        58
         2        30        31        58        58
         2        31        35        58        59
         2        31        58        59        59
         2        31        58        58        59
         2        32        35        36        59
         2        31        32        35        59
         2        31        32        59        59
         2        32        36        59        60
         2        32        59        60        60
         2        32        59        59        60
         2        32        36        36        60
         2        32        32        36        60
         2        32        32        60        60
         2        32        36        60        60
         4        32        60        60        60
         2        31        35        36        60
         2        31        32        36        60
         2        31        32        60        60
         2        31        35        59        60
         2        31        59        59        60
         2        31        59        60        60
         2        30        34        35        59
         2        30        31        35        59
         2        30        31        59        59
         2        30        34        58        59
         2        30        58        58        59
         2        30        58        59        59
         2        29        33        34        58
         2        29        30        34        58
         2        29        30        58        58
         2        29        33        57        58
         2        29        57        57        58
         2        29        57        58        58
         2        34        37        38        53
         2        33        34        37        53
         2        33        34        53        57
         2        34        38        53        54
         2        34        53        54        58
         2        34        53        57        58
         2        35        38        39        54
         2        34        35        38        54
         2        34        35        54        58
         2        35        39        54        55
         2        35        54        55        59
         2        35        54        58        59
         2        36        39        40        55
         2        35        36        39        55
         2        35        36        55        59
         2        36        40        55        56
         2        36        55        56        60
         2        36        55        59        60
         2        36        40        40        56
         2        36        36        40        56
         2        36        36        56        60
         2        36        40        56        56
         2        36        56        56        60
         2        36        56        60        60
         2        35        39        40        56
         2        35        36        40        56
         2        35        36        56        60
         2        35        39        55        56
         2        35        55        56        59
         2        35        56        59        60
         2        34        38        39        55
         2        34        35        39        55
         2        34        35        55        59
         2        34        38        54        55
         2        34        54        55        58
         2        34        55        58        59
         2        33        37        38        54
         2        33        34        38        54