 running on    8 total cores
 distrk:  each k-point on    8 cores,    1 groups
 distr:  one band on    1 cores,    8 groups
 using from now: INCAR     
 vasp.6.1.2 22Jul20 (build Mar 20 2021 11:25:07) complex                        
  
 POSCAR found type information on POSCAR LiP 
 POSCAR found :  2 types and      16 ions
 scaLAPACK will be used
 -----------------------------------------------------------------------------
|                                                                             |
|           W    W    AA    RRRRR   N    N  II  N    N   GGGG   !!!           |
|           W    W   A  A   R    R  NN   N  II  NN   N  G    G  !!!           |
|           W    W  A    A  R    R  N N  N  II  N N  N  G       !!!           |
|           W WW W  AAAAAA  RRRRR   N  N N  II  N  N N  G  GGG   !            |
|           WW  WW  A    A  R   R   N   NN  II  N   NN  G    G                |
|           W    W  A    A  R    R  N    N  II  N    N   GGGG   !!!           |
|                                                                             |
|     The value NCORE = 6 specified in the INCAR file was overwritten,        |
|     because it was not compatible with the 8 processes available:           |
|     NCORE = 1                                                               |
|     was used instead, please check that this makes sense for your           |
|     machine.                                                                |
|                                                                             |
 -----------------------------------------------------------------------------

 -----------------------------------------------------------------------------
|                                                                             |
|           W    W    AA    RRRRR   N    N  II  N    N   GGGG   !!!           |
|           W    W   A  A   R    R  NN   N  II  NN   N  G    G  !!!           |
|           W    W  A    A  R    R  N N  N  II  N N  N  G       !!!           |
|           W WW W  AAAAAA  RRRRR   N  N N  II  N  N N  G  GGG   !            |
|           WW  WW  A    A  R   R   N   NN  II  N   NN  G    G                |
|           W    W  A    A  R    R  N    N  II  N    N   GGGG   !!!           |
|                                                                             |
|     For optimal performance we recommend to set                             |
|       NCORE = 4 - approx SQRT(number of cores).                             |
|     NCORE specifies how many cores store one orbital (NPAR=cpu/NCORE).      |
|     This setting can greatly improve the performance of VASP for DFT.       |
|     The default, NCORE=1 might be grossly inefficient on modern             |
|     multi-core architectures or massively parallel machines. Do your        |
|     own testing!!!!                                                         |
|     Unfortunately you need to use the default for GW and RPA                |
|     calculations (for HF NCORE is supported but not extensively tested      |
|     yet).                                                                   |
|                                                                             |
 -----------------------------------------------------------------------------

 LDA part: xc-table for Pade appr. of Perdew
 generate k-points for:    7    7    4
 POSCAR, INCAR and KPOINTS ok, starting setup
 FFT: planning ...
 WAVECAR not read
 entering main loop
       N       E                     dE             d eps       ncg     rms          rms(c)
DAV:   1     0.396937645193E+03    0.39694E+03   -0.25854E+04 11520   0.132E+03
DAV:   2    -0.435649154457E+01   -0.40129E+03   -0.36687E+03 12800   0.317E+02
DAV:   3    -0.559434199412E+02   -0.51587E+02   -0.50929E+02 16552   0.883E+01
DAV:   4    -0.634182146084E+02   -0.74748E+01   -0.73973E+01 20008   0.325E+01
DAV:   5    -0.640725492269E+02   -0.65433E+00   -0.65406E+00 16024   0.739E+00    0.215E+01
RMM:   6    -0.653866349353E+02   -0.13141E+01   -0.22376E+00 13994   0.585E+00    0.117E+01
RMM:   7    -0.666787559163E+02   -0.12921E+01   -0.53905E-01 16580   0.359E+00    0.616E+00
RMM:   8    -0.669052664491E+02   -0.22651E+00   -0.86440E-01 18345   0.333E+00    0.114E+00
RMM:   9    -0.669434861389E+02   -0.38220E-01   -0.13930E-01 19556   0.169E+00    0.521E-01
RMM:  10    -0.669537597510E+02   -0.10274E-01   -0.72100E-02 20729   0.927E-01    0.272E-01
RMM:  11    -0.669567774188E+02   -0.30177E-02   -0.26571E-02 20787   0.593E-01    0.172E-01
RMM:  12    -0.669581179842E+02   -0.13406E-02   -0.12717E-02 21601   0.399E-01    0.113E-01
RMM:  13    -0.669587613419E+02   -0.64336E-03   -0.57018E-03 21625   0.270E-01    0.484E-02
RMM:  14    -0.669591075151E+02   -0.34617E-03   -0.29581E-03 21366   0.181E-01    0.145E-02
RMM:  15    -0.669592776732E+02   -0.17016E-03   -0.15034E-03 20019   0.127E-01    0.155E-02
RMM:  16    -0.669593647026E+02   -0.87029E-04   -0.76836E-04 19953   0.909E-02    0.202E-02
RMM:  17    -0.669594158664E+02   -0.51164E-04   -0.41424E-04 19221   0.682E-02    0.335E-02
RMM:  18    -0.669594437802E+02   -0.27914E-04   -0.21202E-04 16857   0.540E-02    0.447E-02
RMM:  19    -0.669594825373E+02   -0.38757E-04   -0.20164E-04 18643   0.530E-02    0.806E-02
WARNING in EDDRMM: call to ZHEGV failed, returncode =   6  3      4
RMM:  20    -0.669594589053E+02    0.23632E-04   -0.13810E-04 17479   0.490E-02    0.353E-02
RMM:  21    -0.669594548833E+02    0.40220E-05   -0.35678E-05 14139   0.341E-02
   1 F= -.66959455E+02 E0= -.66959455E+02  d E =0.000000E+00  mag=    -0.0000
