    4    4    1    2
  0.1017900E+02  0.3534477E-09  0.3534477E-09  0.3763430E-09  0.5000000E-15
  1.000000000000000E-004
  CAR 
 unknown system                          
     14     70     16
 
  0.0000000E+00  0.0000000E+00  0.0000000E+00  0.1111111E-02
    1      -42.682311    -42.681544   1.000000   1.000000
    2      -42.245632    -42.244837   1.000000   1.000000
    3      -42.145908    -42.145135   1.000000   1.000000
    4       -9.830402     -9.830269   1.000000   1.000000
    5        0.036581      0.036710   1.000000   1.000000
    6        1.501887      1.501935   1.000000   1.000000
    7        1.501910      1.501959   1.000000   1.000000
    8        3.014573      3.013951   0.000000   0.000000
    9        9.365573      9.365493   0.000000   0.000000
   10        9.365650      9.365574   0.000000   0.000000
   11       10.522444     10.522238   0.000000   0.000000
   12       14.719847     14.719391   0.000000   0.000000
   13       14.719910     14.719428   0.000000   0.000000
   14       15.742610     15.745645   0.000000   0.000000
   15       16.510310     16.509366   0.000000   0.000000
   16       19.176909     19.176277   0.000000   0.000000
 
  0.1000000E+00  0.3551758E-17  0.0000000E+00  0.6666667E-02
    1      -42.672487    -42.671719   1.000000   1.000000
    2      -42.254903    -42.254109   1.000000   1.000000
    3      -42.145976    -42.145202   1.000000   1.000000
    4       -9.821301     -9.821169   1.000000   1.000000
    5        0.108370      0.108503   1.000000   1.000000
    6        1.110595      1.110579   1.000000   1.000000
    7        1.370723      1.370771   1.000000   1.000000
    8        3.380667      3.380109   0.000000   0.000000
    9        9.423588      9.423464   0.000000   0.000000
   10        9.680194      9.680106   0.000000   0.000000
   11       10.383633     10.383428   0.000000   0.000000
   12       14.486493     14.486073   0.000000   0.000000
   13       14.608970     14.608507   0.000000   0.000000
   14       15.786911     15.788300   0.000000   0.000000
   15       16.415436     16.414559   0.000000   0.000000
   16       18.002313     18.001881   0.000000   0.000000
 
  0.2000000E+00  0.7103517E-17  0.0000000E+00  0.6666667E-02
    1      -42.644377    -42.643608   1.000000   1.000000
    2      -42.281429    -42.280636   1.000000   1.000000
    3      -42.146093    -42.145319   1.000000   1.000000
    4       -9.797465     -9.797338   1.000000   1.000000
    5        0.305900      0.306042   1.000000   1.000000
    6        0.434206      0.434166   1.000000   1.000000
    7        1.060281      1.060326   1.000000   1.000000
    8        4.051843      4.051309   0.000000   0.000000
    9        9.311437      9.311164   0.000000   0.000000
   10       10.023570     10.023367   0.000000   0.000000
   11       10.458829     10.458692   0.000000   0.000000
   12       14.210603     14.210266   0.000000   0.000000
   13       14.475150     14.474711   0.000000   0.000000
   14       15.744457     15.744726   0.000000   0.000000
   15       16.134437     16.134107   0.000000   0.000000
   16       16.695672     16.695217   0.000000   0.000000
 
  0.3000000E+00  0.1009175E-16  0.0000000E+00  0.6666667E-02
    1      -42.602468    -42.601697   1.000000   1.000000
    2      -42.321280    -42.320490   1.000000   1.000000
    3      -42.146231    -42.145458   1.000000   1.000000
    4       -9.768356     -9.768234   1.000000   1.000000
    5       -0.159574     -0.159607   1.000000   1.000000
    6        0.572595      0.572752   1.000000   1.000000
    7        0.726332      0.726375   1.000000   1.000000
    8        4.810966      4.810427   0.000000   0.000000
    9        8.662473      8.662035   0.000000   0.000000
   10        9.570234      9.570030   0.000000   0.000000
   11       11.247300     11.247044   0.000000   0.000000
   12       14.417034     14.416854   0.000000   0.000000
   13       14.654151     14.653841   0.000000   0.000000
   14       14.767653     14.767309   0.000000   0.000000
   15       15.715493     15.715277   0.000000   0.000000
   16       17.317477     17.317025   0.000000   0.000000
 
  0.4000000E+00  0.3849795E-16  0.0000000E+00  0.6666667E-02
    1      -42.556634    -42.555859   1.000000   1.000000
    2      -42.365458    -42.364671   1.000000   1.000000
    3      -42.146353    -42.145580   1.000000   1.000000
    4       -9.745027     -9.744909   1.000000   1.000000
    5       -0.548646     -0.548668   1.000000   1.000000
    6        0.485943      0.485984   1.000000   1.000000
    7        0.811120      0.811293   1.000000   1.000000
    8        5.665340      5.664794   0.000000   0.000000
    9        7.670335      7.669812   0.000000   0.000000
   10        9.181981      9.181774   0.000000   0.000000
   11       11.624660     11.624278   0.000000   0.000000
   12       13.744004     13.743696   0.000000   0.000000
   13       14.725614     14.727024   0.000000   0.000000
   14       15.718565     15.718315   0.000000   0.000000
   15       15.885084     15.884182   0.000000   0.000000
   16       17.822714     17.778495   0.000000   0.000000
 
  0.5000000E+00  0.1702375E-17  0.0000000E+00  0.3333333E-02
    1      -42.531994    -42.531217   1.000000   1.000000
    2      -42.389523    -42.388738   1.000000   1.000000
    3      -42.146444    -42.145671   1.000000   1.000000
    4       -9.736292     -9.736175   1.000000   1.000000
    5       -0.683052     -0.683071   1.000000   1.000000
    6        0.399806      0.399847   1.000000   1.000000
    7        0.908766      0.908945   1.000000   1.000000
    8        6.605094      6.604637   0.000000   0.000000
    9        6.713229      6.685367   0.000000   0.000000
   10        9.025526      9.025316   0.000000   0.000000
   11       11.700410     11.699983   0.000000   0.000000
   12       13.440800     13.440492   0.000000   0.000000
   13       14.808821     14.808758   0.000000   0.000000
   14       16.063660     16.061608   0.000000   0.000000
   15       16.436483     16.436182   0.000000   0.000000
   16       17.530365     17.537120   0.000000   0.000000
 
  0.1000000E+00  0.1000000E+00  0.0000000E+00  0.6666667E-02
    1      -42.653480    -42.652712   1.000000   1.000000
    2      -42.272797    -42.272004   1.000000   1.000000
    3      -42.146057    -42.145283   1.000000   1.000000
    4       -9.804820     -9.804692   1.000000   1.000000
    5        0.243198      0.243337   1.000000   1.000000
    6        0.627088      0.627049   1.000000   1.000000
    7        1.135301      1.135345   1.000000   1.000000
    8        3.867263      3.866728   0.000000   0.000000
    9        9.446875      9.446651   0.000000   0.000000
   10       10.140893     10.140689   0.000000   0.000000
   11       10.153647     10.153526   0.000000   0.000000
   12       14.278311     14.277991   0.000000   0.000000
   13       14.419012     14.418570   0.000000   0.000000
   14       15.868114     15.868820   0.000000   0.000000
   15       16.490894     16.490577   0.000000   0.000000
   16       16.537996     16.537191   0.000000   0.000000
 
  0.2000000E+00  0.1000000E+00  0.0000000E+00  0.1333333E-01
    1      -42.618204    -42.617433   1.000000   1.000000
    2      -42.306266    -42.305475   1.000000   1.000000
    3      -42.146244    -42.145471   1.000000   1.000000
    4       -9.778587     -9.778464   1.000000   1.000000
    5        0.062139      0.062103   1.000000   1.000000
    6        0.476588      0.476739   1.000000   1.000000
    7        0.788209      0.788252   1.000000   1.000000
    8        4.551835      4.551298   0.000000   0.000000
    9        9.109941      9.109546   0.000000   0.000000
   10        9.768812      9.768609   0.000000   0.000000
   11       10.732376     10.732167   0.000000   0.000000
   12       14.321649     14.321392   0.000000   0.000000
   13       14.538767     14.538447   0.000000   0.000000
   14       14.811762     14.811486   0.000000   0.000000
   15       15.959341     15.959390   0.000000   0.000000
   16       17.071063     17.070413   0.000000   0.000000
 
  0.3000000E+00  0.1000000E+00  0.0000000E+00  0.1333333E-01
    1      -42.572913    -42.572139   1.000000   1.000000
    2      -42.349700    -42.348911   1.000000   1.000000
    3      -42.146453    -42.145680   1.000000   1.000000
    4       -9.752749     -9.752630   1.000000   1.000000
    5       -0.382077     -0.382101   1.000000   1.000000
    6        0.483153      0.483192   1.000000   1.000000
    7        0.732710      0.732878   1.000000   1.000000
    8        5.346959      5.346410   0.000000   0.000000
    9        8.274204      8.273694   0.000000   0.000000
   10        9.405322      9.405116   0.000000   0.000000
   11       11.097343     11.097019   0.000000   0.000000
   12       13.556217     13.555950   0.000000   0.000000
   13       14.674480     14.674400   0.000000   0.000000
   14       15.224646     15.224379   0.000000   0.000000
   15       16.219735     16.219502   0.000000   0.000000
   16       17.707088     17.707493   0.000000   0.000000
 
  0.4000000E+00  0.1000000E+00  0.0000000E+00  0.1333333E-01
    1      -42.532335    -42.531558   1.000000   1.000000
    2      -42.389065    -42.388279   1.000000   1.000000
    3      -42.146573    -42.145800   1.000000   1.000000
    4       -9.737009     -9.736894   1.000000   1.000000
    5       -0.620343     -0.620359   1.000000   1.000000
    6        0.311232      0.311268   1.000000   1.000000
    7        0.904980      0.905159   1.000000   1.000000
    8        6.249753      6.249189   0.000000   0.000000
    9        7.252497      7.251951   0.000000   0.000000
   10        9.175924      9.175714   0.000000   0.000000
   11       11.214221     11.213839   0.000000   0.000000
   12       12.898388     12.898121   0.000000   0.000000
   13       14.848265     14.848272   0.000000   0.000000
   14       16.106817     16.105919   0.000000   0.000000
   15       16.710169     16.708958   0.000000   0.000000
   16       17.944944     17.950515   0.000000   0.000000
 
  0.2000000E+00  0.2000000E+00  0.0000000E+00  0.6666667E-02
    1      -42.578609    -42.577836   1.000000   1.000000
    2      -42.344127    -42.343338   1.000000   1.000000
    3      -42.146523    -42.145750   1.000000   1.000000
    4       -9.755921     -9.755802   1.000000   1.000000
    5       -0.273664     -0.273689   1.000000   1.000000
    6        0.426039      0.426076   1.000000   1.000000
    7        0.702309      0.702474   1.000000   1.000000
    8        5.255949      5.255397   0.000000   0.000000
    9        8.701221      8.700691   0.000000   0.000000
   10        9.554073      9.553867   0.000000   0.000000
   11       10.568973     10.568703   0.000000   0.000000
   12       13.278212     13.277968   0.000000   0.000000
   13       14.690104     14.689967   0.000000   0.000000
   14       15.021256     15.021011   0.000000   0.000000
   15       16.566036     16.566270   0.000000   0.000000
   16       17.713334     17.712645   0.000000   0.000000
 
  0.3000000E+00  0.2000000E+00  0.0000000E+00  0.1333333E-01
    1      -42.532816    -42.532040   1.000000   1.000000
    2      -42.388456    -42.387670   1.000000   1.000000
    3      -42.146829    -42.146056   1.000000   1.000000
    4       -9.738258     -9.738144   1.000000   1.000000
    5       -0.485531     -0.485542   1.000000   1.000000
    6        0.135659      0.135689   1.000000   1.000000
    7        0.898874      0.899052   1.000000   1.000000
    8        6.084772      6.084192   0.000000   0.000000
    9        7.951932      7.951346   0.000000   0.000000
   10        9.484711      9.484500   0.000000   0.000000
   11       10.371237     10.370938   0.000000   0.000000
   12       12.119814     12.119579   0.000000   0.000000
   13       14.929964     14.929903   0.000000   0.000000
   14       15.857245     15.857043   0.000000   0.000000
   15       17.375587     17.375756   0.000000   0.000000
   16       18.197291     18.197401   0.000000   0.000000
 
  0.4000000E+00  0.2000000E+00  0.0000000E+00  0.6666667E-02
    1      -42.504534    -42.503756   1.000000   1.000000
    2      -42.416152    -42.415368   1.000000   1.000000
    3      -42.146928    -42.146155   1.000000   1.000000
    4       -9.731710     -9.731597   1.000000   1.000000
    5       -0.554749     -0.554755   1.000000   1.000000
    6        0.025216      0.025243   1.000000   1.000000
    7        0.977738      0.977922   1.000000   1.000000
    8        6.857284      6.856639   0.000000   0.000000
    9        7.173288      7.172750   0.000000   0.000000
   10        9.500656      9.500443   0.000000   0.000000
   11       10.308156     10.307844   0.000000   0.000000
   12       11.667073     11.666841   0.000000   0.000000
   13       14.984193     14.984162   0.000000   0.000000
   14       16.487318     16.487078   0.000000   0.000000
   15       17.813780     17.815592   0.000000   0.000000
   16       17.945727     17.943525   0.000000   0.000000
 
  0.3000000E+00  0.3000000E+00  0.0000000E+00  0.6666667E-02
    1      -42.487616    -42.486837   1.000000   1.000000
    2      -42.432578    -42.431795   1.000000   1.000000
    3      -42.147045    -42.146273   1.000000   1.000000
    4       -9.729807     -9.729696   1.000000   1.000000
    5       -0.437598     -0.437596   1.000000   1.000000
    6       -0.178631     -0.178613   1.000000   1.000000
    7        1.004638      1.004822   1.000000   1.000000
    8        6.870707      6.870080   0.000000   0.000000
    9        7.555817      7.555175   0.000000   0.000000
   10        9.762627      9.762400   0.000000   0.000000
   11        9.899296      9.899081   0.000000   0.000000
   12       10.922934     10.922712   0.000000   0.000000
   13       15.049453     15.049391   0.000000   0.000000
   14       16.670428     16.670202   0.000000   0.000000
   15       17.649907     17.648711   0.000000   0.000000
   16       18.898953     18.895005   0.000000   0.000000
 
  0.0000000E+00  0.0000000E+00  0.1111111E+00  0.2222222E-02
    1      -42.681827    -42.681060   1.000000   1.000000
    2      -42.245633    -42.244838   1.000000   1.000000
    3      -42.146299    -42.145526   1.000000   1.000000
    4       -9.839299     -9.839166   1.000000   1.000000
    5       -0.173051     -0.172997   1.000000   1.000000
    6        1.526892      1.526942   1.000000   1.000000
    7        1.526915      1.526965   1.000000   1.000000
    8        3.380885      3.380342   0.000000   0.000000
    9        9.445711      9.445637   0.000000   0.000000
   10        9.445789      9.445717   0.000000   0.000000
   11       10.408576     10.408408   0.000000   0.000000
   12       14.373839     14.373416   0.000000   0.000000
   13       14.373900     14.373452   0.000000   0.000000
   14       15.946113     15.947570   0.000000   0.000000
   15       16.145605     16.144668   0.000000   0.000000
   16       19.526227     19.523550   0.000000   0.000000
 
  0.1000000E+00  0.3551758E-17  0.1111111E+00  0.1333333E-01
    1      -42.671973    -42.671206   1.000000   1.000000
    2      -42.254875    -42.254081   1.000000   1.000000
    3      -42.146299    -42.145526   1.000000   1.000000
    4       -9.830762     -9.830631   1.000000   1.000000
    5       -0.105225     -0.105175   1.000000   1.000000
    6        1.206088      1.206114   1.000000   1.000000
    7        1.397254      1.397303   1.000000   1.000000
    8        3.665016      3.664503   0.000000   0.000000
    9        9.495558      9.495435   0.000000   0.000000
   10        9.756984      9.756901   0.000000   0.000000
   11       10.285739     10.285575   0.000000   0.000000
   12       14.168048     14.167630   0.000000   0.000000
   13       14.205237     14.204812   0.000000   0.000000
   14       15.764343     15.763670   0.000000   0.000000
   15       15.985980     15.986308   0.000000   0.000000
   16       18.790515     18.788860   0.000000   0.000000
 
  0.2000000E+00  0.7103517E-17  0.1111111E+00  0.1333333E-01
    1      -42.643933    -42.643164   1.000000   1.000000
    2      -42.281344    -42.280552   1.000000   1.000000
    3      -42.146282    -42.145509   1.000000   1.000000
    4       -9.808683     -9.808557   1.000000   1.000000
    5        0.033265      0.033279   1.000000   1.000000
    6        0.662352      0.662415   1.000000   1.000000
    7        1.089991      1.090038   1.000000   1.000000
    8        4.211679      4.211175   0.000000   0.000000
    9        9.207394      9.207129   0.000000   0.000000
   10       10.142563     10.142377   0.000000   0.000000
   11       10.516497     10.516359   0.000000   0.000000
   12       13.758595     13.758269   0.000000   0.000000
   13       13.964659     13.964278   0.000000   0.000000
   14       15.347926     15.347444   0.000000   0.000000
   15       16.167808     16.167851   0.000000   0.000000
   16       17.773408     17.772912   0.000000   0.000000
 
  0.3000000E+00  0.1009175E-16  0.1111111E+00  0.1333333E-01
    1      -42.602208    -42.601437   1.000000   1.000000
    2      -42.321247    -42.320456   1.000000   1.000000
    3      -42.146361    -42.145588   1.000000   1.000000
    4       -9.781955     -9.781834   1.000000   1.000000
    5       -0.156195     -0.156233   1.000000   1.000000
    6        0.587053      0.587202   1.000000   1.000000
    7        0.758912      0.758957   1.000000   1.000000
    8        4.808744      4.808225   0.000000   0.000000
    9        8.334930      8.334543   0.000000   0.000000
   10       10.047439     10.047194   0.000000   0.000000
   11       11.221401     11.221125   0.000000   0.000000
   12       13.512252     13.512052   0.000000   0.000000
   13       14.188577     14.188327   0.000000   0.000000
   14       14.997625     14.997280   0.000000   0.000000
   15       16.262808     16.262754   0.000000   0.000000
   16       17.725122     17.724637   0.000000   0.000000
 
  0.4000000E+00  0.3849795E-16  0.1111111E+00  0.1333333E-01
    1      -42.556522    -42.555747   1.000000   1.000000
    2      -42.365410    -42.364623   1.000000   1.000000
    3      -42.146437    -42.145664   1.000000   1.000000
    4       -9.760663     -9.760546   1.000000   1.000000
    5       -0.482491     -0.482510   1.000000   1.000000
    6        0.520348      0.520391   1.000000   1.000000
    7        0.816774      0.816940   1.000000   1.000000
    8        5.431299      5.430759   0.000000   0.000000
    9        7.338564      7.338108   0.000000   0.000000
   10        9.934607      9.934341   0.000000   0.000000
   11       11.467564     11.467167   0.000000   0.000000
   12       13.056261     13.056027   0.000000   0.000000
   13       15.037336     15.037211   0.000000   0.000000
   14       15.037473     15.037313   0.000000   0.000000
   15       16.434398     16.434032   0.000000   0.000000
   16       18.028829     18.028893   0.000000   0.000000
 
  0.5000000E+00  0.1702375E-17  0.1111111E+00  0.6666667E-02
    1      -42.531941    -42.531164   1.000000   1.000000
    2      -42.389345    -42.388560   1.000000   1.000000
    3      -42.146430    -42.145657   1.000000   1.000000
    4       -9.752597     -9.752482   1.000000   1.000000
    5       -0.604666     -0.604678   1.000000   1.000000
    6        0.434810      0.434853   1.000000   1.000000
    7        0.926004      0.926180   1.000000   1.000000
    8        5.885445      5.884880   0.000000   0.000000
    9        6.726209      6.725747   0.000000   0.000000
   10        9.890029      9.889760   0.000000   0.000000
   11       11.491931     11.491502   0.000000   0.000000
   12       12.815400     12.815144   0.000000   0.000000
   13       15.091679     15.091577   0.000000   0.000000
   14       15.572115     15.572022   0.000000   0.000000
   15       16.626145     16.623775   0.000000   0.000000
   16       18.073612     18.073617   0.000000   0.000000
 
  0.1000000E+00  0.1000000E+00  0.1111111E+00  0.1333333E-01
    1      -42.653032    -42.652264   1.000000   1.000000
    2      -42.272785    -42.271992   1.000000   1.000000
    3      -42.146314    -42.145541   1.000000   1.000000
    4       -9.815563     -9.815436   1.000000   1.000000
    5        0.003489      0.003523   1.000000   1.000000
    6        0.804360      0.804401   1.000000   1.000000
    7        1.165218      1.165265   1.000000   1.000000
    8        4.060963      4.060459   0.000000   0.000000
    9        9.509417      9.509185   0.000000   0.000000
   10        9.874525      9.874367   0.000000   0.000000
   11       10.419547     10.419419   0.000000   0.000000
   12       13.729633     13.729256   0.000000   0.000000
   13       14.077374     14.077068   0.000000   0.000000
   14       15.678126     15.677457   0.000000   0.000000
   15       15.987080     15.987940   0.000000   0.000000
   16       17.922284     17.921413   0.000000   0.000000
 
  0.2000000E+00  0.1000000E+00  0.1111111E+00  0.2666667E-01
    1      -42.617884    -42.617113   1.000000   1.000000
    2      -42.306199    -42.305408   1.000000   1.000000
    3      -42.146378    -42.145605   1.000000   1.000000
    4       -9.791343     -9.791221   1.000000   1.000000
    5       -0.015045     -0.015081   1.000000   1.000000
    6        0.549432      0.549566   1.000000   1.000000
    7        0.823529      0.823574   1.000000   1.000000
    8        4.606881      4.606367   0.000000   0.000000
    9        8.944719      8.944348   0.000000   0.000000
   10        9.792112      9.791884   0.000000   0.000000
   11       10.970319     10.970112   0.000000   0.000000
   12       13.394726     13.394516   0.000000   0.000000
   13       14.135967     14.135697   0.000000   0.000000
   14       15.397436     15.396983   0.000000   0.000000
   15       16.201602     16.201718   0.000000   0.000000
   16       17.519923     17.519384   0.000000   0.000000
 
  0.3000000E+00  0.1000000E+00  0.1111111E+00  0.2666667E-01
    1      -42.572691    -42.571917   1.000000   1.000000
    2      -42.349622    -42.348834   1.000000   1.000000
    3      -42.146489    -42.145716   1.000000   1.000000
    4       -9.767660     -9.767541   1.000000   1.000000
    5       -0.333991     -0.334016   1.000000   1.000000
    6        0.518803      0.518845   1.000000   1.000000
    7        0.740422      0.740583   1.000000   1.000000
    8        5.203436      5.202900   0.000000   0.000000
    9        7.945874      7.945414   0.000000   0.000000
   10        9.832303      9.832038   0.000000   0.000000
   11       11.145215     11.144903   0.000000   0.000000
   12       13.119999     13.119833   0.000000   0.000000
   13       14.563839     14.563711   0.000000   0.000000
   14       15.283368     15.283050   0.000000   0.000000
   15       16.545981     16.545791   0.000000   0.000000
   16       17.868805     17.866794   0.000000   0.000000
 
  0.4000000E+00  0.1000000E+00  0.1111111E+00  0.2666667E-01
    1      -42.532233    -42.531457   1.000000   1.000000
    2      -42.388988    -42.388202   1.000000   1.000000
    3      -42.146575    -42.145802   1.000000   1.000000
    4       -9.753359     -9.753245   1.000000   1.000000
    5       -0.545744     -0.545754   1.000000   1.000000
    6        0.349761      0.349800   1.000000   1.000000
    7        0.925380      0.925557   1.000000   1.000000
    8        5.802785      5.802222   0.000000   0.000000
    9        7.039032      7.038541   0.000000   0.000000
   10        9.951375      9.951109   0.000000   0.000000
   11       10.951207     10.950865   0.000000   0.000000
   12       12.834321     12.834093   0.000000   0.000000
   13       14.895851     14.895802   0.000000   0.000000
   14       15.619015     15.618776   0.000000   0.000000
   15       17.087219     17.085893   0.000000   0.000000
   16       18.041101     18.040425   0.000000   0.000000
 
  0.2000000E+00  0.2000000E+00  0.1111111E+00  0.1333333E-01
    1      -42.578376    -42.577602   1.000000   1.000000
    2      -42.344084    -42.343296   1.000000   1.000000
    3      -42.146572    -42.145799   1.000000   1.000000
    4       -9.770607     -9.770489   1.000000   1.000000
    5       -0.240609     -0.240637   1.000000   1.000000
    6        0.469339      0.469379   1.000000   1.000000
    7        0.714060      0.714220   1.000000   1.000000
    8        5.134410      5.133874   0.000000   0.000000
    9        8.509736      8.509183   0.000000   0.000000
   10        9.387490      9.387307   0.000000   0.000000
   11       11.080948     11.080677   0.000000   0.000000
   12       12.890742     12.890603   0.000000   0.000000
   13       14.484110     14.484029   0.000000   0.000000
   14       15.536422     15.536043   0.000000   0.000000
   15       16.704064     16.704483   0.000000   0.000000
   16       17.851395     17.856039   0.000000   0.000000
 
  0.3000000E+00  0.2000000E+00  0.1111111E+00  0.2666667E-01
    1      -42.532675    -42.531898   1.000000   1.000000
    2      -42.388370    -42.387584   1.000000   1.000000
    3      -42.146759    -42.145987   1.000000   1.000000
    4       -9.754506     -9.754392   1.000000   1.000000
    5       -0.420176     -0.420184   1.000000   1.000000
    6        0.184680      0.184713   1.000000   1.000000
    7        0.922613      0.922790   1.000000   1.000000
    8        5.725755      5.725191   0.000000   0.000000
    9        7.620268      7.619694   0.000000   0.000000
   10        9.603428      9.603207   0.000000   0.000000
   11       10.796253     10.795968   0.000000   0.000000
   12       12.299337     12.299154   0.000000   0.000000
   13       14.753821     14.753759   0.000000   0.000000
   14       16.005133     16.004923   0.000000   0.000000
   15       17.526363     17.526619   0.000000   0.000000
   16       18.199484     18.199388   0.000000   0.000000
 
  0.4000000E+00  0.2000000E+00  0.1111111E+00  0.1333333E-01
    1      -42.504482    -42.503704   1.000000   1.000000
    2      -42.416039    -42.415255   1.000000   1.000000
    3      -42.146854    -42.146081   1.000000   1.000000
    4       -9.748608     -9.748496   1.000000   1.000000
    5       -0.480966     -0.480965   1.000000   1.000000
    6        0.075816      0.075846   1.000000   1.000000
    7        1.012026      1.012210   1.000000   1.000000
    8        6.170919      6.170332   0.000000   0.000000
    9        7.016977      7.016416   0.000000   0.000000
   10       10.092641     10.092386   0.000000   0.000000
   11       10.263831     10.263578   0.000000   0.000000
   12       12.079084     12.078865   0.000000   0.000000
   13       14.837188     14.837138   0.000000   0.000000
   14       16.403802     16.403488   0.000000   0.000000
   15       17.936822     17.938937   0.000000   0.000000
   16       18.071376     18.071115   0.000000   0.000000
 
  0.3000000E+00  0.3000000E+00  0.1111111E+00  0.1333333E-01
    1      -42.487642    -42.486863   1.000000   1.000000
    2      -42.432613    -42.431830   1.000000   1.000000
    3      -42.147013    -42.146241   1.000000   1.000000
    4       -9.747084     -9.746974   1.000000   1.000000
    5       -0.369130     -0.369122   1.000000   1.000000
    6       -0.118240     -0.118217   1.000000   1.000000
    7        1.043859      1.044046   1.000000   1.000000
    8        6.323811      6.323217   0.000000   0.000000
    9        7.073586      7.072968   0.000000   0.000000
   10        9.722441      9.722245   0.000000   0.000000
   11       10.693132     10.692881   0.000000   0.000000
   12       11.379567     11.379357   0.000000   0.000000
   13       14.858263     14.858206   0.000000   0.000000
   14       16.843338     16.840500   0.000000   0.000000
   15       17.751822     17.753999   0.000000   0.000000
   16       19.143876     19.067041   0.000000   0.000000
 
  0.0000000E+00  0.0000000E+00  0.2222222E+00  0.2222222E-02
    1      -42.680404    -42.679638   1.000000   1.000000
    2      -42.245519    -42.244724   1.000000   1.000000
    3      -42.147109    -42.146336   1.000000   1.000000
    4       -9.861633     -9.861500   1.000000   1.000000
    5       -0.577750     -0.577802   1.000000   1.000000
    6        1.591604      1.591657   1.000000   1.000000
    7        1.591626      1.591680   1.000000   1.000000
    8        4.223408      4.222979   0.000000   0.000000
    9        9.667112      9.667060   0.000000   0.000000
   10        9.667192      9.667144   0.000000   0.000000
   11       10.101946     10.101856   0.000000   0.000000
   12       13.653427     13.653051   0.000000   0.000000
   13       13.653486     13.653086   0.000000   0.000000
   14       15.524916     15.523995   0.000000   0.000000
   15       16.495567     16.495848   0.000000   0.000000
   16       17.844259     17.843730   0.000000   0.000000
 
  0.1000000E+00  0.3551758E-17  0.2222222E+00  0.1333333E-01
    1      -42.670693    -42.669926   1.000000   1.000000
    2      -42.254779    -42.253984   1.000000   1.000000
    3      -42.147064    -42.146291   1.000000   1.000000
    4       -9.854751     -9.854621   1.000000   1.000000
    5       -0.494298     -0.494349   1.000000   1.000000
    6        1.352736      1.352793   1.000000   1.000000
    7        1.465981      1.466033   1.000000   1.000000
    8        4.358008      4.357580   0.000000   0.000000
    9        9.667052      9.666966   0.000000   0.000000
   10        9.971545      9.971480   0.000000   0.000000
   11       10.082078     10.081988   0.000000   0.000000
   12       13.378646     13.378270   0.000000   0.000000
   13       13.389071     13.388664   0.000000   0.000000
   14       14.958116     14.957445   0.000000   0.000000
   15       16.494754     16.495374   0.000000   0.000000
   16       18.395142     18.394509   0.000000   0.000000
 
  0.2000000E+00  0.7103517E-17  0.2222222E+00  0.1333333E-01