 running on    8 total cores
 distrk:  each k-point on    8 cores,    1 groups
 distr:  one band on    1 cores,    8 groups
 using from now: INCAR     
 vasp.6.1.2 22Jul20 (build Mar 20 2021 11:25:07) complex                        
  
 POSCAR found type information on POSCAR LiP 
 POSCAR found :  2 types and      16 ions
 scaLAPACK will be used
 -----------------------------------------------------------------------------
|                                                                             |
|           W    W    AA    RRRRR   N    N  II  N    N   GGGG   !!!           |
|           W    W   A  A   R    R  NN   N  II  NN   N  G    G  !!!           |
|           W    W  A    A  R    R  N N  N  II  N N  N  G       !!!           |
|           W WW W  AAAAAA  RRRRR   N  N N  II  N  N N  G  GGG   !            |
|           WW  WW  A    A  R   R   N   NN  II  N   NN  G    G                |
|           W    W  A    A  R    R  N    N  II  N    N   GGGG   !!!           |
|                                                                             |
|     The value NCORE = 6 specified in the INCAR file was overwritten,        |
|     because it was not compatible with the 8 processes available:           |
|     NCORE = 1                                                               |
|     was used instead, please check that this makes sense for your           |
|     machine.                                                                |
|                                                                             |
 -----------------------------------------------------------------------------

 -----------------------------------------------------------------------------
|                                                                             |
|           W    W    AA    RRRRR   N    N  II  N    N   GGGG   !!!           |
|           W    W   A  A   R    R  NN   N  II  NN   N  G    G  !!!           |
|           W    W  A    A  R    R  N N  N  II  N N  N  G       !!!           |
|           W WW W  AAAAAA  RRRRR   N  N N  II  N  N N  G  GGG   !            |
|           WW  WW  A    A  R   R   N   NN  II  N   NN  G    G                |
|           W    W  A    A  R    R  N    N  II  N    N   GGGG   !!!           |
|                                                                             |
|     For optimal performance we recommend to set                             |
|       NCORE = 4 - approx SQRT(number of cores).                             |
|     NCORE specifies how many cores store one orbital (NPAR=cpu/NCORE).      |
|     This setting can greatly improve the performance of VASP for DFT.       |
|     The default, NCORE=1 might be grossly inefficient on modern             |
|     multi-core architectures or massively parallel machines. Do your        |
|     own testing!!!!                                                         |
|     Unfortunately you need to use the default for GW and RPA                |
|     calculations (for HF NCORE is supported but not extensively tested      |
|     yet).                                                                   |
|                                                                             |
 -----------------------------------------------------------------------------

 LDA part: xc-table for Pade appr. of Perdew
 generate k-points for:    6    6    4
 POSCAR, INCAR and KPOINTS ok, starting setup
 FFT: planning ...
 WAVECAR not read
 entering main loop
       N       E                     dE             d eps       ncg     rms          rms(c)
DAV:   1     0.394079307830E+03    0.39408E+03   -0.25715E+04 14592   0.131E+03
DAV:   2    -0.460119568029E+01   -0.39868E+03   -0.36538E+03 16304   0.314E+02
DAV:   3    -0.559945430657E+02   -0.51393E+02   -0.50722E+02 20864   0.875E+01
DAV:   4    -0.634282899903E+02   -0.74337E+01   -0.73580E+01 26024   0.324E+01
DAV:   5    -0.641294932163E+02   -0.70120E+00   -0.70090E+00 20256   0.726E+00    0.210E+01
DAV:   6    -0.654685206545E+02   -0.13390E+01   -0.27794E+00 19544   0.644E+00    0.112E+01
DAV:   7    -0.667465070392E+02   -0.12780E+01   -0.70896E-01 17776   0.406E+00    0.587E+00
DAV:   8    -0.669809993474E+02   -0.23449E+00   -0.60756E-01 18992   0.285E+00    0.126E+00
DAV:   9    -0.670117645175E+02   -0.30765E-01   -0.79577E-02 21856   0.109E+00    0.492E-01
DAV:  10    -0.670156489427E+02   -0.38844E-02   -0.64653E-03 18800   0.368E-01    0.207E-01
DAV:  11    -0.670171093077E+02   -0.14604E-02   -0.18298E-03 18256   0.199E-01    0.957E-02
DAV:  12    -0.670173868144E+02   -0.27751E-03   -0.59636E-04 18520   0.986E-02    0.406E-02
DAV:  13    -0.670174321521E+02   -0.45338E-04   -0.92350E-05 17136   0.498E-02    0.205E-02
DAV:  14    -0.670174454690E+02   -0.13317E-04   -0.29267E-05 14856   0.274E-02    0.585E-03
DAV:  15    -0.670174470120E+02   -0.15430E-05   -0.40962E-06 10648   0.125E-02
   1 F= -.67017447E+02 E0= -.67017447E+02  d E =0.000000E+00  mag=    -0.0003
