   16   16    1    2
  0.1331056E+02  0.5346496E-09  0.5043864E-09  0.9240513E-09  0.5000000E-15
  1.000000000000000E-004
  CAR 
 unknown system                          
     80     99     54
 
  0.0000000E+00  0.0000000E+00  0.0000000E+00  0.5102041E-02
    1      -16.584135    -16.584129   1.000000   1.000000
    2      -15.821949    -15.821948   1.000000   1.000000
    3      -14.854176    -14.854169   1.000000   1.000000
    4      -12.834128    -12.834133   1.000000   1.000000
    5      -12.698167    -12.698172   1.000000   1.000000
    6      -12.386427    -12.386434   1.000000   1.000000
    7      -12.368119    -12.368137   1.000000   1.000000
    8      -12.188695    -12.188700   1.000000   1.000000
    9      -12.115173    -12.115190   1.000000   1.000000
   10      -11.582152    -11.582163   1.000000   1.000000
   11       -9.194626     -9.194612   1.000000   1.000000
   12       -8.915088     -8.915062   1.000000   1.000000
   13       -8.700282     -8.700258   1.000000   1.000000
   14       -6.055260     -6.055251   1.000000   1.000000
   15       -6.023592     -6.023578   1.000000   1.000000
   16       -5.230729     -5.230719   1.000000   1.000000
   17       -4.606088     -4.606076   1.000000   1.000000
   18       -4.136149     -4.136144   1.000000   1.000000
   19       -3.673862     -3.673854   1.000000   1.000000
   20       -3.470713     -3.470701   1.000000   1.000000
   21       -2.803129     -2.803121   1.000000   1.000000
   22       -2.731402     -2.731395   1.000000   1.000000
   23       -2.649594     -2.649590   1.000000   1.000000
   24       -2.173631     -2.173633   1.000000   1.000000
   25       -0.282169     -0.282168   1.000000   1.000000
   26        0.099056      0.099041   1.000000   1.000000
   27        0.221585      0.221569   1.000000   1.000000
   28        0.427280      0.427273   1.000000   1.000000
   29        0.451492      0.451476   1.000000   1.000000
   30        0.784435      0.784418   1.000000   1.000000
   31        0.866243      0.866231   1.000000   1.000000
   32        1.043394      1.043384   1.000000   1.000000
   33        1.265065      1.265055   1.000000   1.000000
   34        1.576388      1.576374   1.000000   1.000000
   35        1.738217      1.738205   1.000000   1.000000
   36        2.271396      2.271372   1.000000   1.000000
   37        2.305903      2.305882   1.000000   1.000000
   38        2.739897      2.739882   1.000000   1.000000
   39        3.062672      3.062639   1.000000   1.000000
   40        3.448836      3.448809   1.000000   1.000000
   41        6.604653      6.604700   0.000000   0.000000
   42        7.392183      7.392237   0.000000   0.000000
   43        8.008673      8.008709   0.000000   0.000000
   44        8.071429      8.071476   0.000000   0.000000
   45        8.544761      8.544800   0.000000   0.000000
   46        8.558009      8.558054   0.000000   0.000000
   47        8.975241      8.975258   0.000000   0.000000
   48        9.124216      9.124258   0.000000   0.000000
   49        9.351094      9.351146   0.000000   0.000000
   50        9.382024      9.382058   0.000000   0.000000
   51        9.701831      9.701874   0.000000   0.000000
   52       10.604864     10.604892   0.000000   0.000000
   53       11.015471     11.017442   0.000000   0.000000
   54       11.102493     11.087599   0.000000   0.000000
 
  0.1428571E+00  0.1258307E-16  0.1081029E-15  0.1020408E-01
    1      -16.541275    -16.541270   1.000000   1.000000
    2      -15.825244    -15.825242   1.000000   1.000000
    3      -14.823223    -14.823216   1.000000   1.000000
    4      -13.088061    -13.088061   1.000000   1.000000
    5      -12.805261    -12.805263   1.000000   1.000000
    6      -12.512487    -12.512498   1.000000   1.000000
    7      -12.358170    -12.358188   1.000000   1.000000
    8      -12.146407    -12.146421   1.000000   1.000000
    9      -11.799474    -11.799488   1.000000   1.000000
   10      -11.580298    -11.580309   1.000000   1.000000
   11       -9.607927     -9.607903   1.000000   1.000000
   12       -8.638978     -8.638955   1.000000   1.000000
   13       -8.285346     -8.285327   1.000000   1.000000
   14       -6.315044     -6.315032   1.000000   1.000000
   15       -5.813560     -5.813549   1.000000   1.000000
   16       -5.241834     -5.241823   1.000000   1.000000
   17       -4.610627     -4.610615   1.000000   1.000000
   18       -4.267314     -4.267307   1.000000   1.000000
   19       -3.588188     -3.588179   1.000000   1.000000
   20       -3.394398     -3.394388   1.000000   1.000000
   21       -2.940418     -2.940409   1.000000   1.000000
   22       -2.753760     -2.753759   1.000000   1.000000
   23       -2.564565     -2.564557   1.000000   1.000000
   24       -2.204813     -2.204816   1.000000   1.000000
   25       -0.460807     -0.460806   1.000000   1.000000
   26       -0.026806     -0.026821   1.000000   1.000000
   27        0.118945      0.118927   1.000000   1.000000
   28        0.439620      0.439617   1.000000   1.000000
   29        0.687729      0.687713   1.000000   1.000000
   30        0.745173      0.745157   1.000000   1.000000
   31        0.928509      0.928495   1.000000   1.000000
   32        1.025049      1.025040   1.000000   1.000000
   33        1.318749      1.318738   1.000000   1.000000
   34        1.547850      1.547837   1.000000   1.000000
   35        1.800868      1.800854   1.000000   1.000000
   36        2.224315      2.224293   1.000000   1.000000
   37        2.267997      2.267976   1.000000   1.000000
   38        2.688444      2.688430   1.000000   1.000000
   39        2.993612      2.993582   1.000000   1.000000
   40        3.357280      3.357254   1.000000   1.000000
   41        6.783337      6.783384   0.000000   0.000000
   42        7.495641      7.495688   0.000000   0.000000
   43        7.820107      7.820157   0.000000   0.000000
   44        8.030945      8.031000   0.000000   0.000000
   45        8.558760      8.558802   0.000000   0.000000
   46        8.748590      8.748628   0.000000   0.000000
   47        8.904489      8.904526   0.000000   0.000000
   48        9.080225      9.080232   0.000000   0.000000
   49        9.246430      9.246477   0.000000   0.000000
   50        9.885317      9.885354   0.000000   0.000000
   51       10.054793     10.054825   0.000000   0.000000
   52       10.326497     10.326527   0.000000   0.000000
   53       10.764778     10.764805   0.000000   0.000000
   54       11.141709     11.141319   0.000000   0.000000
 
  0.2857143E+00  0.2842436E-16  0.1477175E-15  0.1020408E-01
    1      -16.429633    -16.429629   1.000000   1.000000
    2      -15.842297    -15.842295   1.000000   1.000000
    3      -14.758246    -14.758238   1.000000   1.000000
    4      -13.467515    -13.467512   1.000000   1.000000
    5      -13.025566    -13.025562   1.000000   1.000000
    6      -12.553748    -12.553758   1.000000   1.000000
    7      -12.349318    -12.349335   1.000000   1.000000
    8      -12.090859    -12.090876   1.000000   1.000000
    9      -11.599130    -11.599147   1.000000   1.000000
   10      -11.560442    -11.560456   1.000000   1.000000
   11       -9.772891     -9.772863   1.000000   1.000000
   12       -8.300090     -8.300070   1.000000   1.000000
   13       -7.806351     -7.806335   1.000000   1.000000
   14       -6.437301     -6.437289   1.000000   1.000000
   15       -5.648091     -5.648081   1.000000   1.000000
   16       -5.330646     -5.330636   1.000000   1.000000
   17       -4.635506     -4.635492   1.000000   1.000000
   18       -4.454230     -4.454222   1.000000   1.000000
   19       -3.555298     -3.555288   1.000000   1.000000
   20       -3.170265     -3.170257   1.000000   1.000000
   21       -3.074910     -3.074902   1.000000   1.000000
   22       -2.776784     -2.776784   1.000000   1.000000
   23       -2.550848     -2.550839   1.000000   1.000000
   24       -2.328735     -2.328736   1.000000   1.000000
   25       -0.608898     -0.608897   1.000000   1.000000
   26       -0.354191     -0.354203   1.000000   1.000000
   27       -0.164218     -0.164230   1.000000   1.000000
   28        0.437407      0.437398   1.000000   1.000000
   29        0.707919      0.707908   1.000000   1.000000
   30        0.963062      0.963047   1.000000   1.000000
   31        1.059558      1.059553   1.000000   1.000000
   32        1.111472      1.111449   1.000000   1.000000
   33        1.397467      1.397453   1.000000   1.000000
   34        1.579550      1.579541   1.000000   1.000000
   35        1.858621      1.858605   1.000000   1.000000
   36        2.132854      2.132836   1.000000   1.000000
   37        2.174902      2.174885   1.000000   1.000000
   38        2.552433      2.552418   1.000000   1.000000
   39        2.861827      2.861804   1.000000   1.000000
   40        3.245094      3.245068   1.000000   1.000000
   41        6.920114      6.920166   0.000000   0.000000
   42        7.401547      7.401608   0.000000   0.000000
   43        7.882162      7.882210   0.000000   0.000000
   44        8.128228      8.128265   0.000000   0.000000
   45        8.598781      8.598830   0.000000   0.000000
   46        8.796099      8.796137   0.000000   0.000000
   47        9.225973      9.226017   0.000000   0.000000
   48        9.496567      9.496590   0.000000   0.000000
   49        9.515601      9.515606   0.000000   0.000000
   50        9.894759      9.894805   0.000000   0.000000
   51       10.289209     10.289242   0.000000   0.000000
   52       10.422380     10.422388   0.000000   0.000000
   53       10.642372     10.642405   0.000000   0.000000
   54       10.830464     10.830713   0.000000   0.000000
 
  0.4285714E+00  0.3370540E-16  0.2985871E-15  0.1020408E-01
    1      -16.313429    -16.313426   1.000000   1.000000
    2      -15.876825    -15.876823   1.000000   1.000000
    3      -14.716283    -14.716276   1.000000   1.000000
    4      -13.679138    -13.679137   1.000000   1.000000
    5      -13.177979    -13.177972   1.000000   1.000000
    6      -12.592373    -12.592383   1.000000   1.000000
    7      -12.347327    -12.347345   1.000000   1.000000
    8      -11.994854    -11.994872   1.000000   1.000000
    9      -11.663488    -11.663499   1.000000   1.000000
   10      -11.571475    -11.571495   1.000000   1.000000
   11       -9.612598     -9.612571   1.000000   1.000000
   12       -8.027515     -8.027499   1.000000   1.000000
   13       -7.791110     -7.791093   1.000000   1.000000
   14       -6.134465     -6.134455   1.000000   1.000000
   15       -5.601209     -5.601198   1.000000   1.000000
   16       -5.497649     -5.497639   1.000000   1.000000
   17       -4.726259     -4.726245   1.000000   1.000000
   18       -4.536141     -4.536131   1.000000   1.000000
   19       -3.453544     -3.453535   1.000000   1.000000
   20       -3.229438     -3.229433   1.000000   1.000000
   21       -2.956248     -2.956241   1.000000   1.000000
   22       -2.777843     -2.777837   1.000000   1.000000
   23       -2.596404     -2.596402   1.000000   1.000000
   24       -2.520431     -2.520428   1.000000   1.000000
   25       -0.608339     -0.608347   1.000000   1.000000
   26       -0.570573     -0.570575   1.000000   1.000000
   27       -0.451564     -0.451572   1.000000   1.000000
   28        0.410208      0.410193   1.000000   1.000000
   29        0.724752      0.724747   1.000000   1.000000
   30        1.011621      1.011608   1.000000   1.000000
   31        1.194398      1.194381   1.000000   1.000000
   32        1.265133      1.265118   1.000000   1.000000
   33        1.420959      1.420941   1.000000   1.000000
   34        1.665621      1.665608   1.000000   1.000000
   35        1.736942      1.736928   1.000000   1.000000
   36        2.089012      2.088998   1.000000   1.000000
   37        2.155344      2.155326   1.000000   1.000000
   38        2.446871      2.446857   1.000000   1.000000
   39        2.756458      2.756440   1.000000   1.000000
   40        3.256416      3.256388   1.000000   1.000000
   41        6.658238      6.658310   0.000000   0.000000
   42        7.332292      7.332336   0.000000   0.000000
   43        8.136347      8.136400   0.000000   0.000000
   44        8.597408      8.597446   0.000000   0.000000
   45        8.894772      8.894812   0.000000   0.000000
   46        8.999837      8.999872   0.000000   0.000000
   47        9.278770      9.278810   0.000000   0.000000
   48        9.510165      9.510211   0.000000   0.000000
   49        9.868763      9.868806   0.000000   0.000000
   50        9.939842      9.939863   0.000000   0.000000
   51        9.974049      9.974077   0.000000   0.000000
   52       10.195674     10.195716   0.000000   0.000000
   53       10.707387     10.707667   0.000000   0.000000
   54       10.861302     10.967527   0.000000   0.000000
 
 -0.1389784E-16  0.1428571E+00  0.1009825E-15  0.1020408E-01
    1      -16.518220    -16.518215   1.000000   1.000000
    2      -15.803563    -15.803562   1.000000   1.000000
    3      -14.794405    -14.794397   1.000000   1.000000
    4      -13.316812    -13.316812   1.000000   1.000000
    5      -12.952731    -12.952736   1.000000   1.000000
    6      -12.372704    -12.372716   1.000000   1.000000
    7      -12.248481    -12.248496   1.000000   1.000000
    8      -12.103599    -12.103617   1.000000   1.000000
    9      -11.858967    -11.858975   1.000000   1.000000
   10      -11.562475    -11.562487   1.000000   1.000000
   11       -9.604124     -9.604100   1.000000   1.000000
   12       -8.633637     -8.633615   1.000000   1.000000
   13       -8.154747     -8.154728   1.000000   1.000000
   14       -6.431511     -6.431500   1.000000   1.000000
   15       -5.801926     -5.801915   1.000000   1.000000
   16       -5.191697     -5.191686   1.000000   1.000000
   17       -4.625747     -4.625736   1.000000   1.000000
   18       -4.254132     -4.254125   1.000000   1.000000
   19       -3.528604     -3.528596   1.000000   1.000000
   20       -3.508281     -3.508270   1.000000   1.000000
   21       -2.958727     -2.958719   1.000000   1.000000
   22       -2.655880     -2.655880   1.000000   1.000000
   23       -2.604210     -2.604199   1.000000   1.000000
   24       -2.171689     -2.171691   1.000000   1.000000
   25       -0.359403     -0.359401   1.000000   1.000000
   26       -0.120227     -0.120238   1.000000   1.000000
   27        0.180520      0.180506   1.000000   1.000000
   28        0.469847      0.469830   1.000000   1.000000
   29        0.550142      0.550131   1.000000   1.000000
   30        0.838268      0.838248   1.000000   1.000000
   31        0.949663      0.949653   1.000000   1.000000
   32        1.066825      1.066814   1.000000   1.000000
   33        1.185420      1.185412   1.000000   1.000000
   34        1.540117      1.540105   1.000000   1.000000
   35        1.865417      1.865402   1.000000   1.000000
   36        2.199782      2.199759   1.000000   1.000000
   37        2.250895      2.250874   1.000000   1.000000
   38        2.684139      2.684125   1.000000   1.000000
   39        3.016152      3.016120   1.000000   1.000000
   40        3.328660      3.328637   1.000000   1.000000
   41        6.669315      6.669363   0.000000   0.000000
   42        7.299970      7.300022   0.000000   0.000000
   43        8.005737      8.005787   0.000000   0.000000
   44        8.160657      8.160696   0.000000   0.000000
   45        8.308351      8.308395   0.000000   0.000000
   46        8.659490      8.659544   0.000000   0.000000
   47        8.957949      8.957986   0.000000   0.000000
   48        9.100861      9.100894   0.000000   0.000000
   49        9.315591      9.315601   0.000000   0.000000
   50        9.741610      9.741657   0.000000   0.000000
   51       10.027223     10.027265   0.000000   0.000000
   52       10.286425     10.286469   0.000000   0.000000
   53       10.575577     10.575577   0.000000   0.000000
   54       11.214845     11.223359   0.000000   0.000000
 
  0.1428571E+00  0.1428571E+00  0.1946409E-15  0.1020408E-01
    1      -16.479150    -16.479145   1.000000   1.000000
    2      -15.831145    -15.831144   1.000000   1.000000
    3      -14.711814    -14.711807   1.000000   1.000000
    4      -13.348385    -13.348387   1.000000   1.000000
    5      -12.970378    -12.970384   1.000000   1.000000
    6      -12.688019    -12.688016   1.000000   1.000000
    7      -12.270206    -12.270224   1.000000   1.000000
    8      -12.081235    -12.081252   1.000000   1.000000
    9      -11.809784    -11.809799   1.000000   1.000000
   10      -11.583465    -11.583477   1.000000   1.000000
   11       -8.974120     -8.974105   1.000000   1.000000
   12       -8.652703     -8.652678   1.000000   1.000000
   13       -8.444655     -8.444633   1.000000   1.000000
   14       -6.624164     -6.624153   1.000000   1.000000
   15       -5.466702     -5.466690   1.000000   1.000000
   16       -5.204312     -5.204301   1.000000   1.000000
   17       -4.576300     -4.576289   1.000000   1.000000
   18       -4.200018     -4.200012   1.000000   1.000000
   19       -3.687484     -3.687475   1.000000   1.000000
   20       -3.496247     -3.496239   1.000000   1.000000
   21       -2.901156     -2.901148   1.000000   1.000000
   22       -2.777440     -2.777430   1.000000   1.000000
   23       -2.590645     -2.590643   1.000000   1.000000
   24       -2.241795     -2.241797   1.000000   1.000000
   25       -0.472024     -0.472019   1.000000   1.000000
   26       -0.123752     -0.123770   1.000000   1.000000
   27        0.023862      0.023844   1.000000   1.000000
   28        0.360759      0.360755   1.000000   1.000000
   29        0.600849      0.600838   1.000000   1.000000
   30        0.868509      0.868493   1.000000   1.000000
   31        0.998527      0.998517   1.000000   1.000000
   32        1.153447      1.153428   1.000000   1.000000
   33        1.252196      1.252187   1.000000   1.000000
   34        1.569885      1.569873   1.000000   1.000000
   35        1.877117      1.877103   1.000000   1.000000
   36        2.153694      2.153672   1.000000   1.000000
   37        2.227091      2.227073   1.000000   1.000000
   38        2.652531      2.652515   1.000000   1.000000
   39        2.911331      2.911303   1.000000   1.000000
   40        3.255471      3.255448   1.000000   1.000000
   41        6.923684      6.923729   0.000000   0.000000
   42        7.450855      7.450908   0.000000   0.000000
   43        7.647829      7.647883   0.000000   0.000000
   44        8.048785      8.048843   0.000000   0.000000
   45        8.480012      8.480044   0.000000   0.000000
   46        8.776631      8.776670   0.000000   0.000000
   47        9.042907      9.042946   0.000000   0.000000
   48        9.158133      9.158154   0.000000   0.000000
   49        9.454267      9.454279   0.000000   0.000000
   50        9.703519      9.703539   0.000000   0.000000
   51        9.924232      9.924286   0.000000   0.000000
   52       10.438507     10.438529   0.000000   0.000000
   53       10.831427     10.831504   0.000000   0.000000
   54       10.993542     10.993738   0.000000   0.000000
 
  0.2857143E+00  0.1428571E+00  0.3348000E-15  0.1020408E-01
    1      -16.369230    -16.369226   1.000000   1.000000
    2      -15.846341    -15.846340   1.000000   1.000000
    3      -14.624323    -14.624316   1.000000   1.000000
    4      -13.620952    -13.620952   1.000000   1.000000
    5      -13.156136    -13.156134   1.000000   1.000000
    6      -12.808688    -12.808687   1.000000   1.000000
    7      -12.248098    -12.248116   1.000000   1.000000
    8      -12.097732    -12.097748   1.000000   1.000000
    9      -11.681942    -11.681961   1.000000   1.000000
   10      -11.596983    -11.596994   1.000000   1.000000
   11       -8.988693     -8.988673   1.000000   1.000000
   12       -8.300458     -8.300438   1.000000   1.000000
   13       -8.114101     -8.114083   1.000000   1.000000
   14       -6.691817     -6.691805   1.000000   1.000000
   15       -5.328823     -5.328811   1.000000   1.000000
   16       -5.235446     -5.235436   1.000000   1.000000
   17       -4.555971     -4.555961   1.000000   1.000000
   18       -4.317105     -4.317096   1.000000   1.000000
   19       -3.802879     -3.802870   1.000000   1.000000
   20       -3.350965     -3.350958   1.000000   1.000000
   21       -3.028860     -3.028850   1.000000   1.000000
   22       -2.717088     -2.717081   1.000000   1.000000
   23       -2.598706     -2.598703   1.000000   1.000000
   24       -2.372432     -2.372432   1.000000   1.000000
   25       -0.590947     -0.590944   1.000000   1.000000
   26       -0.309835     -0.309850   1.000000   1.000000
   27       -0.234682     -0.234697   1.000000   1.000000
   28        0.288407      0.288404   1.000000   1.000000
   29        0.664254      0.664246   1.000000   1.000000
   30        0.866652      0.866637   1.000000   1.000000
   31        1.063922      1.063910   1.000000   1.000000
   32        1.234337      1.234319   1.000000   1.000000
   33        1.445913      1.445897   1.000000   1.000000
   34        1.624183      1.624170   1.000000   1.000000
   35        1.883899      1.883883   1.000000   1.000000
   36        2.032384      2.032366   1.000000   1.000000
   37        2.200026      2.200011   1.000000   1.000000
   38        2.526808      2.526794   1.000000   1.000000
   39        2.775642      2.775621   1.000000   1.000000
   40        3.151859      3.151835   1.000000   1.000000
   41        7.153845      7.153902   0.000000   0.000000
   42        7.427128      7.427180   0.000000   0.000000
   43        7.831769      7.831817   0.000000   0.000000
   44        8.026504      8.026553   0.000000   0.000000
   45        8.411491      8.411530   0.000000   0.000000
   46        8.970154      8.970194   0.000000   0.000000
   47        9.148266      9.148312   0.000000   0.000000
   48        9.266364      9.266398   0.000000   0.000000
   49        9.570228      9.570224   0.000000   0.000000
   50        9.924466      9.924473   0.000000   0.000000
   51       10.285679     10.285701   0.000000   0.000000
   52       10.471140     10.471184   0.000000   0.000000
   53       10.673659     10.673690   0.000000   0.000000
   54       11.055427     11.076977   0.000000   0.000000
 
  0.4285714E+00  0.1428571E+00  0.4590474E-15  0.1020408E-01
    1      -16.253622    -16.253619   1.000000   1.000000
    2      -15.848352    -15.848350   1.000000   1.000000
    3      -14.613843    -14.613836   1.000000   1.000000
    4      -13.881497    -13.881496   1.000000   1.000000
    5      -13.316388    -13.316383   1.000000   1.000000
    6      -12.694783    -12.694785   1.000000   1.000000
    7      -12.231191    -12.231209   1.000000   1.000000
    8      -12.089112    -12.089128   1.000000   1.000000
    9      -11.702935    -11.702952   1.000000   1.000000
   10      -11.612869    -11.612884   1.000000   1.000000
   11       -9.098621     -9.098600   1.000000   1.000000
   12       -8.028660     -8.028644   1.000000   1.000000
   13       -7.815125     -7.815108   1.000000   1.000000
   14       -6.324646     -6.324634   1.000000   1.000000
   15       -5.655054     -5.655042   1.000000   1.000000
   16       -5.205722     -5.205712   1.000000   1.000000
   17       -4.589979     -4.589971   1.000000   1.000000
   18       -4.544618     -4.544606   1.000000   1.000000
   19       -3.673569     -3.673561   1.000000   1.000000
   20       -3.305432     -3.305424   1.000000   1.000000
   21       -3.048190     -3.048185   1.000000   1.000000
   22       -2.758110     -2.758105   1.000000   1.000000
   23       -2.530260     -2.530255   1.000000   1.000000
   24       -2.494345     -2.494342   1.000000   1.000000
   25       -0.627424     -0.627430   1.000000   1.000000
   26       -0.502999     -0.503012   1.000000   1.000000
   27       -0.392786     -0.392788   1.000000   1.000000
   28        0.219354      0.219347   1.000000   1.000000
   29        0.759077      0.759067   1.000000   1.000000
   30        0.951366      0.951349   1.000000   1.000000
   31        1.103968      1.103957   1.000000   1.000000
   32        1.225066      1.225053   1.000000   1.000000
   33        1.437502      1.437485   1.000000   1.000000
   34        1.624185      1.624171   1.000000   1.000000
   35        1.845342      1.845327   1.000000   1.000000
   36        2.036134      2.036115   1.000000   1.000000
   37        2.153267      2.153253   1.000000   1.000000
   38        2.484167      2.484154   1.000000   1.000000
   39        2.675583      2.675565   1.000000   1.000000
   40        3.166489      3.166463   1.000000   1.000000
   41        6.776336      6.776407   0.000000   0.000000
   42        7.604714      7.604753   0.000000   0.000000
   43        8.194391      8.194440   0.000000   0.000000
   44        8.327502      8.327545   0.000000   0.000000
   45        8.533350      8.533391   0.000000   0.000000
   46        8.991692      8.991731   0.000000   0.000000
   47        9.108531      9.108578   0.000000   0.000000
   48        9.498309      9.498343   0.000000   0.000000
   49        9.664608      9.664643   0.000000   0.000000
   50        9.933288      9.933304   0.000000   0.000000
   51       10.299775     10.299811   0.000000   0.000000
   52       10.659219     10.659224   0.000000   0.000000
   53       10.727638     10.727697   0.000000   0.000000
   54       10.905250     10.905908   0.000000   0.000000
 
 -0.4285714E+00  0.1428571E+00 -0.1248156E-15  0.1020408E-01
    1      -16.253830    -16.253827   1.000000   1.000000
    2      -15.805130    -15.805129   1.000000   1.000000
    3      -14.682807    -14.682799   1.000000   1.000000
    4      -13.969822    -13.969818   1.000000   1.000000
    5      -13.324991    -13.324987   1.000000   1.000000
    6      -12.490601    -12.490609   1.000000   1.000000
    7      -12.227515    -12.227533   1.000000   1.000000
    8      -11.981028    -11.981043   1.000000   1.000000
    9      -11.823177    -11.823188   1.000000   1.000000
   10      -11.599767    -11.599784   1.000000   1.000000
   11       -9.510961     -9.510938   1.000000   1.000000
   12       -7.763662     -7.763647   1.000000   1.000000
   13       -7.567305     -7.567288   1.000000   1.000000
   14       -6.228774     -6.228764   1.000000   1.000000
   15       -5.742594     -5.742585   1.000000   1.000000
   16       -5.389539     -5.389525   1.000000   1.000000
   17       -4.804604     -4.804595   1.000000   1.000000
   18       -4.600179     -4.600167   1.000000   1.000000
   19       -3.449795     -3.449784   1.000000   1.000000
   20       -3.356621     -3.356617   1.000000   1.000000
   21       -2.960367     -2.960363   1.000000   1.000000
   22       -2.802032     -2.802025   1.000000   1.000000
   23       -2.596912     -2.596910   1.000000   1.000000
   24       -2.340810     -2.340806   1.000000   1.000000
   25       -0.664528     -0.664541   1.000000   1.000000
   26       -0.452293     -0.452305   1.000000   1.000000
   27       -0.379848     -0.379844   1.000000   1.000000
   28        0.305634      0.305623   1.000000   1.000000
   29        0.724382      0.724374   1.000000   1.000000
   30        0.909392      0.909376   1.000000   1.000000
   31        1.058416      1.058400   1.000000   1.000000
   32        1.275622      1.275616   1.000000   1.000000
   33        1.352618      1.352603   1.000000   1.000000
   34        1.599886      1.599871   1.000000   1.000000
   35        1.814095      1.814082   1.000000   1.000000
   36        2.062790      2.062775   1.000000   1.000000
   37        2.169480      2.169458   1.000000   1.000000
   38        2.459860      2.459848   1.000000   1.000000
   39        2.704868      2.704850   1.000000   1.000000
   40        3.198917      3.198890   1.000000   1.000000
   41        6.756489      6.756560   0.000000   0.000000
   42        7.365497      7.365538   0.000000   0.000000
   43        8.134316      8.134366   0.000000   0.000000
   44        8.703028      8.703067   0.000000   0.000000
   45        8.836390      8.836429   0.000000   0.000000
   46        8.949001      8.949056   0.000000   0.000000
   47        9.058690      9.058724   0.000000   0.000000
   48        9.504096      9.504129   0.000000   0.000000
   49        9.670535      9.670575   0.000000   0.000000
   50        9.766478      9.766531   0.000000   0.000000
   51       10.339512     10.339534   0.000000   0.000000
   52       10.526693     10.526735   0.000000   0.000000
   53       10.838479     10.838352   0.000000   0.000000
   54       10.924357     10.947808   0.000000   0.000000
 
 -0.2857143E+00  0.1428571E+00 -0.1671276E-16  0.1020408E-01
    1      -16.363412    -16.363408   1.000000   1.000000
    2      -15.761513    -15.761512   1.000000   1.000000
    3      -14.767832    -14.767825   1.000000   1.000000
    4      -13.835478    -13.835473   1.000000   1.000000
    5      -13.206404    -13.206402   1.000000   1.000000
    6      -12.373073    -12.373088   1.000000   1.000000
    7      -12.227711    -12.227728   1.000000   1.000000
    8      -12.021554    -12.021571   1.000000   1.000000
    9      -11.612924    -11.612932   1.000000   1.000000
   10      -11.571552    -11.571572   1.000000   1.000000
   11      -10.055106    -10.055074   1.000000   1.000000
   12       -7.939077     -7.939057   1.000000   1.000000
   13       -7.247443     -7.247428   1.000000   1.000000
   14       -6.470882     -6.470871   1.000000   1.000000
   15       -6.058103     -6.058093   1.000000   1.000000
   16       -5.189016     -5.189007   1.000000   1.000000
   17       -4.790190     -4.790179   1.000000   1.000000