 running on   12 total cores
 distrk:  each k-point on   12 cores,    1 groups
 distr:  one band on    6 cores,    2 groups
 using from now: INCAR     
 vasp.6.1.2 22Jul20 (build Mar 20 2021 11:25:07) complex                        
  
 POSCAR found type information on POSCAR P N 
 POSCAR found :  2 types and      16 ions
 scaLAPACK will be used
 LDA part: xc-table for Pade appr. of Perdew
 generate k-points for:    7    7    4
 POSCAR, INCAR and KPOINTS ok, starting setup
 FFT: planning ...
 WAVECAR not read
 entering main loop
       N       E                     dE             d eps       ncg     rms          rms(c)
DAV:   1     0.463648793088E+03    0.46365E+03   -0.39277E+04 21384   0.134E+03
DAV:   2    -0.951694269505E+02   -0.55882E+03   -0.53455E+03 27256   0.299E+02
DAV:   3    -0.134701424717E+03   -0.39532E+02   -0.39154E+02 26488   0.847E+01
DAV:   4    -0.135574792990E+03   -0.87337E+00   -0.86935E+00 28112   0.130E+01
DAV:   5    -0.135597855361E+03   -0.23062E-01   -0.23029E-01 26390   0.202E+00    0.418E+01
DAV:   6    -0.116677969982E+03    0.18920E+02   -0.67751E+01 25032   0.317E+01    0.205E+01
DAV:   7    -0.119176321009E+03   -0.24984E+01   -0.91913E+00 26032   0.115E+01    0.694E+00
DAV:   8    -0.119552746182E+03   -0.37643E+00   -0.88426E-01 26260   0.404E+00    0.416E+00
DAV:   9    -0.119559987602E+03   -0.72414E-02   -0.82264E-02 25610   0.151E+00    0.212E+00
DAV:  10    -0.119558606464E+03    0.13811E-02   -0.22551E-02 28712   0.804E-01    0.434E-01
DAV:  11    -0.119560811117E+03   -0.22047E-02   -0.53262E-03 25190   0.387E-01    0.253E-01
DAV:  12    -0.119561266736E+03   -0.45562E-03   -0.68368E-04 28064   0.139E-01    0.155E-01
DAV:  13    -0.119561494061E+03   -0.22733E-03   -0.22592E-04 25524   0.770E-02    0.613E-02
DAV:  14    -0.119561547991E+03   -0.53931E-04   -0.42857E-05 24264   0.331E-02    0.189E-02
DAV:  15    -0.119561558063E+03   -0.10072E-04   -0.93480E-06 16354   0.162E-02    0.111E-02
DAV:  16    -0.119561561351E+03   -0.32881E-05   -0.46079E-06 14688   0.918E-03
   1 F= -.11956156E+03 E0= -.11956156E+03  d E =0.000000E+00  mag=    -0.0004
