    6    6    1    2
  0.1308686E+02  0.4929462E-09  0.4832806E-09  0.4832806E-09  0.5000000E-15
  1.000000000000000E-004
  CAR 
 unknown system                          
     32    324     22
 
  0.0000000E+00  0.0000000E+00  0.0000000E+00  0.1562500E-02
    1      -19.865539    -19.865508   1.000000   1.000000
    2      -17.667025    -17.666939   1.000000   1.000000
    3      -13.925100    -13.924948   1.000000   1.000000
    4      -12.456341    -12.456157   1.000000   1.000000
    5      -11.466498    -11.466498   1.000000   1.000000
    6       -6.734691     -6.734669   1.000000   1.000000
    7       -5.585687     -5.585625   1.000000   1.000000
    8       -5.514467     -5.514424   1.000000   1.000000
    9       -2.581951     -2.582027   1.000000   1.000000
   10       -1.847037     -1.847070   1.000000   1.000000
   11       -0.784756     -0.784762   1.000000   1.000000
   12       -0.714945     -0.714866   1.000000   1.000000
   13        0.279829      0.279818   1.000000   1.000000
   14        0.602198      0.602206   1.000000   1.000000
   15        1.239063      1.239113   1.000000   1.000000
   16        1.941572      1.941532   1.000000   1.000000
   17        7.209300      7.209154   0.000003   0.000005
   18        7.460577      7.460307   0.000000   0.000000
   19        8.855009      8.854820   0.000000   0.000000
   20       10.303054     10.302668   0.000000   0.000000
   21       10.553311     10.553064   0.000000   0.000000
   22       11.599923     11.599217   0.000000   0.000000
 
  0.1250000E+00  0.1062493E-17 -0.1494028E-16  0.3125000E-02
    1      -19.843486    -19.843455   1.000000   1.000000
    2      -17.671635    -17.671549   1.000000   1.000000
    3      -13.971775    -13.971632   1.000000   1.000000
    4      -12.815900    -12.815752   1.000000   1.000000
    5      -10.999917    -10.999875   1.000000   1.000000
    6       -6.707270     -6.707246   1.000000   1.000000
    7       -5.595260     -5.595204   1.000000   1.000000
    8       -5.506486     -5.506427   1.000000   1.000000
    9       -2.554945     -2.555018   1.000000   1.000000
   10       -1.872467     -1.872500   1.000000   1.000000
   11       -0.957386     -0.957341   1.000000   1.000000
   12       -0.712037     -0.712031   1.000000   1.000000
   13        0.329629      0.329626   1.000000   1.000000
   14        0.539310      0.539311   1.000000   1.000000
   15        1.196265      1.196305   1.000000   1.000000
   16        1.936148      1.936116   1.000000   1.000000
   17        7.418186      7.418068  -0.000000  -0.000000
   18        7.580066      7.579813   0.000000   0.000000
   19        8.670743      8.670503   0.000000   0.000000
   20       10.363473     10.363274   0.000000   0.000000
   21       10.581643     10.581203   0.000000   0.000000
   22       11.470010     11.469675   0.000000   0.000000
 
  0.2500000E+00  0.2124987E-17 -0.2988056E-16  0.3125000E-02
    1      -19.788355    -19.788323   1.000000   1.000000
    2      -17.683274    -17.683190   1.000000   1.000000
    3      -14.121575    -14.121458   1.000000   1.000000
    4      -13.238868    -13.238719   1.000000   1.000000
    5      -10.264520    -10.264458   1.000000   1.000000
    6       -6.637684     -6.637655   1.000000   1.000000
    7       -5.688537     -5.688465   1.000000   1.000000
    8       -5.420213     -5.420140   1.000000   1.000000
    9       -2.485259     -2.485328   1.000000   1.000000
   10       -1.997267     -1.997303   1.000000   1.000000
   11       -1.350950     -1.350936   1.000000   1.000000
   12       -0.634100     -0.634109   1.000000   1.000000
   13        0.365442      0.365455   1.000000   1.000000
   14        0.450003      0.449989   1.000000   1.000000
   15        1.110689      1.110705   1.000000   1.000000
   16        1.889840      1.889825   1.000000   1.000000
   17        7.683357      7.683160   0.000000   0.000000
   18        7.886954      7.886872   0.000000   0.000000
   19        8.751455      8.751150   0.000000   0.000000
   20       10.109220     10.109042   0.000000   0.000000
   21       10.686483     10.686168   0.000000   0.000000
   22       11.432281     11.431852   0.000000   0.000000
 
  0.3750000E+00  0.6808244E-17 -0.6808244E-17  0.3125000E-02
    1      -19.730373    -19.730339   1.000000   1.000000
    2      -17.695736    -17.695653   1.000000   1.000000
    3      -14.320201    -14.320110   1.000000   1.000000
    4      -13.448271    -13.448108   1.000000   1.000000
    5       -9.662904     -9.662841   1.000000   1.000000
    6       -6.563861     -6.563825   1.000000   1.000000
    7       -5.792158     -5.792052   1.000000   1.000000
    8       -5.331718     -5.331638   1.000000   1.000000
    9       -2.417280     -2.417345   1.000000   1.000000
   10       -2.279460     -2.279523   1.000000   1.000000
   11       -1.571382     -1.571384   1.000000   1.000000
   12       -0.498628     -0.498643   1.000000   1.000000
   13        0.202352      0.202366   1.000000   1.000000
   14        0.418369      0.418345   1.000000   1.000000
   15        1.160419      1.160421   1.000000   1.000000
   16        1.758695      1.758693   1.000000   1.000000
   17        7.666088      7.665885   0.000000   0.000000
   18        8.328377      8.328319   0.000000   0.000000
   19        9.299750      9.299537   0.000000   0.000000
   20        9.841958      9.841683   0.000000   0.000000
   21       10.552665     10.552481   0.000000   0.000000
   22       11.589389     11.585113   0.000000   0.000000
 
  0.5000000E+00  0.4249974E-17 -0.5976112E-16  0.1562500E-02
    1      -19.705480    -19.705444   1.000000   1.000000
    2      -17.701195    -17.701112   1.000000   1.000000
    3      -14.411148    -14.411064   1.000000   1.000000
    4      -13.503756    -13.503589   1.000000   1.000000
    5       -9.424080     -9.424019   1.000000   1.000000
    6       -6.532421     -6.532382   1.000000   1.000000
    7       -5.837085     -5.836959   1.000000   1.000000
    8       -5.296893     -5.296811   1.000000   1.000000
    9       -2.490728     -2.490815   1.000000   1.000000
   10       -2.336081     -2.336141   1.000000   1.000000
   11       -1.619179     -1.619182   1.000000   1.000000
   12       -0.387545     -0.387563   1.000000   1.000000
   13        0.045541      0.045552   1.000000   1.000000
   14        0.410272      0.410243   1.000000   1.000000
   15        1.257466      1.257461   1.000000   1.000000
   16        1.644998      1.645005   1.000000   1.000000
   17        7.695200      7.694986   0.000000   0.000000
   18        8.503885      8.503850   0.000000   0.000000
   19        9.373941      9.373777   0.000000   0.000000
   20       10.146508     10.146218   0.000000   0.000000
   21       10.364572     10.364377   0.000000   0.000000
   22       11.418124     11.417547   0.000000   0.000000
 
  0.1699000E-16  0.1250000E+00  0.3639629E-16  0.3125000E-02
    1      -19.797102    -19.797070   1.000000   1.000000
    2      -17.769327    -17.769245   1.000000   1.000000
    3      -14.047864    -14.047720   1.000000   1.000000
    4      -12.469620    -12.469437   1.000000   1.000000
    5      -11.217304    -11.217293   1.000000   1.000000
    6       -6.768858     -6.768832   1.000000   1.000000
    7       -5.655811     -5.655763   1.000000   1.000000
    8       -5.377909     -5.377842   1.000000   1.000000
    9       -2.614215     -2.614290   1.000000   1.000000
   10       -1.852919     -1.852954   1.000000   1.000000
   11       -0.877756     -0.877753   1.000000   1.000000
   12       -0.738411     -0.738357   1.000000   1.000000
   13        0.335697      0.335691   1.000000   1.000000
   14        0.509289      0.509288   1.000000   1.000000
   15        1.143349      1.143390   1.000000   1.000000
   16        1.939507      1.939469   1.000000   1.000000
   17        7.454023      7.453907  -0.000000  -0.000000
   18        7.629736      7.629471   0.000000   0.000000
   19        8.927066      8.926882   0.000000   0.000000
   20       10.148464     10.148073   0.000000   0.000000
   21       10.527458     10.527207   0.000000   0.000000
   22       11.724495     11.724351   0.000000   0.000000
 
  0.1250000E+00  0.1250000E+00 -0.1323846E-16  0.3125000E-02
    1      -19.757909    -19.757876   1.000000   1.000000
    2      -17.781900    -17.781818   1.000000   1.000000
    3      -14.202701    -14.202573   1.000000   1.000000
    4      -12.756530    -12.756367   1.000000   1.000000
    5      -10.667511    -10.667467   1.000000   1.000000
    6       -6.748776     -6.748745   1.000000   1.000000
    7       -5.651594     -5.651542   1.000000   1.000000
    8       -5.373954     -5.373876   1.000000   1.000000
    9       -2.554778     -2.554850   1.000000   1.000000
   10       -1.940217     -1.940256   1.000000   1.000000
   11       -1.084724     -1.084695   1.000000   1.000000
   12       -0.748122     -0.748124   1.000000   1.000000
   13        0.340670      0.340667   1.000000   1.000000
   14        0.459842      0.459835   1.000000   1.000000
   15        1.047032      1.047061   1.000000   1.000000
   16        1.959789      1.959763   1.000000   1.000000
   17        7.653071      7.652937  -0.000000  -0.000001
   18        7.855515      7.855314   0.000000   0.000000
   19        8.877007      8.876775   0.000000   0.000000
   20       10.271206     10.270978   0.000000   0.000000
   21       10.457498     10.457131   0.000000   0.000000
   22       11.481624     11.481485   0.000000   0.000000
 
  0.2500000E+00  0.1250000E+00 -0.2123985E-16  0.3125000E-02
    1      -19.697602    -19.697567   1.000000   1.000000
    2      -17.799860    -17.799780   1.000000   1.000000
    3      -14.360877    -14.360768   1.000000   1.000000
    4      -13.113851    -13.113692   1.000000   1.000000
    5       -9.951567     -9.951506   1.000000   1.000000
    6       -6.747214     -6.747175   1.000000   1.000000
    7       -5.681324     -5.681251   1.000000   1.000000
    8       -5.307905     -5.307818   1.000000   1.000000
    9       -2.483049     -2.483117   1.000000   1.000000
   10       -2.135506     -2.135556   1.000000   1.000000
   11       -1.427300     -1.427299   1.000000   1.000000
   12       -0.653112     -0.653127   1.000000   1.000000
   13        0.309343      0.309346   1.000000   1.000000
   14        0.430810      0.430798   1.000000   1.000000
   15        0.968730      0.968741   1.000000   1.000000
   16        1.931658      1.931649   1.000000   1.000000
   17        7.756331      7.756163   0.000000   0.000000
   18        8.259602      8.259493   0.000000   0.000000
   19        9.041973      9.041718   0.000000   0.000000
   20       10.111861     10.111613   0.000000   0.000000
   21       10.470124     10.469890   0.000000   0.000000
   22       11.453973     11.451550   0.000000   0.000000
 
  0.3750000E+00  0.1250000E+00 -0.1536345E-16  0.3125000E-02
    1      -19.651094    -19.651058   1.000000   1.000000
    2      -17.812606    -17.812526   1.000000   1.000000
    3      -14.436921    -14.436826   1.000000   1.000000
    4      -13.368502    -13.368341   1.000000   1.000000
    5       -9.424226     -9.424163   1.000000   1.000000
    6       -6.782106     -6.782055   1.000000   1.000000
    7       -5.716796     -5.716699   1.000000   1.000000
    8       -5.228646     -5.228555   1.000000   1.000000
    9       -2.496254     -2.496329   1.000000   1.000000
   10       -2.320497     -2.320558   1.000000   1.000000
   11       -1.608178     -1.608191   1.000000   1.000000
   12       -0.484523     -0.484540   1.000000   1.000000
   13        0.157117      0.157129   1.000000   1.000000
   14        0.398374      0.398347   1.000000   1.000000
   15        1.089338      1.089338   1.000000   1.000000
   16        1.794164      1.794167   1.000000   1.000000
   17        7.790463      7.790266   0.000000   0.000000
   18        8.486155      8.486104   0.000000   0.000000
   19        9.262427      9.262215   0.000000   0.000000
   20       10.143813     10.143539   0.000000   0.000000
   21       10.461114     10.460985   0.000000   0.000000
   22       11.513127     11.509515   0.000000   0.000000
 
  0.5000000E+00  0.1250000E+00 -0.5836194E-16  0.3125000E-02
    1      -19.648754    -19.648717   1.000000   1.000000
    2      -17.811293    -17.811214   1.000000   1.000000
    3      -14.347053    -14.346964   1.000000   1.000000
    4      -13.525511    -13.525348   1.000000   1.000000
    5       -9.324065     -9.324001   1.000000   1.000000
    6       -6.801215     -6.801162   1.000000   1.000000
    7       -5.729071     -5.728969   1.000000   1.000000
    8       -5.196911     -5.196820   1.000000   1.000000
    9       -2.492249     -2.492324   1.000000   1.000000
   10       -2.372135     -2.372199   1.000000   1.000000
   11       -1.645459     -1.645472   1.000000   1.000000
   12       -0.437024     -0.437040   1.000000   1.000000
   13        0.126329      0.126336   1.000000   1.000000
   14        0.418714      0.418692   1.000000   1.000000
   15        1.287562      1.287553   1.000000   1.000000
   16        1.622347      1.622357   1.000000   1.000000
   17        7.686209      7.686008   0.000000   0.000000
   18        8.473321      8.473264   0.000000   0.000000
   19        9.290826      9.290632   0.000000   0.000000
   20       10.391439     10.391229   0.000000   0.000000
   21       10.471339     10.471123   0.000000   0.000000
   22       11.411556     11.410422   0.000000   0.000000
 
 -0.3750000E+00  0.1250000E+00 -0.8988485E-17  0.3125000E-02
    1      -19.692043    -19.692008   1.000000   1.000000
    2      -17.796862    -17.796782   1.000000   1.000000
    3      -14.086221    -14.086122   1.000000   1.000000
    4      -13.581513    -13.581354   1.000000   1.000000
    5       -9.696138     -9.696073   1.000000   1.000000
    6       -6.780574     -6.780534   1.000000   1.000000
    7       -5.710805     -5.710718   1.000000   1.000000
    8       -5.230674     -5.230587   1.000000   1.000000
    9       -2.502650     -2.502716   1.000000   1.000000
   10       -2.180399     -2.180450   1.000000   1.000000
   11       -1.571400     -1.571406   1.000000   1.000000
   12       -0.583241     -0.583256   1.000000   1.000000
   13        0.286552      0.286545   1.000000   1.000000
   14        0.477474      0.477476   1.000000   1.000000
   15        1.274942      1.274947   1.000000   1.000000
   16        1.701936      1.701932   1.000000   1.000000
   17        7.548464      7.548276   0.000000   0.000000
   18        8.213970      8.213882   0.000000   0.000000
   19        9.259655      9.259408   0.000000   0.000000
   20        9.960562      9.960355   0.000000   0.000000
   21       10.787959     10.787508   0.000000   0.000000
   22       11.642578     11.631423   0.000000   0.000000
 
 -0.2500000E+00  0.1250000E+00  0.2992332E-16  0.3125000E-02
    1      -19.752525    -19.752492   1.000000   1.000000
    2      -17.779144    -17.779063   1.000000   1.000000
    3      -13.901252    -13.901112   1.000000   1.000000
    4      -13.342912    -13.342781   1.000000   1.000000
    5      -10.335327    -10.335266   1.000000   1.000000
    6       -6.773777     -6.773748   1.000000   1.000000
    7       -5.672267     -5.672203   1.000000   1.000000
    8       -5.303570     -5.303492   1.000000   1.000000
    9       -2.590020     -2.590092   1.000000   1.000000
   10       -1.897482     -1.897510   1.000000   1.000000
   11       -1.304688     -1.304671   1.000000   1.000000
   12       -0.721018     -0.721031   1.000000   1.000000
   13        0.364875      0.364864   1.000000   1.000000
   14        0.520558      0.520567   1.000000   1.000000
   15        1.237129      1.237156   1.000000   1.000000
   16        1.846044      1.846023   1.000000   1.000000
   17        7.615867      7.615685   0.000000   0.000000
   18        7.797101      7.797001   0.000000   0.000000
   19        8.778196      8.777889   0.000000   0.000000
   20       10.158633     10.158473   0.000000   0.000000
   21       10.815764     10.815440   0.000000   0.000000
   22       11.501691     11.497037   0.000000   0.000000
 
 -0.1250000E+00  0.1250000E+00  0.4989435E-16  0.3125000E-02
    1      -19.794920    -19.794888   1.000000   1.000000
    2      -17.768240    -17.768158   1.000000   1.000000
    3      -13.937751    -13.937601   1.000000   1.000000
    4      -12.791522    -12.791375   1.000000   1.000000
    5      -10.988954    -10.988916   1.000000   1.000000
    6       -6.778224     -6.778199   1.000000   1.000000
    7       -5.656382     -5.656329   1.000000   1.000000
    8       -5.356012     -5.355945   1.000000   1.000000
    9       -2.629697     -2.629772   1.000000   1.000000
   10       -1.828253     -1.828283   1.000000   1.000000
   11       -0.917884     -0.917839   1.000000   1.000000
   12       -0.802444     -0.802445   1.000000   1.000000
   13        0.361317      0.361312   1.000000   1.000000
   14        0.533446      0.533450   1.000000   1.000000
   15        1.208224      1.208265   1.000000   1.000000
   16        1.912648      1.912611   1.000000   1.000000
   17        7.491711      7.491609   0.000000   0.000000
   18        7.630557      7.630309   0.000000   0.000000
   19        8.721377      8.721136   0.000000   0.000000
   20       10.292722     10.292163   0.000000   0.000000
   21       10.550157     10.549330   0.000000   0.000000
   22       11.934787     11.685421   0.000000   0.000000
 
  0.3398000E-16  0.2500000E+00  0.7279258E-16  0.3125000E-02
    1      -19.597280    -19.597244   1.000000   1.000000
    2      -18.051278    -18.051205   1.000000   1.000000
    3      -14.275791    -14.275658   1.000000   1.000000
    4      -12.506647    -12.506467   1.000000   1.000000
    5      -10.648044    -10.648018   1.000000   1.000000
    6       -6.893588     -6.893550   1.000000   1.000000
    7       -5.639683     -5.639631   1.000000   1.000000
    8       -5.211100     -5.211014   1.000000   1.000000
    9       -2.682386     -2.682460   1.000000   1.000000
   10       -1.887064     -1.887099   1.000000   1.000000
   11       -1.049342     -1.049372   1.000000   1.000000
   12       -0.927618     -0.927585   1.000000   1.000000
   13        0.244069      0.244042   1.000000   1.000000
   14        0.550102      0.550113   1.000000   1.000000
   15        1.028634      1.028671   1.000000   1.000000
   16        1.923542      1.923506   1.000000   1.000000
   17        7.851331      7.851252   0.000000   0.000000
   18        8.069906      8.069666   0.000000   0.000000
   19        9.200452      9.200299   0.000000   0.000000
   20       10.060394     10.060067   0.000000   0.000000
   21       10.498920     10.498574   0.000000   0.000000
   22       11.626994     11.627344   0.000000   0.000000
 
  0.1250000E+00  0.2500000E+00  0.7866898E-16  0.3125000E-02
    1      -19.546723    -19.546686   1.000000   1.000000
    2      -18.077873    -18.077801   1.000000   1.000000
    3      -14.409303    -14.409181   1.000000   1.000000
    4      -12.723620    -12.723452   1.000000   1.000000
    5      -10.142288    -10.142241   1.000000   1.000000
    6       -6.945563     -6.945518   1.000000   1.000000
    7       -5.610110     -5.610048   1.000000   1.000000
    8       -5.197803     -5.197713   1.000000   1.000000
    9       -2.617862     -2.617934   1.000000   1.000000
   10       -2.033460     -2.033503   1.000000   1.000000
   11       -1.229658     -1.229652   1.000000   1.000000
   12       -0.937640     -0.937675   1.000000   1.000000
   13        0.213406      0.213381   1.000000   1.000000
   14        0.571051      0.571061   1.000000   1.000000
   15        0.940071      0.940101   1.000000   1.000000
   16        1.961365      1.961346   1.000000   1.000000
   17        7.882210      7.882093   0.000000   0.000000
   18        8.314700      8.314508   0.000000   0.000000
   19        9.352687      9.352513   0.000000   0.000000
   20       10.068289     10.068107   0.000000   0.000000
   21       10.530459     10.529984   0.000000   0.000000
   22       11.364825     11.364312   0.000000   0.000000
 
  0.2500000E+00  0.2500000E+00 -0.2647692E-16  0.3125000E-02
    1      -19.489975    -19.489936   1.000000   1.000000
    2      -18.104333    -18.104262   1.000000   1.000000
    3      -14.476480    -14.476369   1.000000   1.000000
    4      -13.050955    -13.050797   1.000000   1.000000
    5       -9.493196     -9.493135   1.000000   1.000000
    6       -7.107935     -7.107881   1.000000   1.000000
    7       -5.567993     -5.567913   1.000000   1.000000
    8       -5.139939     -5.139845   1.000000   1.000000
    9       -2.616571     -2.616644   1.000000   1.000000
   10       -2.191727     -2.191775   1.000000   1.000000
   11       -1.507723     -1.507741   1.000000   1.000000
   12       -0.760754     -0.760788   1.000000   1.000000
   13        0.257747      0.257735   1.000000   1.000000
   14        0.463327      0.463322   1.000000   1.000000
   15        0.904540      0.904553   1.000000   1.000000
   16        1.959241      1.959241   1.000000   1.000000
   17        7.892780      7.892630   0.000000   0.000000
   18        8.611928      8.611809   0.000000   0.000000
   19        9.291774      9.291575   0.000000   0.000000
   20       10.122929     10.122787   0.000000   0.000000
   21       10.489879     10.489550   0.000000   0.000000
   22       11.591520     11.586054   0.000000   0.000000
 
  0.3750000E+00  0.2500000E+00  0.8378552E-16  0.3125000E-02
    1      -19.462219    -19.462180   1.000000   1.000000
    2      -18.113294    -18.113224   1.000000   1.000000
    3      -14.420248    -14.420142   1.000000   1.000000
    4      -13.342191    -13.342036   1.000000   1.000000
    5       -9.030108     -9.030044   1.000000   1.000000
    6       -7.309376     -7.309314   1.000000   1.000000
    7       -5.529417     -5.529324   1.000000   1.000000
    8       -5.076696     -5.076601   1.000000   1.000000
    9       -2.633062     -2.633135   1.000000   1.000000
   10       -2.300701     -2.300749   1.000000   1.000000
   11       -1.677424     -1.677461   1.000000   1.000000
   12       -0.594793     -0.594819   1.000000   1.000000
   13        0.192441      0.192441   1.000000   1.000000
   14        0.446549      0.446534   1.000000   1.000000
   15        1.063408      1.063404   1.000000   1.000000
   16        1.829184      1.829197   1.000000   1.000000
   17        7.929686      7.929516   0.000000   0.000000
   18        8.523904      8.523827   0.000000   0.000000
   19        9.288141      9.287923   0.000000   0.000000
   20       10.092614     10.092474   0.000000   0.000000
   21       10.889425     10.889682   0.000000   0.000000
   22       11.663432     11.663315   0.000000   0.000000
 
  0.5000000E+00  0.2500000E+00 -0.4247969E-16  0.3125000E-02
    1      -19.482411    -19.482372   1.000000   1.000000
    2      -18.097818    -18.097748   1.000000   1.000000
    3      -14.202404    -14.202299   1.000000   1.000000
    4      -13.568762    -13.568609   1.000000   1.000000
    5       -9.066790     -9.066725   1.000000   1.000000
    6       -7.320364     -7.320308   1.000000   1.000000
    7       -5.507213     -5.507119   1.000000   1.000000
    8       -5.051352     -5.051254   1.000000   1.000000
    9       -2.528688     -2.528736   1.000000   1.000000
   10       -2.403987     -2.404057   1.000000   1.000000
   11       -1.696709     -1.696749   1.000000   1.000000
   12       -0.648358     -0.648380   1.000000   1.000000
   13        0.231572      0.231557   1.000000   1.000000
   14        0.526063      0.526068   1.000000   1.000000
   15        1.326804      1.326788   1.000000   1.000000
   16        1.638910      1.638932   1.000000   1.000000
   17        7.697175      7.697010   0.000000   0.000000
   18        8.546862      8.546772   0.000000   0.000000
   19        9.169656      9.169444   0.000000   0.000000
   20       10.436107     10.436009   0.000000   0.000000
   21       10.946417     10.945597   0.000000   0.000000
   22       11.566049     11.565023   0.000000   0.000000
 
 -0.3750000E+00  0.2500000E+00  0.9513768E-16  0.3125000E-02
    1      -19.536241    -19.536203   1.000000   1.000000
    2      -18.069158    -18.069086   1.000000   1.000000
    3      -13.902883    -13.902759   1.000000   1.000000
    4      -13.657630    -13.657490   1.000000   1.000000
    5       -9.543152     -9.543089   1.000000   1.000000
    6       -7.162912     -7.162870   1.000000   1.000000
    7       -5.515563     -5.515482   1.000000   1.000000
    8       -5.081013     -5.080913   1.000000   1.000000
    9       -2.654980     -2.655048   1.000000   1.000000
   10       -2.089762     -2.089794   1.000000   1.000000
   11       -1.604928     -1.604960   1.000000   1.000000
   12       -0.791592     -0.791613   1.000000   1.000000
   13        0.269682      0.269654   1.000000   1.000000
   14        0.618968      0.618987   1.000000   1.000000
   15        1.344815      1.344827   1.000000   1.000000
   16        1.714385      1.714385   1.000000   1.000000
   17        7.557563      7.557404   0.000000   0.000000
   18        8.285082      8.284966   0.000000   0.000000
   19        9.333682      9.333442   0.000000   0.000000
   20       10.204507     10.204327   0.000000   0.000000
   21       11.002773     10.997629   0.000000   0.000000
   22       11.665725     11.643927   0.000000   0.000000
 
 -0.2500000E+00  0.2500000E+00  0.3024844E-16  0.3125000E-02
    1      -19.589978    -19.589942   1.000000   1.000000
    2      -18.045332    -18.045259   1.000000   1.000000
    3      -13.972140    -13.971995   1.000000   1.000000
    4      -13.225470    -13.225337   1.000000   1.000000
    5      -10.141750    -10.141695   1.000000   1.000000
    6       -7.021004     -7.020969   1.000000   1.000000
    7       -5.560023     -5.559958   1.000000   1.000000
    8       -5.140715     -5.140621   1.000000   1.000000
    9       -2.741398     -2.741475   1.000000   1.000000
   10       -1.834552     -1.834570   1.000000   1.000000
   11       -1.338170     -1.338177   1.000000   1.000000
   12       -0.896309     -0.896329   1.000000   1.000000
   13        0.301237      0.301210   1.000000   1.000000
   14        0.590988      0.591005   1.000000   1.000000
   15        1.231054      1.231084   1.000000   1.000000
   16        1.860838      1.860819   1.000000   1.000000
   17        7.689908      7.689759   0.000000   0.000000
   18        7.997404      7.997286   0.000000   0.000000
   19        9.118520      9.118235   0.000000   0.000000
   20       10.249307     10.249404   0.000000   0.000000
   21       10.705246     10.704683   0.000000   0.000000
   22       11.707461     11.812686   0.000000   0.000000
 
 -0.1250000E+00  0.2500000E+00  0.6691618E-16  0.3125000E-02
    1      -19.614386    -19.614351   1.000000   1.000000
    2      -18.038405    -18.038332   1.000000   1.000000
    3      -14.121851    -14.121710   1.000000   1.000000
    4      -12.711139    -12.710978   1.000000   1.000000
    5      -10.620490    -10.620455   1.000000   1.000000
    6       -6.928707     -6.928673   1.000000   1.000000
    7       -5.619580     -5.619526   1.000000   1.000000
    8       -5.187725     -5.187639   1.000000   1.000000
    9       -2.740313     -2.740389   1.000000   1.000000
   10       -1.811968     -1.811996   1.000000   1.000000
   11       -1.081464     -1.081475   1.000000   1.000000
   12       -0.900730     -0.900713   1.000000   1.000000
   13        0.346865      0.346845   1.000000   1.000000
   14        0.505951      0.505961   1.000000   1.000000
   15        1.098821      1.098854   1.000000   1.000000
   16        1.910825      1.910791   1.000000   1.000000
   17        7.832561      7.832508   0.000000   0.000000
   18        7.919087      7.918846   0.000000   0.000000
   19        9.046510      9.046289   0.000000   0.000000
   20       10.125814     10.125472   0.000000   0.000000
   21       10.557461     10.557030   0.000000   0.000000
   22       11.799248     11.797182   0.000000   0.000000
 
  0.6484778E-16  0.3750000E+00  0.1230667E-15  0.3125000E-02
    1      -19.284066    -19.284024   1.000000   1.000000
    2      -18.446496    -18.446434   1.000000   1.000000
    3      -14.446803    -14.446676   1.000000   1.000000
    4      -12.545610    -12.545433   1.000000   1.000000
    5      -10.070298    -10.070265   1.000000   1.000000
    6       -7.088997     -7.088939   1.000000   1.000000
    7       -5.504495     -5.504426   1.000000   1.000000
    8       -5.150181     -5.150093   1.000000   1.000000
    9       -2.752069     -2.752142   1.000000   1.000000
   10       -1.925829     -1.925854   1.000000   1.000000
   11       -1.288397     -1.288441   1.000000   1.000000
   12       -1.104178     -1.104205   1.000000   1.000000
   13        0.109564      0.109529   1.000000   1.000000
   14        0.690171      0.690189   1.000000   1.000000
   15        0.967261      0.967302   1.000000   1.000000
   16        1.906999      1.906969   1.000000   1.000000
   17        8.098449      8.098390   0.000000   0.000000
   18        8.601133      8.600912   0.000000   0.000000
   19        9.568568      9.568435   0.000000   0.000000
   20        9.933406      9.933227   0.000000   0.000000
   21       10.758293     10.757834   0.000000   0.000000
   22       11.283219     11.283087   0.000000   0.000000
 
  0.1250000E+00  0.3750000E+00  0.1500624E-15  0.3125000E-02
    1      -19.230376    -19.230333   1.000000   1.000000
    2      -18.485891    -18.485831   1.000000   1.000000
    3      -14.499816    -14.499694   1.000000   1.000000
    4      -12.715509    -12.715342   1.000000   1.000000