 running on    8 total cores
 distrk:  each k-point on    8 cores,    1 groups
 distr:  one band on    4 cores,    2 groups
 using from now: INCAR     
 vasp.6.1.2 22Jul20 (build Mar 20 2021 11:25:07) complex                        
  
 POSCAR found type information on POSCAR LiP 
 POSCAR found :  2 types and      40 ions
 scaLAPACK will be used
 LDA part: xc-table for Pade appr. of Perdew
 generate k-points for:    4    3    3
 POSCAR, INCAR and KPOINTS ok, starting setup
 FFT: planning ...
 WAVECAR not read
 entering main loop
       N       E                     dE             d eps       ncg     rms          rms(c)
DAV:   1     0.106058443578E+04    0.10606E+04   -0.68702E+04  6832   0.133E+03
DAV:   2    -0.294210126688E+02   -0.10900E+04   -0.10059E+04  7976   0.288E+02
DAV:   3    -0.166312926095E+03   -0.13689E+03   -0.13513E+03  9180   0.968E+01
DAV:   4    -0.182242167397E+03   -0.15929E+02   -0.15829E+02 12352   0.291E+01
DAV:   5    -0.185384791782E+03   -0.31426E+01   -0.31410E+01 11184   0.850E+00    0.339E+01
DAV:   6    -0.185738921689E+03   -0.35413E+00   -0.93526E+00  8944   0.710E+00    0.186E+01
DAV:   7    -0.187927852141E+03   -0.21889E+01   -0.31942E+00  8744   0.431E+00    0.112E+01
DAV:   8    -0.188803189179E+03   -0.87534E+00   -0.14119E+00  7984   0.308E+00    0.248E+00
DAV:   9    -0.188880748730E+03   -0.77560E-01   -0.20492E-01  9728   0.133E+00    0.114E+00
DAV:  10    -0.188894262735E+03   -0.13514E-01   -0.39322E-02  8888   0.511E-01    0.406E-01
DAV:  11    -0.188898262170E+03   -0.39994E-02   -0.57719E-03  8240   0.242E-01    0.204E-01
DAV:  12    -0.188900246845E+03   -0.19847E-02   -0.22409E-03  9416   0.132E-01    0.106E-01
DAV:  13    -0.188901226582E+03   -0.97974E-03   -0.72467E-04  8160   0.692E-02    0.425E-02
DAV:  14    -0.188901548880E+03   -0.32230E-03   -0.30017E-04  8176   0.434E-02    0.227E-02
DAV:  15    -0.188901632979E+03   -0.84099E-04   -0.93495E-05  7288   0.250E-02    0.116E-02
DAV:  16    -0.188901651764E+03   -0.18786E-04   -0.19777E-05  6624   0.129E-02    0.530E-03
DAV:  17    -0.188901656196E+03   -0.44319E-05   -0.49565E-06  5128   0.710E-03
   1 F= -.18890166E+03 E0= -.18890166E+03  d E =0.000000E+00  mag=    -0.0003
