       N       E                     dE             d eps       ncg     rms          rms(c)
DAV:   1     0.176229938738E+03    0.17623E+03   -0.16108E+04 27840   0.119E+03
DAV:   2    -0.373137515626E+02   -0.21354E+03   -0.20509E+03 38624   0.277E+02
DAV:   3    -0.491447296955E+02   -0.11831E+02   -0.11764E+02 36944   0.686E+01
DAV:   4    -0.492857546414E+02   -0.14102E+00   -0.14094E+00 33512   0.847E+00
DAV:   5    -0.492883069505E+02   -0.25523E-02   -0.25514E-02 36896   0.108E+00    0.248E+01
RMM:   6    -0.436053774898E+02    0.56829E+01   -0.16939E+01 28135   0.214E+01    0.981E+00
RMM:   7    -0.438199765468E+02   -0.21460E+00   -0.29985E+00 32607   0.104E+01    0.463E+00
RMM:   8    -0.438149444394E+02    0.50321E-02   -0.33475E-01 32136   0.380E+00    0.269E+00
RMM:   9    -0.438138406981E+02    0.11037E-02   -0.80965E-02 32824   0.201E+00    0.659E-01
RMM:  10    -0.438146722483E+02   -0.83155E-03   -0.22312E-02 35812   0.862E-01    0.229E-01
RMM:  11    -0.438155154051E+02   -0.84316E-03   -0.10842E-02 34927   0.573E-01    0.187E-01
RMM:  12    -0.438154381689E+02    0.77236E-04   -0.12884E-03 34887   0.235E-01    0.101E-01
RMM:  13    -0.438154273783E+02    0.10791E-04   -0.85219E-04 33643   0.188E-01    0.373E-02
RMM:  14    -0.438154205916E+02    0.67867E-05   -0.84284E-05 35465   0.678E-02
   1 F= -.43815421E+02 E0= -.43815421E+02  d E =0.000000E+00  mag=    -0.0002
