    8    8    1    2
  0.7903622E+01  0.3108488E-09  0.3108488E-09  0.7555918E-09  0.5000000E-15
  1.000000000000000E-004
  CAR 
 unknown system                          
     36     57     32
 
  0.0000000E+00  0.0000000E+00  0.0000000E+00  0.1736111E-02
    1      -41.230080    -41.229556   1.000000   1.000000
    2      -41.218863    -41.218326   1.000000   1.000000
    3      -40.895289    -40.895172   1.000000   1.000000
    4      -40.884954    -40.884822   1.000000   1.000000
    5      -18.125400    -18.125415   1.000000   1.000000
    6      -17.930071    -17.930092   1.000000   1.000000
    7      -12.842354    -12.842360   1.000000   1.000000
    8      -12.030163    -12.030189   1.000000   1.000000
    9       -3.903503     -3.903484   1.000000   1.000000
   10       -1.980274     -1.980293   1.000000   1.000000
   11       -0.741027     -0.741043   1.000000   1.000000
   12       -0.741013     -0.741029   1.000000   1.000000
   13       -0.569827     -0.569849   1.000000   1.000000
   14       -0.569819     -0.569842   1.000000   1.000000
   15        2.558161      2.558144   1.000000   1.000000
   16        2.558169      2.558152   1.000000   1.000000
   17        2.824548      2.824521   1.000000   1.000000
   18        2.824551      2.824524   1.000000   1.000000
   19        5.093299      5.093327   0.000000   0.000000
   20        7.370355      7.370339   0.000000   0.000000
   21        9.119453      9.119432   0.000000   0.000000
   22        9.713516      9.713565   0.000000   0.000000
   23       11.891996     11.891928   0.000000   0.000000
   24       11.924557     11.924586   0.000000   0.000000
   25       14.727096     14.727007   0.000000   0.000000
   26       14.727108     14.727011   0.000000   0.000000
   27       16.482584     16.483237   0.000000   0.000000
   28       16.591136     16.591126   0.000000   0.000000
   29       16.591141     16.591126   0.000000   0.000000
   30       17.861854     17.861636   0.000000   0.000000
   31       17.861860     17.861649   0.000000   0.000000
   32       21.980502     21.981941   0.000000   0.000000
 
  0.8333333E-01 -0.5075508E-17  0.0000000E+00  0.1041667E-01
    1      -41.228485    -41.227961   1.000000   1.000000
    2      -41.217970    -41.217433   1.000000   1.000000
    3      -40.893699    -40.893582   1.000000   1.000000
    4      -40.884062    -40.883931   1.000000   1.000000
    5      -18.114548    -18.114564   1.000000   1.000000
    6      -17.922847    -17.922870   1.000000   1.000000
    7      -12.810653    -12.810660   1.000000   1.000000
    8      -12.012585    -12.012612   1.000000   1.000000
    9       -3.886917     -3.886899   1.000000   1.000000
   10       -1.990286     -1.990305   1.000000   1.000000
   11       -0.914096     -0.914112   1.000000   1.000000
   12       -0.809668     -0.809685   1.000000   1.000000
   13       -0.682125     -0.682145   1.000000   1.000000
   14       -0.596776     -0.596797   1.000000   1.000000
   15        2.352956      2.352940   1.000000   1.000000
   16        2.488000      2.487983   1.000000   1.000000
   17        2.684614      2.684593   1.000000   1.000000
   18        2.833003      2.832977   1.000000   1.000000
   19        5.152504      5.152527   0.000000   0.000000
   20        7.366040      7.366023   0.000000   0.000000
   21        9.291103      9.291080   0.000000   0.000000
   22        9.858950      9.858996   0.000000   0.000000
   23       12.054539     12.054561   0.000000   0.000000
   24       12.128814     12.128746   0.000000   0.000000
   25       14.438197     14.438129   0.000000   0.000000
   26       14.918518     14.918419   0.000000   0.000000
   27       16.408391     16.408882   0.000000   0.000000
   28       16.801255     16.801241   0.000000   0.000000
   29       16.896077     16.896259   0.000000   0.000000
   30       17.725409     17.725441   0.000000   0.000000
   31       17.885341     17.885124   0.000000   0.000000
   32       21.519058     21.492504   0.000000   0.000000
 
  0.1666667E+00 -0.1639963E-16  0.0000000E+00  0.1041667E-01
    1      -41.224123    -41.223596   1.000000   1.000000
    2      -41.215358    -41.214820   1.000000   1.000000
    3      -40.889257    -40.889140   1.000000   1.000000
    4      -40.881462    -40.881333   1.000000   1.000000
    5      -18.083801    -18.083818   1.000000   1.000000
    6      -17.903496    -17.903519   1.000000   1.000000
    7      -12.719497    -12.719507   1.000000   1.000000
    8      -11.966091    -11.966119   1.000000   1.000000
    9       -3.838865     -3.838849   1.000000   1.000000
   10       -2.027551     -2.027568   1.000000   1.000000
   11       -1.335276     -1.335287   1.000000   1.000000
   12       -0.996759     -0.996775   1.000000   1.000000
   13       -0.977891     -0.977907   1.000000   1.000000
   14       -0.683371     -0.683391   1.000000   1.000000
   15        1.874402      1.874391   1.000000   1.000000
   16        2.287458      2.287447   1.000000   1.000000
   17        2.328453      2.328436   1.000000   1.000000
   18        2.826508      2.826484   1.000000   1.000000
   19        5.301235      5.301248   0.000000   0.000000
   20        7.337017      7.337000   0.000000   0.000000
   21        9.737696      9.737668   0.000000   0.000000
   22       10.247374     10.247415   0.000000   0.000000
   23       12.388098     12.388105   0.000000   0.000000
   24       12.762999     12.762930   0.000000   0.000000
   25       13.970669     13.970624   0.000000   0.000000
   26       15.440663     15.440551   0.000000   0.000000
   27       15.979638     15.979813   0.000000   0.000000
   28       17.394914     17.394892   0.000000   0.000000
   29       17.400218     17.400111   0.000000   0.000000
   30       17.642828     17.642824   0.000000   0.000000
   31       17.940788     17.940572   0.000000   0.000000
   32       19.884856     19.884493   0.000000   0.000000
 
  0.2500000E+00 -0.3225987E-16  0.0000000E+00  0.1041667E-01
    1      -41.218079    -41.217548   1.000000   1.000000
    2      -41.211843    -41.211305   1.000000   1.000000
    3      -40.883159    -40.883041   1.000000   1.000000
    4      -40.877836    -40.877711   1.000000   1.000000
    5      -18.038693    -18.038712   1.000000   1.000000
    6      -17.878251    -17.878275   1.000000   1.000000
    7      -12.583157    -12.583171   1.000000   1.000000
    8      -11.909422    -11.909450   1.000000   1.000000
    9       -3.765982     -3.765969   1.000000   1.000000
   10       -2.146924     -2.146937   1.000000   1.000000
   11       -1.793950     -1.793959   1.000000   1.000000
   12       -1.409789     -1.409802   1.000000   1.000000
   13       -1.183692     -1.183708   1.000000   1.000000
   14       -0.811636     -0.811655   1.000000   1.000000
   15        1.328144      1.328139   1.000000   1.000000
   16        1.753248      1.753245   1.000000   1.000000
   17        2.143271      2.143255   1.000000   1.000000
   18        2.790627      2.790606   1.000000   1.000000
   19        5.494462      5.494465   0.000000   0.000000
   20        7.262797      7.262781   0.000000   0.000000
   21       10.268333     10.268301   0.000000   0.000000
   22       10.772725     10.772757   0.000000   0.000000
   23       12.792997     12.792983   0.000000   0.000000
   24       13.613265     13.613197   0.000000   0.000000
   25       13.627672     13.627613   0.000000   0.000000
   26       15.525768     15.525821   0.000000   0.000000
   27       16.128672     16.128538   0.000000   0.000000
   28       17.037699     17.037656   0.000000   0.000000
   29       17.998351     17.998138   0.000000   0.000000
   30       18.214890     18.214284   0.000000   0.000000
   31       18.260283     18.260250   0.000000   0.000000
   32       18.667071     18.666952   0.000000   0.000000
 
  0.3333333E+00  0.2277440E-16  0.0000000E+00  0.1041667E-01
    1      -41.212162    -41.211629   1.000000   1.000000
    2      -41.208274    -41.207736   1.000000   1.000000
    3      -40.877139    -40.877021   1.000000   1.000000
    4      -40.874124    -40.874001   1.000000   1.000000
    5      -17.989091    -17.989113   1.000000   1.000000
    6      -17.855410    -17.855434   1.000000   1.000000
    7      -12.427475    -12.427493   1.000000   1.000000
    8      -11.866403    -11.866430   1.000000   1.000000
    9       -3.681723     -3.681714   1.000000   1.000000
   10       -2.490207     -2.490209   1.000000   1.000000
   11       -2.011764     -2.011777   1.000000   1.000000
   12       -1.784644     -1.784655   1.000000   1.000000
   13       -1.372607     -1.372622   1.000000   1.000000
   14       -0.942159     -0.942177   1.000000   1.000000
   15        0.869595      0.869597   1.000000   1.000000
   16        1.224147      1.224149   1.000000   1.000000
   17        1.977335      1.977320   1.000000   1.000000
   18        2.741741      2.741722   1.000000   1.000000
   19        5.700972      5.700969   0.000000   0.000000
   20        7.144741      7.144727   0.000000   0.000000
   21       10.632901     10.632959   0.000000   0.000000
   22       11.318362     11.318385   0.000000   0.000000
   23       13.138008     13.137975   0.000000   0.000000
   24       13.504710     13.504510   0.000000   0.000000
   25       14.458274     14.458213   0.000000   0.000000
   26       15.234667     15.234716   0.000000   0.000000
   27       16.706848     16.706676   0.000000   0.000000
   28       16.751729     16.751712   0.000000   0.000000
   29       17.822372     17.822264   0.000000   0.000000
   30       18.038210     18.037920   0.000000   0.000000
   31       18.538739     18.534630   0.000000   0.000000
   32       19.198671     19.197450   0.000000   0.000000
 
  0.4166667E+00  0.2223501E-16  0.0000000E+00  0.1041667E-01
    1      -41.207898    -41.207362   1.000000   1.000000
    2      -41.205715    -41.205177   1.000000   1.000000
    3      -40.872908    -40.872789   1.000000   1.000000
    4      -40.871268    -40.871147   1.000000   1.000000
    5      -17.948427    -17.948451   1.000000   1.000000
    6      -17.841829    -17.841854   1.000000   1.000000
    7      -12.292854    -12.292876   1.000000   1.000000
    8      -11.852027    -11.852055   1.000000   1.000000
    9       -3.606592     -3.606589   1.000000   1.000000
   10       -2.820473     -2.820466   1.000000   1.000000
   11       -2.138660     -2.138671   1.000000   1.000000
   12       -1.991572     -1.991584   1.000000   1.000000
   13       -1.502987     -1.503002   1.000000   1.000000
   14       -1.037211     -1.037228   1.000000   1.000000
   15        0.599280      0.599289   1.000000   1.000000
   16        0.814584      0.814586   1.000000   1.000000
   17        1.863887      1.863873   1.000000   1.000000
   18        2.701617      2.701600   1.000000   1.000000
   19        5.880653      5.880644   0.000000   0.000000
   20        7.016958      7.016947   0.000000   0.000000
   21       10.764159     10.764426   0.000000   0.000000
   22       11.708808     11.708827   0.000000   0.000000
   23       13.350143     13.350097   0.000000   0.000000
   24       13.571536     13.571014   0.000000   0.000000
   25       15.054594     15.054552   0.000000   0.000000
   26       15.150921     15.150983   0.000000   0.000000
   27       16.669690     16.669645   0.000000   0.000000
   28       16.975159     16.974980   0.000000   0.000000
   29       17.273982     17.273878   0.000000   0.000000
   30       18.057327     18.057125   0.000000   0.000000
   31       18.775249     18.761993   0.000000   0.000000
   32       19.920364     19.926395   0.000000   0.000000
 
  0.5000000E+00 -0.6451974E-16  0.0000000E+00  0.5208333E-02
    1      -41.206380    -41.205843   1.000000   1.000000
    2      -41.204706    -41.204168   1.000000   1.000000
    3      -40.871415    -40.871297   1.000000   1.000000
    4      -40.870108    -40.869989   1.000000   1.000000
    5      -17.932075    -17.932099   1.000000   1.000000
    6      -17.837883    -17.837908   1.000000   1.000000
    7      -12.235358    -12.235382   1.000000   1.000000
    8      -11.854163    -11.854189   1.000000   1.000000
    9       -3.572410     -3.572412   1.000000   1.000000
   10       -2.949200     -2.949188   1.000000   1.000000
   11       -2.207156     -2.207167   1.000000   1.000000
   12       -2.037635     -2.037648   1.000000   1.000000
   13       -1.549281     -1.549296   1.000000   1.000000
   14       -1.071751     -1.071768   1.000000   1.000000
   15        0.539210      0.539228   1.000000   1.000000
   16        0.633322      0.633318   1.000000   1.000000
   17        1.823721      1.823707   1.000000   1.000000
   18        2.686328      2.686311   1.000000   1.000000
   19        5.959045      5.959033   0.000000   0.000000
   20        6.955686      6.955676   0.000000   0.000000
   21       10.784118     10.785022   0.000000   0.000000
   22       11.837411     11.837438   0.000000   0.000000
   23       13.418855     13.418805   0.000000   0.000000
   24       13.640881     13.639553   0.000000   0.000000
   25       15.150549     15.150606   0.000000   0.000000
   26       15.245022     15.244994   0.000000   0.000000
   27       16.873961     16.873769   0.000000   0.000000
   28       16.897985     16.898020   0.000000   0.000000
   29       17.030580     17.030397   0.000000   0.000000
   30       18.062361     18.062155   0.000000   0.000000
   31       18.865817     18.848991   0.000000   0.000000
   32       20.202217     20.189362   0.000000   0.000000
 
  0.8333333E-01  0.8333333E-01  0.0000000E+00  0.1041667E-01
    1      -41.225517    -41.224992   1.000000   1.000000
    2      -41.216191    -41.215654   1.000000   1.000000
    3      -40.890659    -40.890541   1.000000   1.000000
    4      -40.882309    -40.882179   1.000000   1.000000
    5      -18.093678    -18.093694   1.000000   1.000000
    6      -17.909549    -17.909571   1.000000   1.000000
    7      -12.749082    -12.749091   1.000000   1.000000
    8      -11.980647    -11.980675   1.000000   1.000000
    9       -3.854335     -3.854317   1.000000   1.000000
   10       -2.013509     -2.013527   1.000000   1.000000
   11       -1.179437     -1.179450   1.000000   1.000000
   12       -1.036550     -1.036565   1.000000   1.000000
   13       -0.774430     -0.774447   1.000000   1.000000
   14       -0.698391     -0.698412   1.000000   1.000000
   15        2.040205      2.040191   1.000000   1.000000
   16        2.268132      2.268118   1.000000   1.000000
   17        2.537624      2.537610   1.000000   1.000000
   18        2.788576      2.788551   1.000000   1.000000
   19        5.257246      5.257262   0.000000   0.000000
   20        7.348810      7.348793   0.000000   0.000000
   21        9.605120      9.605094   0.000000   0.000000
   22       10.127848     10.127891   0.000000   0.000000
   23       12.289893     12.289906   0.000000   0.000000
   24       12.562001     12.561930   0.000000   0.000000
   25       14.090349     14.090299   0.000000   0.000000
   26       15.261005     15.260896   0.000000   0.000000
   27       16.109904     16.110244   0.000000   0.000000
   28       17.195772     17.195783   0.000000   0.000000
   29       17.451466     17.451477   0.000000   0.000000
   30       17.543701     17.543600   0.000000   0.000000
   31       17.847420     17.847214   0.000000   0.000000
   32       20.364936     20.371914   0.000000   0.000000
 
  0.1666667E+00  0.8333333E-01  0.0000000E+00  0.2083333E-01
    1      -41.220291    -41.219762   1.000000   1.000000
    2      -41.213140    -41.212602   1.000000   1.000000
    3      -40.885390    -40.885272   1.000000   1.000000
    4      -40.879180    -40.879054   1.000000   1.000000
    5      -18.055531    -18.055550   1.000000   1.000000
    6      -17.887414    -17.887437   1.000000   1.000000
    7      -12.634639    -12.634651   1.000000   1.000000
    8      -11.929381    -11.929409   1.000000   1.000000
    9       -3.791705     -3.791690   1.000000   1.000000
   10       -2.081522     -2.081538   1.000000   1.000000
   11       -1.609846     -1.609856   1.000000   1.000000
   12       -1.382059     -1.382071   1.000000   1.000000
   13       -0.985780     -0.985797   1.000000   1.000000
   14       -0.820261     -0.820280   1.000000   1.000000
   15        1.552685      1.552676   1.000000   1.000000
   16        1.898251      1.898247   1.000000   1.000000
   17        2.281721      2.281707   1.000000   1.000000
   18        2.730507      2.730484   1.000000   1.000000
   19        5.431566      5.431573   0.000000   0.000000
   20        7.295019      7.295003   0.000000   0.000000
   21       10.128603     10.128572   0.000000   0.000000
   22       10.596810     10.596846   0.000000   0.000000
   23       12.669406     12.669402   0.000000   0.000000
   24       13.304578     13.304506   0.000000   0.000000
   25       13.715797     13.715762   0.000000   0.000000
   26       15.551473     15.551456   0.000000   0.000000
   27       15.950699     15.950735   0.000000   0.000000
   28       17.255811     17.255739   0.000000   0.000000
   29       17.695377     17.695215   0.000000   0.000000
   30       17.861503     17.861496   0.000000   0.000000
   31       18.083308     18.083204   0.000000   0.000000
   32       19.368857     19.368927   0.000000   0.000000
 
  0.2500000E+00  0.8333333E-01  0.0000000E+00  0.2083333E-01
    1      -41.214343    -41.213811   1.000000   1.000000
    2      -41.209584    -41.209047   1.000000   1.000000
    3      -40.879372    -40.879254   1.000000   1.000000
    4      -40.875470    -40.875346   1.000000   1.000000
    5      -18.007385    -18.007405   1.000000   1.000000
    6      -17.863722    -17.863747   1.000000   1.000000
    7      -12.486554    -12.486570   1.000000   1.000000
    8      -11.881048    -11.881076   1.000000   1.000000
    9       -3.706901     -3.706890   1.000000   1.000000
   10       -2.310156     -2.310165   1.000000   1.000000
   11       -1.950318     -1.950329   1.000000   1.000000
   12       -1.740807     -1.740817   1.000000   1.000000
   13       -1.231758     -1.231774   1.000000   1.000000
   14       -0.941096     -0.941113   1.000000   1.000000
   15        1.069220      1.069217   1.000000   1.000000
   16        1.443024      1.443026   1.000000   1.000000
   17        2.030187      2.030174   1.000000   1.000000
   18        2.666684      2.666664   1.000000   1.000000
   19        5.639011      5.639010   0.000000   0.000000
   20        7.194166      7.194151   0.000000   0.000000
   21       10.641979     10.641964   0.000000   0.000000
   22       11.166785     11.166812   0.000000   0.000000
   23       13.059959     13.059934   0.000000   0.000000
   24       13.489816     13.489772   0.000000   0.000000
   25       14.160799     14.160731   0.000000   0.000000
   26       15.208391     15.208410   0.000000   0.000000
   27       16.511420     16.511399   0.000000   0.000000
   28       16.879236     16.879191   0.000000   0.000000
   29       17.531305     17.531190   0.000000   0.000000
   30       18.282242     18.281525   0.000000   0.000000
   31       18.707667     18.707492   0.000000   0.000000
   32       18.793855     18.793061   0.000000   0.000000
 
  0.3333333E+00  0.8333333E-01  0.0000000E+00  0.2083333E-01
    1      -41.209250    -41.208715   1.000000   1.000000
    2      -41.206504    -41.205966   1.000000   1.000000
    3      -40.874205    -40.874086   1.000000   1.000000
    4      -40.872162    -40.872041   1.000000   1.000000
    5      -17.960750    -17.960773   1.000000   1.000000
    6      -17.846444    -17.846469   1.000000   1.000000
    7      -12.335933    -12.335953   1.000000   1.000000
    8      -11.856891    -11.856919   1.000000   1.000000
    9       -3.615461     -3.615455   1.000000   1.000000
   10       -2.676375     -2.676373   1.000000   1.000000
   11       -2.097909     -2.097922   1.000000   1.000000
   12       -2.018953     -2.018963   1.000000   1.000000
   13       -1.418051     -1.418065   1.000000   1.000000
   14       -1.045670     -1.045687   1.000000   1.000000
   15        0.721586      0.721589   1.000000   1.000000
   16        1.009174      1.009178   1.000000   1.000000
   17        1.851119      1.851107   1.000000   1.000000
   18        2.605228      2.605211   1.000000   1.000000
   19        5.845782      5.845775   0.000000   0.000000
   20        7.060686      7.060673   0.000000   0.000000
   21       10.919649     10.919891   0.000000   0.000000
   22       11.706750     11.706768   0.000000   0.000000
   23       13.355598     13.355557   0.000000   0.000000
   24       13.479767     13.479311   0.000000   0.000000
   25       14.872599     14.872546   0.000000   0.000000
   26       15.018618     15.018643   0.000000   0.000000
   27       16.639876     16.639820   0.000000   0.000000
   28       16.919576     16.919512   0.000000   0.000000
   29       17.359070     17.359015   0.000000   0.000000
   30       18.339295     18.339074   0.000000   0.000000
   31       18.446475     18.446002   0.000000   0.000000
   32       19.472188     19.471659   0.000000   0.000000
 
  0.4166667E+00  0.8333333E-01  0.0000000E+00  0.2083333E-01
    1      -41.206313    -41.205776   1.000000   1.000000
    2      -41.204702    -41.204164   1.000000   1.000000
    3      -40.871295    -40.871177   1.000000   1.000000
    4      -40.870100    -40.869980   1.000000   1.000000
    5      -17.930032    -17.930057   1.000000   1.000000
    6      -17.839082    -17.839107   1.000000   1.000000
    7      -12.231129    -12.231153   1.000000   1.000000
    8      -11.858812    -11.858839   1.000000   1.000000
    9       -3.545356     -3.545356   1.000000   1.000000
   10       -2.916734     -2.916724   1.000000   1.000000
   11       -2.221289     -2.221300   1.000000   1.000000
   12       -2.120702     -2.120714   1.000000   1.000000
   13       -1.514404     -1.514418   1.000000   1.000000
   14       -1.105471     -1.105487   1.000000   1.000000
   15        0.575804      0.575816   1.000000   1.000000
   16        0.717480      0.717479   1.000000   1.000000
   17        1.757879      1.757868   1.000000   1.000000
   18        2.567663      2.567647   1.000000   1.000000
   19        5.993348      5.993336   0.000000   0.000000
   20        6.949692      6.949681   0.000000   0.000000
   21       10.994308     10.995266   0.000000   0.000000
   22       12.009016     12.009036   0.000000   0.000000
   23       13.507671     13.507621   0.000000   0.000000
   24       13.591688     13.590555   0.000000   0.000000
   25       14.981767     14.981792   0.000000   0.000000
   26       15.189911     15.189877   0.000000   0.000000
   27       16.772522     16.772409   0.000000   0.000000
   28       17.072328     17.072106   0.000000   0.000000
   29       17.104934     17.104818   0.000000   0.000000
   30       18.182463     18.182296   0.000000   0.000000
   31       18.613275     18.613430   0.000000   0.000000
   32       19.797689     19.796752   0.000000   0.000000
 
  0.1666667E+00  0.1666667E+00  0.0000000E+00  0.1041667E-01
    1      -41.215112    -41.214580   1.000000   1.000000
    2      -41.210058    -41.209520   1.000000   1.000000
    3      -40.880166    -40.880047   1.000000   1.000000
    4      -40.875932    -40.875808   1.000000   1.000000
    5      -18.013498    -18.013518   1.000000   1.000000
    6      -17.866948    -17.866972   1.000000   1.000000
    7      -12.506858    -12.506874   1.000000   1.000000
    8      -11.887641    -11.887669   1.000000   1.000000
    9       -3.712221     -3.712210   1.000000   1.000000
   10       -2.229497     -2.229511   1.000000   1.000000
   11       -1.885994     -1.886006   1.000000   1.000000
   12       -1.807632     -1.807639   1.000000   1.000000
   13       -1.067955     -1.067973   1.000000   1.000000
   14       -1.037966     -1.037982   1.000000   1.000000
   15        1.183171      1.183163   1.000000   1.000000
   16        1.509750      1.509755   1.000000   1.000000
   17        2.091504      2.091493   1.000000   1.000000
   18        2.553580      2.553560   1.000000   1.000000
   19        5.626749      5.626749   0.000000   0.000000
   20        7.210808      7.210792   0.000000   0.000000
   21       10.716394     10.716357   0.000000   0.000000
   22       11.125395     11.125426   0.000000   0.000000
   23       13.052486     13.052466   0.000000   0.000000
   24       13.470746     13.470775   0.000000   0.000000
   25       14.057224     14.057152   0.000000   0.000000
   26       15.140577     15.140575   0.000000   0.000000
   27       16.417722     16.418191   0.000000   0.000000
   28       17.044480     17.044342   0.000000   0.000000
   29       17.237048     17.237033   0.000000   0.000000
   30       18.132157     18.131472   0.000000   0.000000
   31       18.644064     18.642152   0.000000   0.000000
   32       19.165914     19.166549   0.000000   0.000000
 
  0.2500000E+00  0.1666667E+00  0.0000000E+00  0.2083333E-01
    1      -41.210043    -41.209509   1.000000   1.000000
    2      -41.206981    -41.206443   1.000000   1.000000
    3      -40.874959    -40.874841   1.000000   1.000000
    4      -40.872678    -40.872556   1.000000   1.000000
    5      -17.966610    -17.966632   1.000000   1.000000
    6      -17.849771    -17.849796   1.000000   1.000000
    7      -12.357719    -12.357738   1.000000   1.000000
    8      -11.863172    -11.863200   1.000000   1.000000
    9       -3.605096     -3.605089   1.000000   1.000000
   10       -2.524654     -2.524660   1.000000   1.000000
   11       -2.142161     -2.142165   1.000000   1.000000
   12       -2.080083     -2.080095   1.000000   1.000000
   13       -1.291170     -1.291185   1.000000   1.000000
   14       -1.125950     -1.125965   1.000000   1.000000
   15        0.865230      0.865226   1.000000   1.000000
   16        1.169096      1.169105   1.000000   1.000000
   17        1.824585      1.824576   1.000000   1.000000
   18        2.400214      2.400196   1.000000   1.000000
   19        5.851491      5.851486   0.000000   0.000000
   20        7.082350      7.082336   0.000000   0.000000
   21       11.274858     11.274877   0.000000   0.000000
   22       11.758183     11.758205   0.000000   0.000000
   23       13.356787     13.356815   0.000000   0.000000
   24       13.426893     13.426858   0.000000   0.000000
   25       14.777858     14.777798   0.000000   0.000000
   26       14.806001     14.805987   0.000000   0.000000
   27       16.608296     16.608163   0.000000   0.000000
   28       16.809331     16.809657   0.000000   0.000000
   29       17.248744     17.248760   0.000000   0.000000
   30       18.118932     18.118787   0.000000   0.000000
   31       18.921297     18.920877   0.000000   0.000000
   32       19.091333     19.089455   0.000000   0.000000
 
  0.3333333E+00  0.1666667E+00  0.0000000E+00  0.2083333E-01
    1      -41.206344    -41.205807   1.000000   1.000000
    2      -41.204718    -41.204180   1.000000   1.000000
    3      -40.871191    -40.871072   1.000000   1.000000
    4      -40.870167    -40.870047   1.000000   1.000000
    5      -17.926325    -17.926349   1.000000   1.000000
    6      -17.841785    -17.841809   1.000000   1.000000
    7      -12.222411    -12.222434   1.000000   1.000000
    8      -11.868768    -11.868796   1.000000   1.000000
    9       -3.488589     -3.488586   1.000000   1.000000
   10       -2.821281     -2.821279   1.000000   1.000000
   11       -2.320379     -2.320385   1.000000   1.000000
   12       -2.240203     -2.240215   1.000000   1.000000
   13       -1.437120     -1.437134   1.000000   1.000000
   14       -1.188849     -1.188864   1.000000   1.000000
   15        0.684563      0.684565   1.000000   1.000000
   16        0.893808      0.893811   1.000000   1.000000
   17        1.621336      1.621332   1.000000   1.000000
   18        2.295818      2.295802   1.000000   1.000000
   19        6.060246      6.060236   0.000000   0.000000
   20        6.935325      6.935312   0.000000   0.000000
   21       11.534654     11.534632   0.000000   0.000000
   22       12.355969     12.355982   0.000000   0.000000
   23       13.432274     13.432178   0.000000   0.000000
   24       13.702150     13.702104   0.000000   0.000000
   25       14.641820     14.641802   0.000000   0.000000
   26       15.083263     15.083219   0.000000   0.000000
   27       16.699606     16.699458   0.000000   0.000000
   28       17.053478     17.053844   0.000000   0.000000
   29       17.256283     17.256175   0.000000   0.000000
   30       18.143624     18.144236   0.000000   0.000000
   31       18.647113     18.646655   0.000000   0.000000
   32       19.158066     19.154959   0.000000   0.000000
 
  0.4166667E+00  0.1666667E+00  0.0000000E+00  0.1041667E-01
    1      -41.204988    -41.204450   1.000000   1.000000
    2      -41.203860    -41.203322   1.000000   1.000000
    3      -40.869849    -40.869731   1.000000   1.000000
    4      -40.869163    -40.869044   1.000000   1.000000
    5      -17.908820    -17.908845   1.000000   1.000000
    6      -17.841188    -17.841213   1.000000   1.000000
    7      -12.160413    -12.160437   1.000000   1.000000
    8      -11.882754    -11.882781   1.000000   1.000000
    9       -3.423699     -3.423702   1.000000   1.000000
   10       -2.953003     -2.952995   1.000000   1.000000
   11       -2.356161     -2.356168   1.000000   1.000000
   12       -2.328663     -2.328673   1.000000   1.000000
   13       -1.484001     -1.484014   1.000000   1.000000
   14       -1.211993     -1.212008   1.000000   1.000000
   15        0.649836      0.649848   1.000000   1.000000
   16        0.763736      0.763731   1.000000   1.000000