   16   16    1    2
  0.1107010E+02  0.5414693E-09  0.5296402E-09  0.6176136E-09  0.5000000E-15
  1.000000000000000E-004
  CAR 
 unknown system                          
     76     48     52
 
  0.0000000E+00  0.0000000E+00  0.0000000E+00  0.5555556E-02
    1      -42.214863    -42.214711   1.000000   1.000000
    2      -42.214531    -42.214378   1.000000   1.000000
    3      -41.889736    -41.889621   1.000000   1.000000
    4      -41.886081    -41.885966   1.000000   1.000000
    5      -41.882388    -41.882273   1.000000   1.000000
    6      -41.878827    -41.878711   1.000000   1.000000
    7      -18.613172    -18.613168   1.000000   1.000000
    8      -18.463113    -18.463111   1.000000   1.000000
    9      -16.402296    -16.402293   1.000000   1.000000
   10      -16.367241    -16.367239   1.000000   1.000000
   11      -16.337690    -16.337688   1.000000   1.000000
   12      -16.330805    -16.330804   1.000000   1.000000
   13      -15.751523    -15.751524   1.000000   1.000000
   14      -15.645566    -15.645569   1.000000   1.000000
   15       -6.347306     -6.347291   1.000000   1.000000
   16       -6.258265     -6.258254   1.000000   1.000000
   17       -3.965135     -3.965118   1.000000   1.000000
   18       -3.949279     -3.949268   1.000000   1.000000
   19       -3.812895     -3.812883   1.000000   1.000000
   20       -3.626258     -3.626247   1.000000   1.000000
   21       -3.605815     -3.605805   1.000000   1.000000
   22       -3.487572     -3.487564   1.000000   1.000000
   23       -1.678204     -1.678188   1.000000   1.000000
   24       -1.639336     -1.639321   1.000000   1.000000
   25       -1.434835     -1.434816   1.000000   1.000000
   26       -1.347673     -1.347658   1.000000   1.000000
   27       -1.168584     -1.168576   1.000000   1.000000
   28       -1.108042     -1.108024   1.000000   1.000000
   29       -0.873628     -0.873610   1.000000   1.000000
   30       -0.510190     -0.510180   1.000000   1.000000
   31       -0.457413     -0.457400   1.000000   1.000000
   32       -0.348659     -0.348649   1.000000   1.000000
   33        0.093880      0.093908   1.000000   1.000000
   34        0.127711      0.127733   1.000000   1.000000
   35        0.268973      0.268985   1.000000   1.000000
   36        0.318494      0.318514   1.000000   1.000000
   37        0.439959      0.439977   1.000000   1.000000
   38        0.626056      0.626069   1.000000   1.000000
   39        5.629860      5.629904   0.000000   0.000000
   40        7.886496      7.886530   0.000000   0.000000
   41        8.544804      8.544843   0.000000   0.000000
   42        8.680307      8.680350   0.000000   0.000000
   43        9.182429      9.182444   0.000000   0.000000
   44        9.256016      9.256102   0.000000   0.000000
   45        9.464691      9.464688   0.000000   0.000000
   46        9.826381      9.826405   0.000000   0.000000
   47       10.547217     10.547160   0.000000   0.000000
   48       10.691911     10.692395   0.000000   0.000000
   49       10.929089     10.929154   0.000000   0.000000
   50       11.607979     11.632237   0.000000   0.000000
   51       11.759882     11.756150   0.000000   0.000000
   52       12.515012     12.630748   0.000000   0.000000
 
  0.1666667E+00  0.0000000E+00  0.0000000E+00  0.1111111E-01
    1      -42.214829    -42.214677   1.000000   1.000000
    2      -42.214565    -42.214413   1.000000   1.000000
    3      -41.889494    -41.889379   1.000000   1.000000
    4      -41.886365    -41.886250   1.000000   1.000000
    5      -41.882145    -41.882030   1.000000   1.000000
    6      -41.879054    -41.878939   1.000000   1.000000
    7      -18.600487    -18.600484   1.000000   1.000000
    8      -18.470154    -18.470151   1.000000   1.000000
    9      -16.397768    -16.397766   1.000000   1.000000
   10      -16.365523    -16.365521   1.000000   1.000000
   11      -16.340024    -16.340023   1.000000   1.000000
   12      -16.335981    -16.335979   1.000000   1.000000
   13      -15.752932    -15.752933   1.000000   1.000000
   14      -15.660597    -15.660599   1.000000   1.000000
   15       -6.342823     -6.342808   1.000000   1.000000
   16       -6.253100     -6.253089   1.000000   1.000000
   17       -3.899128     -3.899113   1.000000   1.000000
   18       -3.869031     -3.869021   1.000000   1.000000
   19       -3.788581     -3.788569   1.000000   1.000000
   20       -3.608916     -3.608905   1.000000   1.000000
   21       -3.590643     -3.590632   1.000000   1.000000
   22       -3.488592     -3.488583   1.000000   1.000000
   23       -1.702674     -1.702657   1.000000   1.000000
   24       -1.676817     -1.676801   1.000000   1.000000
   25       -1.467800     -1.467781   1.000000   1.000000
   26       -1.396189     -1.396172   1.000000   1.000000
   27       -1.227978     -1.227970   1.000000   1.000000
   28       -1.031794     -1.031777   1.000000   1.000000
   29       -0.828283     -0.828266   1.000000   1.000000
   30       -0.726731     -0.726718   1.000000   1.000000
   31       -0.478119     -0.478106   1.000000   1.000000
   32       -0.410453     -0.410442   1.000000   1.000000
   33        0.134067      0.134094   1.000000   1.000000
   34        0.200408      0.200429   1.000000   1.000000
   35        0.285810      0.285822   1.000000   1.000000
   36        0.314863      0.314882   1.000000   1.000000
   37        0.437621      0.437639   1.000000   1.000000
   38        0.609129      0.609142   1.000000   1.000000
   39        5.909160      5.909202   0.000000   0.000000
   40        7.676830      7.676909   0.000000   0.000000
   41        8.409934      8.410137   0.000000   0.000000
   42        8.648187      8.648382   0.000000   0.000000
   43        9.231580      9.231631   0.000000   0.000000
   44        9.312962      9.312961   0.000000   0.000000
   45        9.585565      9.585981   0.000000   0.000000
   46        9.752362      9.752366   0.000000   0.000000
   47       10.128786     10.131007   0.000000   0.000000
   48       10.692499     10.692979   0.000000   0.000000
   49       10.881906     10.894586   0.000000   0.000000
   50       11.912225     11.928593   0.000000   0.000000
   51       11.997881     12.084644   0.000000   0.000000
   52       12.071647     12.313841   0.000000   0.000000
 
  0.3333333E+00  0.0000000E+00  0.0000000E+00  0.1111111E-01
    1      -42.214777    -42.214625   1.000000   1.000000
    2      -42.214623    -42.214471   1.000000   1.000000
    3      -41.888876    -41.888761   1.000000   1.000000
    4      -41.887044    -41.886929   1.000000   1.000000
    5      -41.881513    -41.881398   1.000000   1.000000
    6      -41.879710    -41.879595   1.000000   1.000000
    7      -18.567548    -18.567545   1.000000   1.000000
    8      -18.491854    -18.491852   1.000000   1.000000
    9      -16.385368    -16.385366   1.000000   1.000000
   10      -16.360670    -16.360669   1.000000   1.000000
   11      -16.349704    -16.349703   1.000000   1.000000
   12      -16.345960    -16.345959   1.000000   1.000000
   13      -15.750238    -15.750239   1.000000   1.000000
   14      -15.696205    -15.696207   1.000000   1.000000
   15       -6.322717     -6.322703   1.000000   1.000000
   16       -6.257097     -6.257086   1.000000   1.000000
   17       -3.798791     -3.798780   1.000000   1.000000
   18       -3.763418     -3.763407   1.000000   1.000000
   19       -3.646785     -3.646770   1.000000   1.000000
   20       -3.566851     -3.566840   1.000000   1.000000
   21       -3.501454     -3.501445   1.000000   1.000000
   22       -3.497071     -3.497061   1.000000   1.000000
   23       -1.751674     -1.751656   1.000000   1.000000
   24       -1.743953     -1.743935   1.000000   1.000000
   25       -1.533548     -1.533528   1.000000   1.000000
   26       -1.474134     -1.474116   1.000000   1.000000
   27       -1.368882     -1.368869   1.000000   1.000000
   28       -1.184965     -1.184948   1.000000   1.000000
   29       -0.866239     -0.866224   1.000000   1.000000
   30       -0.728181     -0.728166   1.000000   1.000000
   31       -0.539734     -0.539722   1.000000   1.000000
   32       -0.535831     -0.535817   1.000000   1.000000
   33        0.207387      0.207408   1.000000   1.000000
   34        0.296504      0.296522   1.000000   1.000000
   35        0.323687      0.323706   1.000000   1.000000
   36        0.354627      0.354642   1.000000   1.000000
   37        0.430474      0.430491   1.000000   1.000000
   38        0.557303      0.557317   1.000000   1.000000
   39        6.573520      6.573554   0.000000   0.000000
   40        7.424400      7.424425   0.000000   0.000000
   41        8.372746      8.372816   0.000000   0.000000
   42        8.494446      8.494482   0.000000   0.000000
   43        8.944465      8.944490   0.000000   0.000000
   44        9.100914      9.101011   0.000000   0.000000
   45        9.337863      9.337885   0.000000   0.000000
   46        9.593708      9.593624   0.000000   0.000000
   47       10.273504     10.273701   0.000000   0.000000
   48       10.487610     10.488831   0.000000   0.000000
   49       11.221166     11.222786   0.000000   0.000000
   50       11.775254     11.937721   0.000000   0.000000
   51       12.116370     12.109797   0.000000   0.000000
   52       12.155778     12.143560   0.000000   0.000000
 
  0.5000000E+00  0.0000000E+00  0.0000000E+00  0.5555556E-02
    1      -42.214722    -42.214570   1.000000   1.000000
    2      -42.214722    -42.214570   1.000000   1.000000
    3      -41.887988    -41.887873   1.000000   1.000000
    4      -41.887988    -41.887873   1.000000   1.000000
    5      -41.880650    -41.880535   1.000000   1.000000
    6      -41.880650    -41.880535   1.000000   1.000000
    7      -18.526913    -18.526910   1.000000   1.000000
    8      -18.526912    -18.526910   1.000000   1.000000
    9      -16.367943    -16.367940   1.000000   1.000000
   10      -16.367942    -16.367940   1.000000   1.000000
   11      -16.353597    -16.353595   1.000000   1.000000
   12      -16.353597    -16.353595   1.000000   1.000000
   13      -15.731504    -15.731505   1.000000   1.000000
   14      -15.731503    -15.731505   1.000000   1.000000
   15       -6.286734     -6.286722   1.000000   1.000000
   16       -6.286734     -6.286722   1.000000   1.000000
   17       -3.758815     -3.758804   1.000000   1.000000
   18       -3.758815     -3.758804   1.000000   1.000000
   19       -3.523328     -3.523317   1.000000   1.000000
   20       -3.523328     -3.523317   1.000000   1.000000
   21       -3.463509     -3.463499   1.000000   1.000000
   22       -3.463509     -3.463499   1.000000   1.000000
   23       -1.775462     -1.775444   1.000000   1.000000
   24       -1.775462     -1.775443   1.000000   1.000000
   25       -1.550534     -1.550514   1.000000   1.000000
   26       -1.550534     -1.550514   1.000000   1.000000
   27       -1.429392     -1.429376   1.000000   1.000000
   28       -1.429392     -1.429376   1.000000   1.000000
   29       -0.696706     -0.696693   1.000000   1.000000
   30       -0.696706     -0.696693   1.000000   1.000000
   31       -0.622652     -0.622638   1.000000   1.000000
   32       -0.622652     -0.622638   1.000000   1.000000
   33        0.259548      0.259567   1.000000   1.000000
   34        0.259548      0.259567   1.000000   1.000000
   35        0.402769      0.402787   1.000000   1.000000
   36        0.402769      0.402787   1.000000   1.000000
   37        0.466143      0.466157   1.000000   1.000000
   38        0.466143      0.466157   1.000000   1.000000
   39        7.198045      7.198067   0.000000   0.000000
   40        7.198051      7.198069   0.000000   0.000000
   41        8.392961      8.393013   0.000000   0.000000
   42        8.393032      8.393065   0.000000   0.000000
   43        8.674160      8.674370   0.000000   0.000000
   44        8.674181      8.674426   0.000000   0.000000
   45        9.451255      9.451306   0.000000   0.000000
   46        9.451534      9.451613   0.000000   0.000000
   47       10.414923     10.414827   0.000000   0.000000
   48       10.416436     10.415202   0.000000   0.000000
   49       11.606005     11.593980   0.000000   0.000000
   50       11.743350     11.638369   0.000000   0.000000
   51       11.919378     11.929375   0.000000   0.000000
   52       12.064186     12.088102   0.000000   0.000000
 
  0.0000000E+00  0.1666667E+00  0.0000000E+00  0.1111111E-01
    1      -42.214820    -42.214668   1.000000   1.000000
    2      -42.214525    -42.214373   1.000000   1.000000
    3      -41.889785    -41.889670   1.000000   1.000000
    4      -41.886094    -41.885979   1.000000   1.000000
    5      -41.882356    -41.882241   1.000000   1.000000
    6      -41.878802    -41.878687   1.000000   1.000000
    7      -18.602321    -18.602318   1.000000   1.000000
    8      -18.466079    -18.466077   1.000000   1.000000
    9      -16.398971    -16.398968   1.000000   1.000000
   10      -16.386247    -16.386245   1.000000   1.000000
   11      -16.337133    -16.337132   1.000000   1.000000
   12      -16.334900    -16.334898   1.000000   1.000000
   13      -15.745309    -15.745311   1.000000   1.000000
   14      -15.649740    -15.649742   1.000000   1.000000
   15       -6.336179     -6.336165   1.000000   1.000000
   16       -6.247434     -6.247423   1.000000   1.000000
   17       -3.967410     -3.967394   1.000000   1.000000
   18       -3.918304     -3.918293   1.000000   1.000000
   19       -3.781125     -3.781114   1.000000   1.000000
   20       -3.653434     -3.653423   1.000000   1.000000
   21       -3.569376     -3.569366   1.000000   1.000000
   22       -3.463331     -3.463322   1.000000   1.000000
   23       -1.703576     -1.703557   1.000000   1.000000
   24       -1.587655     -1.587641   1.000000   1.000000
   25       -1.525051     -1.525032   1.000000   1.000000
   26       -1.380249     -1.380233   1.000000   1.000000
   27       -1.160685     -1.160674   1.000000   1.000000
   28       -0.986807     -0.986793   1.000000   1.000000
   29       -0.891316     -0.891298   1.000000   1.000000
   30       -0.563091     -0.563081   1.000000   1.000000
   31       -0.478701     -0.478689   1.000000   1.000000
   32       -0.455295     -0.455282   1.000000   1.000000
   33        0.094910      0.094936   1.000000   1.000000
   34        0.152600      0.152623   1.000000   1.000000
   35        0.271590      0.271603   1.000000   1.000000
   36        0.344958      0.344977   1.000000   1.000000
   37        0.402050      0.402069   1.000000   1.000000
   38        0.608160      0.608173   1.000000   1.000000
   39        5.840380      5.840423   0.000000   0.000000
   40        7.813927      7.813955   0.000000   0.000000
   41        8.418711      8.418756   0.000000   0.000000
   42        8.874017      8.874022   0.000000   0.000000
   43        9.043468      9.043516   0.000000   0.000000
   44        9.087188      9.087182   0.000000   0.000000
   45        9.700410      9.700489   0.000000   0.000000
   46        9.809041      9.810079   0.000000   0.000000
   47       10.301761     10.301831   0.000000   0.000000
   48       10.527899     10.527854   0.000000   0.000000
   49       10.992572     10.992226   0.000000   0.000000
   50       11.471822     11.474358   0.000000   0.000000
   51       11.712658     11.717889   0.000000   0.000000
   52       12.253652     12.322322   0.000000   0.000000
 
  0.1666667E+00  0.1666667E+00  0.0000000E+00  0.2222222E-01
    1      -42.214811    -42.214659   1.000000   1.000000
    2      -42.214560    -42.214408   1.000000   1.000000
    3      -41.889535    -41.889420   1.000000   1.000000
    4      -41.886374    -41.886259   1.000000   1.000000
    5      -41.882142    -41.882027   1.000000   1.000000
    6      -41.879080    -41.878965   1.000000   1.000000
    7      -18.590562    -18.590559   1.000000   1.000000
    8      -18.472166    -18.472164   1.000000   1.000000
    9      -16.394967    -16.394965   1.000000   1.000000
   10      -16.383406    -16.383404   1.000000   1.000000
   11      -16.340925    -16.340924   1.000000   1.000000
   12      -16.339555    -16.339554   1.000000   1.000000
   13      -15.747429    -15.747430   1.000000   1.000000
   14      -15.664131    -15.664133   1.000000   1.000000
   15       -6.330839     -6.330825   1.000000   1.000000
   16       -6.244305     -6.244295   1.000000   1.000000
   17       -3.895467     -3.895452   1.000000   1.000000
   18       -3.834627     -3.834616   1.000000   1.000000
   19       -3.750466     -3.750456   1.000000   1.000000
   20       -3.637001     -3.636990   1.000000   1.000000
   21       -3.569418     -3.569408   1.000000   1.000000
   22       -3.469710     -3.469701   1.000000   1.000000
   23       -1.723199     -1.723180   1.000000   1.000000
   24       -1.614735     -1.614721   1.000000   1.000000
   25       -1.525373     -1.525354   1.000000   1.000000
   26       -1.414607     -1.414591   1.000000   1.000000
   27       -1.224915     -1.224904   1.000000   1.000000
   28       -0.958076     -0.958062   1.000000   1.000000
   29       -0.849408     -0.849391   1.000000   1.000000
   30       -0.772659     -0.772645   1.000000   1.000000
   31       -0.520850     -0.520839   1.000000   1.000000
   32       -0.478325     -0.478313   1.000000   1.000000
   33        0.131337      0.131361   1.000000   1.000000
   34        0.208974      0.208995   1.000000   1.000000
   35        0.288474      0.288487   1.000000   1.000000
   36        0.342612      0.342630   1.000000   1.000000
   37        0.402770      0.402789   1.000000   1.000000
   38        0.591349      0.591362   1.000000   1.000000
   39        6.101143      6.101183   0.000000   0.000000
   40        7.611097      7.611135   0.000000   0.000000
   41        8.375897      8.376005   0.000000   0.000000
   42        8.717557      8.717585   0.000000   0.000000
   43        9.095703      9.095724   0.000000   0.000000
   44        9.236947      9.236895   0.000000   0.000000
   45        9.643758      9.643488   0.000000   0.000000
   46        9.730608      9.730542   0.000000   0.000000
   47       10.023989     10.024409   0.000000   0.000000
   48       10.481127     10.481213   0.000000   0.000000
   49       11.045949     11.048495   0.000000   0.000000
   50       11.612243     11.652819   0.000000   0.000000
   51       11.930036     11.949689   0.000000   0.000000
   52       12.402850     12.021485   0.000000   0.000000
 
  0.3333333E+00  0.1666667E+00  0.0000000E+00  0.2222222E-01
    1      -42.214742    -42.214590   1.000000   1.000000
    2      -42.214611    -42.214459   1.000000   1.000000
    3      -41.888866    -41.888751   1.000000   1.000000
    4      -41.887052    -41.886937   1.000000   1.000000
    5      -41.881509    -41.881394   1.000000   1.000000
    6      -41.879737    -41.879622   1.000000   1.000000
    7      -18.559868    -18.559865   1.000000   1.000000
    8      -18.491090    -18.491088   1.000000   1.000000
    9      -16.383804    -16.383801   1.000000   1.000000
   10      -16.375249    -16.375247   1.000000   1.000000
   11      -16.351855    -16.351854   1.000000   1.000000
   12      -16.350734    -16.350732   1.000000   1.000000
   13      -15.746476    -15.746478   1.000000   1.000000
   14      -15.697816    -15.697818   1.000000   1.000000
   15       -6.310926     -6.310913   1.000000   1.000000
   16       -6.249881     -6.249870   1.000000   1.000000
   17       -3.771508     -3.771496   1.000000   1.000000
   18       -3.711011     -3.711001   1.000000   1.000000
   19       -3.614994     -3.614982   1.000000   1.000000
   20       -3.593213     -3.593202   1.000000   1.000000
   21       -3.514869     -3.514859   1.000000   1.000000
   22       -3.493485     -3.493475   1.000000   1.000000
   23       -1.748601     -1.748582   1.000000   1.000000
   24       -1.677081     -1.677065   1.000000   1.000000
   25       -1.534922     -1.534903   1.000000   1.000000
   26       -1.498742     -1.498726   1.000000   1.000000
   27       -1.364679     -1.364664   1.000000   1.000000
   28       -1.201170     -1.201153   1.000000   1.000000
   29       -0.870040     -0.870026   1.000000   1.000000
   30       -0.750761     -0.750745   1.000000   1.000000
   31       -0.626948     -0.626936   1.000000   1.000000
   32       -0.543066     -0.543053   1.000000   1.000000
   33        0.203605      0.203625   1.000000   1.000000
   34        0.305209      0.305226   1.000000   1.000000
   35        0.310264      0.310283   1.000000   1.000000
   36        0.369585      0.369600   1.000000   1.000000
   37        0.401990      0.402008   1.000000   1.000000
   38        0.542848      0.542861   1.000000   1.000000
   39        6.728080      6.728111   0.000000   0.000000
   40        7.418958      7.418975   0.000000   0.000000
   41        8.310879      8.310745   0.000000   0.000000
   42        8.527335      8.527171   0.000000   0.000000
   43        8.878669      8.878683   0.000000   0.000000
   44        9.130644      9.130713   0.000000   0.000000
   45        9.143732      9.143890   0.000000   0.000000
   46        9.521268      9.521338   0.000000   0.000000
   47       10.178122     10.178184   0.000000   0.000000
   48       10.491835     10.491643   0.000000   0.000000
   49       11.375817     11.386618   0.000000   0.000000
   50       11.731977     11.777621   0.000000   0.000000
   51       11.998479     11.989850   0.000000   0.000000
   52       12.335806     12.304310   0.000000   0.000000
 
  0.5000000E+00  0.1666667E+00  0.0000000E+00  0.1111111E-01
    1      -42.214674    -42.214521   1.000000   1.000000
    2      -42.214674    -42.214521   1.000000   1.000000
    3      -41.887960    -41.887846   1.000000   1.000000
    4      -41.887960    -41.887846   1.000000   1.000000
    5      -41.880634    -41.880519   1.000000   1.000000
    6      -41.880634    -41.880519   1.000000   1.000000
    7      -18.522509    -18.522507   1.000000   1.000000
    8      -18.522509    -18.522506   1.000000   1.000000
    9      -16.368116    -16.368114   1.000000   1.000000
   10      -16.368116    -16.368114   1.000000   1.000000
   11      -16.363411    -16.363410   1.000000   1.000000
   12      -16.363411    -16.363409   1.000000   1.000000
   13      -15.730333    -15.730334   1.000000   1.000000
   14      -15.730333    -15.730334   1.000000   1.000000
   15       -6.277531     -6.277520   1.000000   1.000000
   16       -6.277531     -6.277520   1.000000   1.000000
   17       -3.712550     -3.712539   1.000000   1.000000
   18       -3.712550     -3.712539   1.000000   1.000000
   19       -3.538402     -3.538390   1.000000   1.000000
   20       -3.538402     -3.538390   1.000000   1.000000
   21       -3.460365     -3.460355   1.000000   1.000000
   22       -3.460365     -3.460355   1.000000   1.000000
   23       -1.733635     -1.733617   1.000000   1.000000
   24       -1.733634     -1.733617   1.000000   1.000000
   25       -1.564438     -1.564419   1.000000   1.000000
   26       -1.564438     -1.564419   1.000000   1.000000
   27       -1.420019     -1.420001   1.000000   1.000000
   28       -1.420018     -1.420001   1.000000   1.000000
   29       -0.752445     -0.752431   1.000000   1.000000
   30       -0.752445     -0.752431   1.000000   1.000000
   31       -0.639159     -0.639145   1.000000   1.000000
   32       -0.639159     -0.639144   1.000000   1.000000
   33        0.264677      0.264695   1.000000   1.000000
   34        0.264677      0.264695   1.000000   1.000000
   35        0.379146      0.379164   1.000000   1.000000
   36        0.379146      0.379164   1.000000   1.000000
   37        0.462618      0.462632   1.000000   1.000000
   38        0.462618      0.462632   1.000000   1.000000
   39        7.291882      7.291902   0.000000   0.000000
   40        7.291883      7.291908   0.000000   0.000000
   41        8.327748      8.327781   0.000000   0.000000
   42        8.327774      8.327811   0.000000   0.000000
   43        8.672590      8.672616   0.000000   0.000000
   44        8.672654      8.672853   0.000000   0.000000
   45        9.287184      9.287059   0.000000   0.000000
   46        9.287261      9.287230   0.000000   0.000000
   47       10.424619     10.424629   0.000000   0.000000
   48       10.425072     10.424943   0.000000   0.000000
   49       11.676245     11.679168   0.000000   0.000000
   50       11.695902     11.846599   0.000000   0.000000
   51       12.133517     12.128901   0.000000   0.000000
   52       12.147878     12.154394   0.000000   0.000000
 
  0.0000000E+00  0.3333333E+00  0.0000000E+00  0.1111111E-01
    1      -42.214794    -42.214642   1.000000   1.000000
    2      -42.214551    -42.214399   1.000000   1.000000
    3      -41.889875    -41.889760   1.000000   1.000000
    4      -41.886139    -41.886024   1.000000   1.000000
    5      -41.882351    -41.882236   1.000000   1.000000
    6      -41.878908    -41.878793   1.000000   1.000000
    7      -18.577633    -18.577630   1.000000   1.000000
    8      -18.475484    -18.475482   1.000000   1.000000
    9      -16.416546    -16.416543   1.000000   1.000000
   10      -16.390630    -16.390628   1.000000   1.000000
   11      -16.344963    -16.344961   1.000000   1.000000
   12      -16.343848    -16.343846   1.000000   1.000000
   13      -15.731220    -15.731222   1.000000   1.000000
   14      -15.660275    -15.660277   1.000000   1.000000
   15       -6.306597     -6.306584   1.000000   1.000000
   16       -6.235913     -6.235900   1.000000   1.000000
   17       -3.952495     -3.952481   1.000000   1.000000
   18       -3.887479     -3.887466   1.000000   1.000000
   19       -3.713200     -3.713191   1.000000   1.000000
   20       -3.690893     -3.690880   1.000000   1.000000
   21       -3.462076     -3.462068   1.000000   1.000000
   22       -3.432822     -3.432813   1.000000   1.000000
   23       -1.690057     -1.690039   1.000000   1.000000
   24       -1.611266     -1.611246   1.000000   1.000000
   25       -1.553962     -1.553947   1.000000   1.000000
   26       -1.445001     -1.444985   1.000000   1.000000
   27       -1.151435     -1.151422   1.000000   1.000000
   28       -0.910860     -0.910843   1.000000   1.000000
   29       -0.909975     -0.909961   1.000000   1.000000
   30       -0.794700     -0.794686   1.000000   1.000000
   31       -0.559878     -0.559867   1.000000   1.000000
   32       -0.463485     -0.463473   1.000000   1.000000
   33        0.097969      0.097990   1.000000   1.000000
   34        0.206056      0.206078   1.000000   1.000000
   35        0.291600      0.291615   1.000000   1.000000
   36        0.335734      0.335755   1.000000   1.000000
   37        0.380182      0.380200   1.000000   1.000000
   38        0.578353      0.578367   1.000000   1.000000
   39        6.358479      6.358519   0.000000   0.000000
   40        7.503532      7.503610   0.000000   0.000000
   41        8.366495      8.366671   0.000000   0.000000
   42        8.896471      8.896598   0.000000   0.000000
   43        8.916793      8.916809   0.000000   0.000000
   44        9.076110      9.076251   0.000000   0.000000
   45        9.729497      9.729251   0.000000   0.000000
   46        9.770340      9.770314   0.000000   0.000000
   47       10.012895     10.013624   0.000000   0.000000
   48       10.385239     10.385886   0.000000   0.000000
   49       10.903357     10.905924   0.000000   0.000000
   50       11.617825     11.638248   0.000000   0.000000
   51       11.870616     11.954344   0.000000   0.000000
   52       11.990860     12.078548   0.000000   0.000000
 
  0.1666667E+00  0.3333333E+00  0.0000000E+00  0.2222222E-01
    1      -42.214760    -42.214607   1.000000   1.000000
    2      -42.214560    -42.214407   1.000000   1.000000
    3      -41.889609    -41.889494   1.000000   1.000000
    4      -41.886385    -41.886270   1.000000   1.000000
    5      -41.882124    -41.882009   1.000000   1.000000
    6      -41.879138    -41.879023   1.000000   1.000000
    7      -18.567741    -18.567738   1.000000   1.000000
    8      -18.478969    -18.478967   1.000000   1.000000
    9      -16.412458    -16.412455   1.000000   1.000000
   10      -16.387766    -16.387764   1.000000   1.000000
   11      -16.349446    -16.349444   1.000000   1.000000
   12      -16.348252    -16.348250   1.000000   1.000000
   13      -15.734741    -15.734743   1.000000   1.000000
   14      -15.672993    -15.672996   1.000000   1.000000
   15       -6.300212     -6.300199   1.000000   1.000000
   16       -6.236096     -6.236084   1.000000   1.000000
   17       -3.873117     -3.873103   1.000000   1.000000
   18       -3.792620     -3.792609   1.000000   1.000000
   19       -3.687255     -3.687246   1.000000   1.000000
   20       -3.676189     -3.676176   1.000000   1.000000
   21       -3.471838     -3.471830   1.000000   1.000000
   22       -3.449819     -3.449809   1.000000   1.000000
   23       -1.689989     -1.689971   1.000000   1.000000
   24       -1.605524     -1.605505   1.000000   1.000000
   25       -1.566462     -1.566447   1.000000   1.000000
   26       -1.468440     -1.468423   1.000000   1.000000
   27       -1.197700     -1.197686   1.000000   1.000000
   28       -0.978042     -0.978026   1.000000   1.000000
   29       -0.880441     -0.880425   1.000000   1.000000
   30       -0.856856     -0.856843   1.000000   1.000000
   31       -0.659979     -0.659966   1.000000   1.000000
   32       -0.491269     -0.491257   1.000000   1.000000
   33        0.129592      0.129612   1.000000   1.000000
   34        0.234519      0.234541   1.000000   1.000000
   35        0.310736      0.310751   1.000000   1.000000