 running on   12 total cores
 distrk:  each k-point on   12 cores,    1 groups
 distr:  one band on    6 cores,    2 groups
 using from now: INCAR     
 vasp.6.1.2 22Jul20 (build Mar 20 2021 11:25:07) complex                        
  
 POSCAR found type information on POSCAR LiO 
 POSCAR found :  2 types and       9 ions
 scaLAPACK will be used
 LDA part: xc-table for Pade appr. of Perdew
 generate k-points for:    8    7    7
 POSCAR, INCAR and KPOINTS ok, starting setup
 FFT: planning ...
 WAVECAR not read
 entering main loop
       N       E                     dE             d eps       ncg     rms          rms(c)
DAV:   1     0.363342537953E+03    0.36334E+03   -0.28134E+04 26816   0.147E+03
DAV:   2    -0.184123225674E+02   -0.38175E+03   -0.36839E+03 34744   0.351E+02
DAV:   3    -0.435517014353E+02   -0.25139E+02   -0.24874E+02 39642   0.910E+01
DAV:   4    -0.444490883986E+02   -0.89739E+00   -0.89322E+00 44720   0.125E+01
DAV:   5    -0.445253064849E+02   -0.76218E-01   -0.76212E-01 36082   0.176E+00    0.146E+01
RMM:   6    -0.447930741562E+02   -0.26777E+00   -0.30894E+00 30819   0.916E+00    0.101E+01
RMM:   7    -0.443171117108E+02    0.47596E+00   -0.10866E+00 30019   0.565E+00    0.556E+00
RMM:   8    -0.440391873633E+02    0.27792E+00   -0.50197E-01 30441   0.415E+00    0.283E+00
RMM:   9    -0.441102565189E+02   -0.71069E-01   -0.19270E-01 31865   0.253E+00    0.284E+00
RMM:  10    -0.440523370998E+02    0.57919E-01   -0.56797E-02 33090   0.135E+00    0.820E-01
RMM:  11    -0.440564648492E+02   -0.41277E-02   -0.13619E-02 35956   0.692E-01    0.688E-01
RMM:  12    -0.440541654335E+02    0.22994E-02   -0.51573E-03 36621   0.430E-01    0.284E-01
RMM:  13    -0.440546065571E+02   -0.44112E-03   -0.27425E-03 38673   0.318E-01    0.847E-02
WARNING in EDDRMM: call to ZHEGV failed, returncode =   8  4     12
RMM:  14    -0.440548103798E+02   -0.20382E-03   -0.10011E-03 45625   0.162E-01    0.437E-02
WARNING in EDDRMM: call to ZHEGV failed, returncode =   8  4     15
WARNING in EDDRMM: call to ZHEGV failed, returncode =   6  3     12
RMM:  15    -0.440549109032E+02   -0.10052E-03   -0.45493E-04 45144   0.105E-01    0.249E-02
WARNING in EDDRMM: call to ZHEGV failed, returncode =   8  4     17
WARNING in EDDRMM: call to ZHEGV failed, returncode =   6  3      2
RMM:  16    -0.440549584173E+02   -0.47514E-04   -0.22603E-04 43671   0.726E-02    0.164E-02
WARNING in EDDRMM: call to ZHEGV failed, returncode =   8  4     16
WARNING in EDDRMM: call to ZHEGV failed, returncode =   6  3      6
WARNING in EDDRMM: call to ZHEGV failed, returncode =   6  3      9
WARNING in EDDRMM: call to ZHEGV failed, returncode =   6  3      2
RMM:  17    -0.440549820267E+02   -0.23609E-04   -0.11560E-04 39408   0.525E-02    0.110E-02
WARNING in EDDRMM: call to ZHEGV failed, returncode =   6  3      3
RMM:  18    -0.440549929304E+02   -0.10904E-04   -0.48091E-05 31837   0.381E-02    0.619E-03
RMM:  19    -0.440549953687E+02   -0.24383E-05   -0.17384E-05 25771   0.300E-02
   1 F= -.44054995E+02 E0= -.44054995E+02  d E =0.000000E+00  mag=     0.0321
 -----------------------------------------------------------------------------
|                                                                             |
|           W    W    AA    RRRRR   N    N  II  N    N   GGGG   !!!           |
|           W    W   A  A   R    R  NN   N  II  NN   N  G    G  !!!           |
|           W    W  A    A  R    R  N N  N  II  N N  N  G       !!!           |
|           W WW W  AAAAAA  RRRRR   N  N N  II  N  N N  G  GGG   !            |
|           WW  WW  A    A  R   R   N   NN  II  N   NN  G    G                |
|           W    W  A    A  R    R  N    N  II  N    N   GGGG   !!!           |
|                                                                             |
|     Tetrahedron method does not include variations of the Fermi             |
|     occupations, so forces and stress will be inaccurate. We suggest        |
|     using a different smearing scheme ISMEAR = 1 or 2 for metals in         |
|     relaxations.                                                            |
|                                                                             |
 -----------------------------------------------------------------------------

