 running on   24 total cores
 distrk:  each k-point on   24 cores,    1 groups
 distr:  one band on    6 cores,    4 groups
 using from now: INCAR     
 vasp.6.1.2 22Jul20 (build Mar 31 2021 18:09:49) complex                        
  
 POSCAR found type information on POSCAR LiO 
 POSCAR found :  2 types and       8 ions
 scaLAPACK will be used
 -----------------------------------------------------------------------------
|                                                                             |
|               ----> ADVICE to this user running VASP <----                  |
|                                                                             |
|     You have a (more or less) 'small supercell' and for smaller cells       |
|     it is recommended to use the reciprocal-space projection scheme!        |
|     The real-space optimization is not efficient for small cells and it     |
|     is also less accurate ...                                               |
|     Therefore, set LREAL=.FALSE. in the INCAR file.                         |
|                                                                             |
 -----------------------------------------------------------------------------

 LDA part: xc-table for Pade appr. of Perdew
 generate k-points for:   12   12    4
 POSCAR, INCAR and KPOINTS ok, starting setup
 FFT: planning ...
 WAVECAR not read
 entering main loop
       N       E                     dE             d eps       ncg     rms          rms(c)
DAV:   1     0.253806854765E+03    0.25381E+03   -0.17316E+04 18368   0.137E+03
DAV:   2    -0.145118865795E+02   -0.26832E+03   -0.25805E+03 21924   0.348E+02
DAV:   3    -0.374790108264E+02   -0.22967E+02   -0.22773E+02 29468   0.849E+01
DAV:   4    -0.392207651240E+02   -0.17418E+01   -0.17348E+01 27384   0.214E+01
DAV:   5    -0.392669949604E+02   -0.46230E-01   -0.46226E-01 26040   0.312E+00    0.178E+01
RMM:   6    -0.381484167731E+02    0.11186E+01   -0.45124E+00 20510   0.109E+01    0.783E+00
RMM:   7    -0.387538768285E+02   -0.60546E+00   -0.68149E-01 23160   0.507E+00    0.389E+00
RMM:   8    -0.388310595516E+02   -0.77183E-01   -0.30540E-01 27176   0.315E+00    0.156E+00
RMM:   9    -0.388415792107E+02   -0.10520E-01   -0.10386E-01 28792   0.204E+00    0.385E-01
RMM:  10    -0.388510543767E+02   -0.94752E-02   -0.53244E-02 32425   0.115E+00    0.187E-01
RMM:  11    -0.388548280943E+02   -0.37737E-02   -0.20390E-02 33102   0.668E-01    0.127E-01
RMM:  12    -0.388561226128E+02   -0.12945E-02   -0.85614E-03 34311   0.402E-01    0.909E-02
RMM:  13    -0.388565359970E+02   -0.41338E-03   -0.32032E-03 32944   0.272E-01    0.366E-02
RMM:  14    -0.388567937207E+02   -0.25772E-03   -0.16160E-03 33444   0.190E-01    0.877E-03
RMM:  15    -0.388568829512E+02   -0.89231E-04   -0.74000E-04 31612   0.112E-01    0.925E-03
RMM:  16    -0.388569170494E+02   -0.34098E-04   -0.31045E-04 30509   0.741E-02    0.587E-03
RMM:  17    -0.388569303132E+02   -0.13264E-04   -0.12380E-04 28209   0.512E-02    0.323E-03
RMM:  18    -0.388569347713E+02   -0.44580E-05   -0.45452E-05 24137   0.375E-02
   1 F= -.38856935E+02 E0= -.38856935E+02  d E =0.000000E+00  mag=    -0.0000
