   16   16    1    2
  0.9157994E+01  0.4479428E-09  0.5296402E-09  0.6176136E-09  0.5000000E-15
  1.000000000000000E-004
  CAR 
 unknown system                          
     76     48     52
 
  0.0000000E+00  0.0000000E+00  0.0000000E+00  0.4761905E-02
    1      -40.460359    -40.460358   1.000000   1.000000
    2      -40.459006    -40.459006   1.000000   1.000000
    3      -40.141409    -40.141403   1.000000   1.000000
    4      -40.133474    -40.133468   1.000000   1.000000
    5      -40.125641    -40.125635   1.000000   1.000000
    6      -40.117295    -40.117289   1.000000   1.000000
    7      -18.613321    -18.613324   1.000000   1.000000
    8      -18.437108    -18.437110   1.000000   1.000000
    9      -15.719072    -15.719070   1.000000   1.000000
   10      -15.677034    -15.677032   1.000000   1.000000
   11      -15.427178    -15.427175   1.000000   1.000000
   12      -15.382869    -15.382864   1.000000   1.000000
   13      -15.326484    -15.326480   1.000000   1.000000
   14      -15.278368    -15.278365   1.000000   1.000000
   15       -4.972546     -4.972547   1.000000   1.000000
   16       -4.694958     -4.694961   1.000000   1.000000
   17       -3.366966     -3.366965   1.000000   1.000000
   18       -3.294659     -3.294658   1.000000   1.000000
   19       -3.112796     -3.112798   1.000000   1.000000
   20       -3.084324     -3.084323   1.000000   1.000000
   21       -2.879516     -2.879516   1.000000   1.000000
   22       -2.802393     -2.802394   1.000000   1.000000
   23       -0.852478     -0.852471   1.000000   1.000000
   24       -0.801262     -0.801256   1.000000   1.000000
   25       -0.749316     -0.749309   1.000000   1.000000
   26       -0.558476     -0.558470   1.000000   1.000000
   27       -0.374919     -0.374914   1.000000   1.000000
   28       -0.298099     -0.298092   1.000000   1.000000
   29       -0.222277     -0.222271   1.000000   1.000000
   30        0.570949      0.570953   1.000000   1.000000
   31        0.626027      0.626035   1.000000   1.000000
   32        0.907044      0.907049   1.000000   1.000000
   33        0.983205      0.983215   1.000000   1.000000
   34        1.240798      1.240808   1.000000   1.000000
   35        1.248313      1.248324   1.000000   1.000000
   36        1.336011      1.336020   1.000000   1.000000
   37        1.598740      1.598750   1.000000   1.000000
   38        1.689254      1.689267   1.000000   1.000000
   39        8.183299      8.183306   0.000000   0.000000
   40       10.263551     10.263538   0.000000   0.000000
   41       11.212851     11.213233   0.000000   0.000000
   42       11.357700     11.357512   0.000000   0.000000
   43       11.411419     11.411310   0.000000   0.000000
   44       11.943531     11.943591   0.000000   0.000000
   45       12.116798     12.117204   0.000000   0.000000
   46       12.634756     12.634905   0.000000   0.000000
   47       13.125345     13.125230   0.000000   0.000000
   48       13.268976     13.271542   0.000000   0.000000
   49       14.385585     14.535825   0.000000   0.000000
   50       14.815822     14.953583   0.000000   0.000000
   51       15.224330     15.218299   0.000000   0.000000
   52       15.428286     15.464547   0.000000   0.000000
 
  0.1428571E+00  0.0000000E+00  0.0000000E+00  0.9523810E-02
    1      -40.460170    -40.460170   1.000000   1.000000
    2      -40.458944    -40.458944   1.000000   1.000000
    3      -40.140681    -40.140675   1.000000   1.000000
    4      -40.132647    -40.132641   1.000000   1.000000
    5      -40.126476    -40.126470   1.000000   1.000000
    6      -40.118059    -40.118053   1.000000   1.000000
    7      -18.590635    -18.590638   1.000000   1.000000
    8      -18.429655    -18.429659   1.000000   1.000000
    9      -15.750333    -15.750331   1.000000   1.000000
   10      -15.709215    -15.709213   1.000000   1.000000
   11      -15.421756    -15.421753   1.000000   1.000000
   12      -15.382033    -15.382029   1.000000   1.000000
   13      -15.331064    -15.331060   1.000000   1.000000
   14      -15.287697    -15.287695   1.000000   1.000000
   15       -5.027392     -5.027393   1.000000   1.000000
   16       -4.712285     -4.712288   1.000000   1.000000
   17       -3.242139     -3.242139   1.000000   1.000000
   18       -3.188171     -3.188171   1.000000   1.000000
   19       -3.076382     -3.076384   1.000000   1.000000
   20       -2.998615     -2.998613   1.000000   1.000000
   21       -2.834909     -2.834909   1.000000   1.000000
   22       -2.797392     -2.797393   1.000000   1.000000
   23       -0.925198     -0.925191   1.000000   1.000000
   24       -0.865237     -0.865230   1.000000   1.000000
   25       -0.858967     -0.858961   1.000000   1.000000
   26       -0.640910     -0.640904   1.000000   1.000000
   27       -0.263454     -0.263448   1.000000   1.000000
   28       -0.226650     -0.226643   1.000000   1.000000
   29       -0.222675     -0.222669   1.000000   1.000000
   30        0.536959      0.536964   1.000000   1.000000
   31        0.578429      0.578437   1.000000   1.000000
   32        0.707511      0.707517   1.000000   1.000000
   33        1.029168      1.029178   1.000000   1.000000
   34        1.276775      1.276784   1.000000   1.000000
   35        1.307809      1.307820   1.000000   1.000000
   36        1.413810      1.413819   1.000000   1.000000
   37        1.555727      1.555737   1.000000   1.000000
   38        1.732917      1.732929   1.000000   1.000000
   39        8.360052      8.360060   0.000000   0.000000
   40       10.241599     10.241614   0.000000   0.000000
   41       10.865257     10.864166   0.000000   0.000000
   42       11.169289     11.169804   0.000000   0.000000
   43       11.632314     11.631969   0.000000   0.000000
   44       11.996057     11.996378   0.000000   0.000000
   45       12.167156     12.166249   0.000000   0.000000
   46       12.575953     12.576004   0.000000   0.000000
   47       13.100512     13.100437   0.000000   0.000000
   48       13.239795     13.239500   0.000000   0.000000
   49       14.380968     14.388125   0.000000   0.000000
   50       14.710458     14.679733   0.000000   0.000000
   51       14.810540     14.770708   0.000000   0.000000
   52       14.946888     14.971542   0.000000   0.000000
 
  0.2857143E+00  0.0000000E+00  0.0000000E+00  0.9523810E-02
    1      -40.459684    -40.459684   1.000000   1.000000
    2      -40.458843    -40.458842   1.000000   1.000000
    3      -40.138629    -40.138623   1.000000   1.000000
    4      -40.130307    -40.130301   1.000000   1.000000
    5      -40.128743    -40.128737   1.000000   1.000000
    6      -40.120198    -40.120192   1.000000   1.000000
    7      -18.532788    -18.532792   1.000000   1.000000
    8      -18.417700    -18.417704   1.000000   1.000000
    9      -15.818440    -15.818438   1.000000   1.000000
   10      -15.784758    -15.784756   1.000000   1.000000
   11      -15.405326    -15.405323   1.000000   1.000000
   12      -15.378534    -15.378530   1.000000   1.000000
   13      -15.342961    -15.342957   1.000000   1.000000
   14      -15.312693    -15.312690   1.000000   1.000000
   15       -5.091994     -5.091995   1.000000   1.000000
   16       -4.801756     -4.801758   1.000000   1.000000
   17       -3.128431     -3.128431   1.000000   1.000000
   18       -3.008380     -3.008381   1.000000   1.000000
   19       -2.982260     -2.982262   1.000000   1.000000
   20       -2.790011     -2.790012   1.000000   1.000000
   21       -2.681136     -2.681133   1.000000   1.000000
   22       -2.508839     -2.508838   1.000000   1.000000
   23       -1.059911     -1.059904   1.000000   1.000000
   24       -1.042620     -1.042613   1.000000   1.000000
   25       -0.996154     -0.996148   1.000000   1.000000
   26       -0.821064     -0.821057   1.000000   1.000000
   27       -0.302450     -0.302444   1.000000   1.000000
   28       -0.071146     -0.071141   1.000000   1.000000
   29       -0.070656     -0.070650   1.000000   1.000000
   30        0.195474      0.195480   1.000000   1.000000
   31        0.440600      0.440605   1.000000   1.000000
   32        0.466764      0.466772   1.000000   1.000000
   33        1.097788      1.097798   1.000000   1.000000
   34        1.395342      1.395351   1.000000   1.000000
   35        1.443866      1.443878   1.000000   1.000000
   36        1.492955      1.492967   1.000000   1.000000
   37        1.558312      1.558321   1.000000   1.000000
   38        1.813289      1.813300   1.000000   1.000000
   39        8.810983      8.810990   0.000000   0.000000
   40       10.057597     10.057929   0.000000   0.000000
   41       10.553751     10.553767   0.000000   0.000000
   42       10.988897     10.988807   0.000000   0.000000
   43       11.700071     11.700087   0.000000   0.000000
   44       11.977350     11.977284   0.000000   0.000000
   45       12.099360     12.099026   0.000000   0.000000
   46       12.429262     12.429312   0.000000   0.000000
   47       13.123532     13.123748   0.000000   0.000000
   48       13.172861     13.173645   0.000000   0.000000
   49       14.043335     14.058920   0.000000   0.000000
   50       14.351772     14.296937   0.000000   0.000000
   51       14.503167     14.577436   0.000000   0.000000
   52       14.886599     15.173978   0.000000   0.000000
 
  0.4285714E+00  0.0000000E+00  0.0000000E+00  0.9523810E-02
    1      -40.459202    -40.459202   1.000000   1.000000
    2      -40.458903    -40.458903   1.000000   1.000000
    3      -40.135563    -40.135557   1.000000   1.000000
    4      -40.132019    -40.132013   1.000000   1.000000
    5      -40.127014    -40.127008   1.000000   1.000000
    6      -40.123403    -40.123397   1.000000   1.000000
    7      -18.467385    -18.467388   1.000000   1.000000
    8      -18.425203    -18.425207   1.000000   1.000000
    9      -15.866765    -15.866762   1.000000   1.000000
   10      -15.853190    -15.853188   1.000000   1.000000
   11      -15.378942    -15.378939   1.000000   1.000000
   12      -15.370466    -15.370462   1.000000   1.000000
   13      -15.357693    -15.357689   1.000000   1.000000
   14      -15.345967    -15.345965   1.000000   1.000000
   15       -5.066384     -5.066385   1.000000   1.000000
   16       -4.948860     -4.948861   1.000000   1.000000
   17       -3.031287     -3.031287   1.000000   1.000000
   18       -2.988817     -2.988817   1.000000   1.000000
   19       -2.874609     -2.874611   1.000000   1.000000
   20       -2.806172     -2.806173   1.000000   1.000000
   21       -2.214430     -2.214429   1.000000   1.000000
   22       -2.100569     -2.100569   1.000000   1.000000
   23       -1.147065     -1.147059   1.000000   1.000000
   24       -1.123163     -1.123157   1.000000   1.000000
   25       -1.112598     -1.112591   1.000000   1.000000
   26       -1.008704     -1.008697   1.000000   1.000000
   27       -0.471025     -0.471018   1.000000   1.000000
   28       -0.370483     -0.370475   1.000000   1.000000
   29        0.125849      0.125854   1.000000   1.000000
   30        0.128599      0.128606   1.000000   1.000000
   31        0.296913      0.296918   1.000000   1.000000
   32        0.313424      0.313432   1.000000   1.000000
   33        1.182513      1.182524   1.000000   1.000000
   34        1.304864      1.304876   1.000000   1.000000
   35        1.546048      1.546057   1.000000   1.000000
   36        1.621536      1.621545   1.000000   1.000000
   37        1.706672      1.706683   1.000000   1.000000
   38        1.825825      1.825837   1.000000   1.000000
   39        9.335403      9.335418   0.000000   0.000000
   40        9.731120      9.731210   0.000000   0.000000
   41       10.631880     10.632160   0.000000   0.000000
   42       10.812234     10.812461   0.000000   0.000000
   43       11.536576     11.536553   0.000000   0.000000
   44       11.625224     11.625306   0.000000   0.000000
   45       12.182663     12.182539   0.000000   0.000000
   46       12.278999     12.278905   0.000000   0.000000
   47       13.119910     13.119932   0.000000   0.000000
   48       13.259915     13.260171   0.000000   0.000000
   49       13.881131     13.889549   0.000000   0.000000
   50       14.149312     14.116414   0.000000   0.000000
   51       14.229550     14.185219   0.000000   0.000000
   52       14.379267     14.305494   0.000000   0.000000
 
  0.0000000E+00  0.1666667E+00  0.0000000E+00  0.9523810E-02
    1      -40.460266    -40.460266   1.000000   1.000000
    2      -40.459023    -40.459023   1.000000   1.000000
    3      -40.141524    -40.141518   1.000000   1.000000
    4      -40.133442    -40.133436   1.000000   1.000000
    5      -40.125556    -40.125550   1.000000   1.000000
    6      -40.117336    -40.117330   1.000000   1.000000
    7      -18.605070    -18.605073   1.000000   1.000000
    8      -18.442365    -18.442370   1.000000   1.000000
    9      -15.716943    -15.716941   1.000000   1.000000
   10      -15.674987    -15.674985   1.000000   1.000000
   11      -15.419921    -15.419918   1.000000   1.000000
   12      -15.411041    -15.411036   1.000000   1.000000
   13      -15.312728    -15.312724   1.000000   1.000000
   14      -15.286878    -15.286876   1.000000   1.000000
   15       -4.948932     -4.948934   1.000000   1.000000
   16       -4.695410     -4.695412   1.000000   1.000000
   17       -3.355682     -3.355679   1.000000   1.000000
   18       -3.276958     -3.276957   1.000000   1.000000
   19       -3.116844     -3.116845   1.000000   1.000000
   20       -3.080879     -3.080878   1.000000   1.000000
   21       -2.840007     -2.840007   1.000000   1.000000
   22       -2.775046     -2.775048   1.000000   1.000000
   23       -0.908640     -0.908633   1.000000   1.000000
   24       -0.895161     -0.895155   1.000000   1.000000
   25       -0.687702     -0.687695   1.000000   1.000000
   26       -0.503701     -0.503695   1.000000   1.000000
   27       -0.411697     -0.411691   1.000000   1.000000
   28       -0.351929     -0.351924   1.000000   1.000000
   29       -0.023235     -0.023228   1.000000   1.000000
   30        0.373587      0.373591   1.000000   1.000000
   31        0.624186      0.624193   1.000000   1.000000
   32        0.860907      0.860913   1.000000   1.000000
   33        1.020508      1.020518   1.000000   1.000000
   34        1.175507      1.175519   1.000000   1.000000
   35        1.198429      1.198439   1.000000   1.000000
   36        1.393059      1.393069   1.000000   1.000000
   37        1.587607      1.587618   1.000000   1.000000
   38        1.732236      1.732248   1.000000   1.000000
   39        8.425668      8.425675   0.000000   0.000000
   40       10.066300     10.066263   0.000000   0.000000
   41       10.829728     10.828646   0.000000   0.000000
   42       11.338535     11.339053   0.000000   0.000000
   43       11.898040     11.897943   0.000000   0.000000
   44       11.938914     11.938564   0.000000   0.000000
   45       12.266820     12.266282   0.000000   0.000000
   46       12.579329     12.579348   0.000000   0.000000
   47       12.974219     12.974254   0.000000   0.000000
   48       13.119352     13.119026   0.000000   0.000000
   49       14.038616     14.039944   0.000000   0.000000
   50       14.743102     14.762001   0.000000   0.000000
   51       14.969960     14.959648   0.000000   0.000000
   52       15.664101     15.297433   0.000000   0.000000
 
  0.1428571E+00  0.1666667E+00  0.0000000E+00  0.1904762E-01
    1      -40.460058    -40.460057   1.000000   1.000000
    2      -40.458946    -40.458946   1.000000   1.000000
    3      -40.140775    -40.140769   1.000000   1.000000
    4      -40.132581    -40.132575   1.000000   1.000000
    5      -40.126360    -40.126354   1.000000   1.000000
    6      -40.118098    -40.118092   1.000000   1.000000
    7      -18.582853    -18.582856   1.000000   1.000000
    8      -18.434187    -18.434190   1.000000   1.000000
    9      -15.748155    -15.748153   1.000000   1.000000
   10      -15.707161    -15.707159   1.000000   1.000000
   11      -15.415111    -15.415108   1.000000   1.000000
   12      -15.408026    -15.408022   1.000000   1.000000
   13      -15.319737    -15.319733   1.000000   1.000000
   14      -15.295337    -15.295334   1.000000   1.000000
   15       -5.002798     -5.002799   1.000000   1.000000
   16       -4.719146     -4.719149   1.000000   1.000000
   17       -3.230257     -3.230256   1.000000   1.000000
   18       -3.150976     -3.150975   1.000000   1.000000
   19       -3.087115     -3.087116   1.000000   1.000000
   20       -2.995659     -2.995657   1.000000   1.000000
   21       -2.808369     -2.808369   1.000000   1.000000
   22       -2.771233     -2.771235   1.000000   1.000000
   23       -0.974693     -0.974687   1.000000   1.000000
   24       -0.952046     -0.952039   1.000000   1.000000
   25       -0.736754     -0.736747   1.000000   1.000000
   26       -0.573451     -0.573445   1.000000   1.000000
   27       -0.410668     -0.410661   1.000000   1.000000
   28       -0.275047     -0.275041   1.000000   1.000000
   29       -0.000333     -0.000327   1.000000   1.000000
   30        0.312265      0.312270   1.000000   1.000000
   31        0.576074      0.576082   1.000000   1.000000
   32        0.707479      0.707484   1.000000   1.000000
   33        1.050195      1.050205   1.000000   1.000000
   34        1.243431      1.243440   1.000000   1.000000
   35        1.245640      1.245652   1.000000   1.000000
   36        1.455728      1.455737   1.000000   1.000000
   37        1.591552      1.591562   1.000000   1.000000
   38        1.733481      1.733493   1.000000   1.000000
   39        8.578284      8.578292   0.000000   0.000000
   40       10.093563     10.093489   0.000000   0.000000
   41       10.527779     10.528664   0.000000   0.000000
   42       11.377142     11.376840   0.000000   0.000000
   43       11.820847     11.820450   0.000000   0.000000
   44       11.881980     11.881802   0.000000   0.000000
   45       12.290036     12.291293   0.000000   0.000000
   46       12.530919     12.530770   0.000000   0.000000
   47       13.002542     13.001759   0.000000   0.000000
   48       13.090874     13.090472   0.000000   0.000000
   49       14.011145     14.001063   0.000000   0.000000
   50       14.491460     14.471815   0.000000   0.000000
   51       15.031792     15.018492   0.000000   0.000000
   52       15.119940     15.200429   0.000000   0.000000
 
  0.2857143E+00  0.1666667E+00  0.0000000E+00  0.1904762E-01
    1      -40.459609    -40.459608   1.000000   1.000000
    2      -40.458847    -40.458847   1.000000   1.000000
    3      -40.138692    -40.138686   1.000000   1.000000
    4      -40.130265    -40.130258   1.000000   1.000000
    5      -40.128711    -40.128705   1.000000   1.000000
    6      -40.120229    -40.120223   1.000000   1.000000
    7      -18.526585    -18.526588   1.000000   1.000000
    8      -18.420334    -18.420338   1.000000   1.000000
    9      -15.816430    -15.816427   1.000000   1.000000
   10      -15.782945    -15.782943   1.000000   1.000000
   11      -15.400834    -15.400831   1.000000   1.000000
   12      -15.398714    -15.398710   1.000000   1.000000
   13      -15.337881    -15.337877   1.000000   1.000000
   14      -15.318002    -15.317999   1.000000   1.000000
   15       -5.069783     -5.069784   1.000000   1.000000
   16       -4.811612     -4.811614   1.000000   1.000000
   17       -3.114619     -3.114619   1.000000   1.000000
   18       -3.006395     -3.006397   1.000000   1.000000
   19       -2.944530     -2.944531   1.000000   1.000000
   20       -2.772982     -2.772983   1.000000   1.000000
   21       -2.661720     -2.661718   1.000000   1.000000
   22       -2.526413     -2.526412   1.000000   1.000000
   23       -1.098031     -1.098024   1.000000   1.000000
   24       -1.035161     -1.035154   1.000000   1.000000
   25       -0.873899     -0.873893   1.000000   1.000000
   26       -0.750754     -0.750748   1.000000   1.000000
   27       -0.425615     -0.425608   1.000000   1.000000
   28       -0.107014     -0.107008   1.000000   1.000000
   29       -0.015281     -0.015275   1.000000   1.000000
   30        0.067770      0.067776   1.000000   1.000000
   31        0.429851      0.429856   1.000000   1.000000
   32        0.456055      0.456063   1.000000   1.000000
   33        1.106589      1.106599   1.000000   1.000000
   34        1.368980      1.368990   1.000000   1.000000
   35        1.407634      1.407645   1.000000   1.000000
   36        1.544839      1.544850   1.000000   1.000000
   37        1.576416      1.576425   1.000000   1.000000
   38        1.787215      1.787226   1.000000   1.000000
   39        8.968113      8.968122   0.000000   0.000000
   40       10.007820     10.008631   0.000000   0.000000
   41       10.266904     10.267112   0.000000   0.000000
   42       11.294793     11.294947   0.000000   0.000000
   43       11.597152     11.597155   0.000000   0.000000
   44       11.853981     11.853428   0.000000   0.000000
   45       12.052502     12.052396   0.000000   0.000000
   46       12.356607     12.356921   0.000000   0.000000
   47       12.970080     12.970799   0.000000   0.000000
   48       13.218649     13.218735   0.000000   0.000000
   49       14.023249     14.013976   0.000000   0.000000
   50       14.063616     14.078506   0.000000   0.000000
   51       14.633837     14.621314   0.000000   0.000000
   52       15.386475     14.962731   0.000000   0.000000
 
  0.4285714E+00  0.1666667E+00  0.0000000E+00  0.1904762E-01
    1      -40.459151    -40.459151   1.000000   1.000000
    2      -40.458891    -40.458891   1.000000   1.000000
    3      -40.135591    -40.135585   1.000000   1.000000
    4      -40.132023    -40.132017   1.000000   1.000000
    5      -40.126990    -40.126984   1.000000   1.000000
    6      -40.123425    -40.123419   1.000000   1.000000
    7      -18.463777    -18.463781   1.000000   1.000000
    8      -18.424812    -18.424816   1.000000   1.000000
    9      -15.864949    -15.864946   1.000000   1.000000
   10      -15.851506    -15.851504   1.000000   1.000000
   11      -15.382610    -15.382606   1.000000   1.000000
   12      -15.377579    -15.377576   1.000000   1.000000
   13      -15.360960    -15.360956   1.000000   1.000000
   14      -15.348079    -15.348076   1.000000   1.000000
   15       -5.053016     -5.053017   1.000000   1.000000
   16       -4.948776     -4.948777   1.000000   1.000000
   17       -3.011520     -3.011520   1.000000   1.000000
   18       -2.943290     -2.943290   1.000000   1.000000
   19       -2.900863     -2.900864   1.000000   1.000000
   20       -2.812302     -2.812304   1.000000   1.000000
   21       -2.201762     -2.201761   1.000000   1.000000
   22       -2.107266     -2.107266   1.000000   1.000000
   23       -1.130829     -1.130822   1.000000   1.000000
   24       -1.050105     -1.050098   1.000000   1.000000
   25       -1.036189     -1.036183   1.000000   1.000000
   26       -0.945246     -0.945239   1.000000   1.000000
   27       -0.542251     -0.542244   1.000000   1.000000
   28       -0.452101     -0.452093   1.000000   1.000000
   29        0.091169      0.091176   1.000000   1.000000
   30        0.113971      0.113976   1.000000   1.000000
   31        0.250821      0.250826   1.000000   1.000000
   32        0.287846      0.287853   1.000000   1.000000
   33        1.203051      1.203062   1.000000   1.000000
   34        1.336874      1.336886   1.000000   1.000000
   35        1.528475      1.528485   1.000000   1.000000
   36        1.619106      1.619115   1.000000   1.000000
   37        1.685532      1.685543   1.000000   1.000000
   38        1.798307      1.798318   1.000000   1.000000
   39        9.401114      9.401146   0.000000   0.000000
   40        9.706128      9.706303   0.000000   0.000000
   41       10.525017     10.524958   0.000000   0.000000
   42       10.979889     10.980190   0.000000   0.000000
   43       11.454314     11.454365   0.000000   0.000000
   44       11.621203     11.621339   0.000000   0.000000
   45       11.903195     11.903249   0.000000   0.000000
   46       12.096752     12.096663   0.000000   0.000000
   47       13.039539     13.038870   0.000000   0.000000
   48       13.327611     13.327961   0.000000   0.000000
   49       13.859403     13.854107   0.000000   0.000000
   50       14.245831     14.275605   0.000000   0.000000
   51       14.268677     14.318822   0.000000   0.000000
   52       14.852112     14.800844   0.000000   0.000000
 
  0.0000000E+00  0.3333333E+00  0.0000000E+00  0.9523810E-02
    1      -40.460041    -40.460040   1.000000   1.000000
    2      -40.459122    -40.459121   1.000000   1.000000
    3      -40.141752    -40.141746   1.000000   1.000000
    4      -40.133334    -40.133328   1.000000   1.000000
    5      -40.125423    -40.125417   1.000000   1.000000
    6      -40.117451    -40.117444   1.000000   1.000000
    7      -18.586323    -18.586327   1.000000   1.000000
    8      -18.455202    -18.455205   1.000000   1.000000
    9      -15.713482    -15.713480   1.000000   1.000000
   10      -15.669167    -15.669166   1.000000   1.000000
   11      -15.451819    -15.451815   1.000000   1.000000
   12      -15.401636    -15.401633   1.000000   1.000000
   13      -15.307609    -15.307606   1.000000   1.000000
   14      -15.301904    -15.301900   1.000000   1.000000
   15       -4.881280     -4.881281   1.000000   1.000000
   16       -4.722256     -4.722259   1.000000   1.000000
   17       -3.348917     -3.348914   1.000000   1.000000
   18       -3.223851     -3.223848   1.000000   1.000000
   19       -3.120555     -3.120556   1.000000   1.000000
   20       -3.068112     -3.068112   1.000000   1.000000
   21       -2.752481     -2.752482   1.000000   1.000000
   22       -2.724363     -2.724366   1.000000   1.000000
   23       -0.957155     -0.957148   1.000000   1.000000
   24       -0.904863     -0.904856   1.000000   1.000000
   25       -0.742386     -0.742379   1.000000   1.000000
   26       -0.575097     -0.575091   1.000000   1.000000
   27       -0.341843     -0.341836   1.000000   1.000000
   28       -0.234005     -0.233999   1.000000   1.000000
   29       -0.052947     -0.052942   1.000000   1.000000
   30        0.211447      0.211453   1.000000   1.000000
   31        0.606687      0.606695   1.000000   1.000000
   32        0.728160      0.728166   1.000000   1.000000
   33        1.021669      1.021680   1.000000   1.000000
   34        1.149468      1.149478   1.000000   1.000000
   35        1.154872      1.154881   1.000000   1.000000
   36        1.468546      1.468556   1.000000   1.000000
   37        1.496381      1.496392   1.000000   1.000000
   38        1.835113      1.835125   1.000000   1.000000
   39        9.034797      9.034806   0.000000   0.000000
   40        9.721252      9.721253   0.000000   0.000000
   41       10.465817     10.465900   0.000000   0.000000
   42       11.138716     11.138831   0.000000   0.000000
   43       11.807882     11.807871   0.000000   0.000000
   44       12.392114     12.392468   0.000000   0.000000
   45       12.440341     12.440781   0.000000   0.000000
   46       12.688780     12.689390   0.000000   0.000000
   47       12.859430     12.859975   0.000000   0.000000
   48       13.084288     13.084442   0.000000   0.000000
   49       13.692780     13.692764   0.000000   0.000000
   50       14.256200     14.255541   0.000000   0.000000
   51       14.899019     14.880456   0.000000   0.000000
   52       15.302414     15.352056   0.000000   0.000000
 
  0.1428571E+00  0.3333333E+00  0.0000000E+00  0.1904762E-01
    1      -40.459894    -40.459894   1.000000   1.000000
    2      -40.459051    -40.459051   1.000000   1.000000
    3      -40.141009    -40.141003   1.000000   1.000000
    4      -40.132536    -40.132530   1.000000   1.000000
    5      -40.126280    -40.126274   1.000000   1.000000
    6      -40.118220    -40.118214   1.000000   1.000000
    7      -18.565312    -18.565315   1.000000   1.000000
    8      -18.445604    -18.445607   1.000000   1.000000
    9      -15.744751    -15.744749   1.000000   1.000000
   10      -15.701770    -15.701768   1.000000   1.000000
   11      -15.446192    -15.446188   1.000000   1.000000
   12      -15.398789    -15.398786   1.000000   1.000000
   13      -15.314065    -15.314062   1.000000   1.000000
   14      -15.311961    -15.311957   1.000000   1.000000
   15       -4.933693     -4.933695   1.000000   1.000000
   16       -4.759052     -4.759054   1.000000   1.000000
   17       -3.201799     -3.201797   1.000000   1.000000
   18       -3.101376     -3.101377   1.000000   1.000000
   19       -3.075513     -3.075511   1.000000   1.000000
   20       -2.995522     -2.995521   1.000000   1.000000
   21       -2.733974     -2.733974   1.000000   1.000000
   22       -2.727683     -2.727685   1.000000   1.000000
   23       -1.011213     -1.011206   1.000000   1.000000
   24       -0.928408     -0.928402   1.000000   1.000000
   25       -0.724817     -0.724811   1.000000   1.000000
   26       -0.589814     -0.589808   1.000000   1.000000
   27       -0.396140     -0.396134   1.000000   1.000000
   28       -0.228504     -0.228498   1.000000   1.000000
   29       -0.125258     -0.125253   1.000000   1.000000
   30        0.201880      0.201886   1.000000   1.000000
   31        0.555723      0.555731   1.000000   1.000000
   32        0.620217      0.620223   1.000000   1.000000
   33        1.045639      1.045650   1.000000   1.000000
   34        1.199454      1.199464   1.000000   1.000000
   35        1.221804      1.221815   1.000000   1.000000