 running on   12 total cores
 distrk:  each k-point on   12 cores,    1 groups
 distr:  one band on    6 cores,    2 groups
 using from now: INCAR     
 vasp.6.1.2 22Jul20 (build Mar 20 2021 11:25:07) complex                        
  
 POSCAR found type information on POSCAR LiP O 
 POSCAR found :  3 types and      16 ions
 scaLAPACK will be used
 LDA part: xc-table for Pade appr. of Perdew
 generate k-points for:    7    6    5
 POSCAR, INCAR and KPOINTS ok, starting setup
 FFT: planning ...
 WAVECAR not read
 entering main loop
       N       E                     dE             d eps       ncg     rms          rms(c)
DAV:   1     0.633939979679E+03    0.63394E+03   -0.37621E+04  9984   0.155E+03
DAV:   2    -0.439670415616E+02   -0.67791E+03   -0.64441E+03 11612   0.408E+02
DAV:   3    -0.102091979516E+03   -0.58125E+02   -0.57842E+02 13940   0.112E+02
DAV:   4    -0.107849265362E+03   -0.57573E+01   -0.57321E+01 16896   0.291E+01
DAV:   5    -0.108324534271E+03   -0.47527E+00   -0.47517E+00 14080   0.600E+00    0.418E+01
RMM:   6    -0.976941449134E+02    0.10630E+02   -0.42318E+01 11101   0.251E+01    0.181E+01
RMM:   7    -0.987101640403E+02   -0.10160E+01   -0.57765E+00 14415   0.966E+00    0.906E+00
RMM:   8    -0.989776516074E+02   -0.26749E+00   -0.11797E+00 16586   0.490E+00    0.404E+00
RMM:   9    -0.990464620099E+02   -0.68810E-01   -0.46348E-01 16712   0.332E+00    0.117E+00
RMM:  10    -0.990882965672E+02   -0.41835E-01   -0.29947E-01 18883   0.202E+00    0.437E-01
RMM:  11    -0.991056144539E+02   -0.17318E-01   -0.13058E-01 19348   0.122E+00    0.330E-01
WARNING in EDDRMM: call to ZHEGV failed, returncode =   8  4      5
RMM:  12    -0.991126907574E+02   -0.70763E-02   -0.50401E-02 19357   0.769E-01    0.204E-01
RMM:  13    -0.991150128496E+02   -0.23221E-02   -0.18740E-02 19024   0.507E-01    0.918E-02
RMM:  14    -0.991161807054E+02   -0.11679E-02   -0.94687E-03 19203   0.351E-01    0.401E-02
RMM:  15    -0.991165847591E+02   -0.40405E-03   -0.38054E-03 18750   0.220E-01    0.317E-02
RMM:  16    -0.991167721177E+02   -0.18736E-03   -0.18721E-03 18605   0.147E-01    0.174E-02
RMM:  17    -0.991168418448E+02   -0.69727E-04   -0.72419E-04 18059   0.101E-01    0.876E-03
RMM:  18    -0.991168838642E+02   -0.42019E-04   -0.39846E-04 17769   0.702E-02    0.666E-03
RMM:  19    -0.991168993041E+02   -0.15440E-04   -0.16045E-04 16805   0.488E-02    0.255E-03
RMM:  20    -0.991169012863E+02   -0.19822E-05   -0.39281E-05 12137   0.357E-02
   1 F= -.99116901E+02 E0= -.99116901E+02  d E =0.000000E+00  mag=     0.0000
