Automatically generated mesh
      16
Reciprocal lattice
    0.00000000000000    0.00000000000000    0.00000000000000             1
    0.16666666666667    0.00000000000000    0.00000000000000             2
    0.33333333333333    0.00000000000000    0.00000000000000             2
    0.50000000000000    0.00000000000000    0.00000000000000             1
    0.00000000000000    0.33333333333333   -0.00000000000000             2
    0.16666666666667    0.33333333333333   -0.00000000000000             4
    0.33333333333333    0.33333333333333   -0.00000000000000             4
    0.50000000000000    0.33333333333333   -0.00000000000000             2
    0.00000000000000    0.00000000000000    0.50000000000000             1
    0.16666666666667    0.00000000000000    0.50000000000000             2
    0.33333333333333    0.00000000000000    0.50000000000000             2
    0.50000000000000    0.00000000000000    0.50000000000000             1
    0.00000000000000    0.33333333333333    0.50000000000000             2
    0.16666666666667    0.33333333333333    0.50000000000000             4
    0.33333333333333    0.33333333333333    0.50000000000000             4
    0.50000000000000    0.33333333333333    0.50000000000000             2
Tetrahedra
       108    0.00462962962963
         2         2         5         6        13
         2         1         2         5        13
         2         1         2         9        13
         2         2         6        13        14
         2         2        10        13        14
         2         2         9        10        13
         2         3         6         7        14
         2         2         3         6        14
         2         2         3        10        14
         2         3         7        14        15
         2         3        11        14        15
         2         3        10        11        14
         2         4         7         8        15
         2         3         4         7        15
         2         3         4        11        15
         2         4         8        15        16
         2         4        12        15        16
         2         4        11        12        15
         2         3         7         8        16
         2         3         4         8        16
         2         3         4        12        16
         2         3         7        15        16
         2         3        11        15        16
         2         3        11        12        16
         2         2         6         7        15
         2         2         3         7        15
         2         2         3        11        15
         2         2         6        14        15
         2         2        10        14        15
         2         2        10        11        15
         2         1         5         6        14
         2         1         2         6        14
         2         1         2        10        14
         2         1         5        13        14
         2         1         9        13        14
         2         1         9        10        14
         2         5         6         6        13
         2         5         5         6        13
         2         5         6        13        13
         2         6         6        13        14
         2         6        13        14        14
         2         6        13        13        14
         2         6         7         7        14
         2         6         6         7        14
         2         6         7        14        14
         2         7         7        14        15
         2         7        14        15        15
         2         7        14        14        15
         2         7         8         8        15
         2         7         7         8        15
         2         7         8        15        15
         2         8         8        15        16
         2         8        15        16        16
         2         8        15        15        16
         2         7         7         8        16
         2         7         8         8        16
         2         7         8        16        16
         2         7         7        15        16
         2         7        15        15        16
         2         7        15        16        16
         2         6         6         7        15
         2         6         7         7        15
         2         6         7        15        15
         2         6         6        14        15
         2         6        14        14        15
         2         6        14        15        15
         2         5         5         6        14
         2         5         6         6        14
         2         5         6        14        14
         2         5         5        13        14
         2         5        13        13        14
         2         5        13        14        14
         2         1         2         6         9
         2         1         5         6         9
         2         5         6         9        13
         2         2         6         9        10
         2         6         9        10        14
         2         6         9        13        14
         2         2         3         7        10
         2         2         6         7        10
         2         6         7        10        14
         2         3         7        10        11
         2         7        10        11        15
         2         7        10        14        15
         2         3         4         8        11
         2         3         7         8        11
         2         7         8        11        15
         2         4         8        11        12
         2         8        11        12        16
         2         8        11        15        16
         2         3         4         7        12
         2         4         7         8        12
         2         7         8        12        16
         2         3         7        11        12
         2         7        11        12        15
         2         7        12        15        16
         2         2         3         6        11
         2         3         6         7        11
         2         6         7        11        15
         2         2         6        10        11
         2         6        10        11        14
         2         6        11        14        15
         2         1         2         5        10
         2         2         5         6        10
         2         5         6        10        14
         2         1         5         9        10
         2         5         9        10        13
         2         5        10        13        14
