 running on   72 total cores
 distrk:  each k-point on   72 cores,    1 groups
 distr:  one band on    6 cores,   12 groups
 using from now: INCAR     
 vasp.5.4.4.18Apr17-6-g9f103f2a35 (build Aug 12 2020 11:57:02) complex          
  
 POSCAR found type information on POSCAR  Li P  O 
 POSCAR found :  3 types and     100 ions
 scaLAPACK will be used
 LDA part: xc-table for Pade appr. of Perdew
 generate k-points for:    6    3    2
 POSCAR, INCAR and KPOINTS ok, starting setup
 FFT: planning ...
 WAVECAR not read
 entering main loop
       N       E                     dE             d eps       ncg     rms          rms(c)
DAV:   1     0.472483741037E+04    0.47248E+04   -0.26093E+05 19968   0.166E+03
DAV:   2    -0.264011558751E+03   -0.49888E+04   -0.47913E+04 23496   0.420E+02
DAV:   3    -0.730884188620E+03   -0.46687E+03   -0.46443E+03 24060   0.141E+02
DAV:   4    -0.762231269659E+03   -0.31347E+02   -0.31238E+02 34560   0.301E+01
DAV:   5    -0.769077167057E+03   -0.68459E+01   -0.68429E+01 32460   0.808E+00    0.990E+01
RMM:   6    -0.676711357228E+03    0.92366E+02   -0.46031E+02 19968   0.320E+01    0.406E+01
RMM:   7    -0.673642236985E+03    0.30691E+01   -0.27905E+01 29232   0.704E+00    0.174E+01
RMM:   8    -0.673462612732E+03    0.17962E+00   -0.97215E+00 24168   0.555E+00    0.388E+00
RMM:   9    -0.673032991382E+03    0.42962E+00   -0.13329E+00 24641   0.178E+00    0.928E-01
RMM:  10    -0.673082381775E+03   -0.49390E-01   -0.40422E-01 29708   0.817E-01    0.890E-01
RMM:  11    -0.673089484188E+03   -0.71024E-02   -0.14507E-01 25025   0.616E-01    0.322E-01
RMM:  12    -0.673091741945E+03   -0.22578E-02   -0.40895E-02 29841   0.234E-01    0.193E-01
RMM:  13    -0.673092719604E+03   -0.97766E-03   -0.17569E-02 31527   0.149E-01    0.908E-02
RMM:  14    -0.673093196817E+03   -0.47721E-03   -0.55695E-03 30124   0.928E-02    0.253E-02
WARNING in EDDRMM: call to ZHEGV failed, returncode =   8  4      8
RMM:  15    -0.673093437445E+03   -0.24063E-03   -0.24221E-03 31529   0.561E-02    0.366E-02
RMM:  16    -0.673093483229E+03   -0.45784E-04   -0.80293E-04 27931   0.339E-02    0.158E-02
WARNING in EDDRMM: call to ZHEGV failed, returncode =   6  3     16
RMM:  17    -0.673093505439E+03   -0.22211E-04   -0.35294E-04 25289   0.209E-02    0.769E-03
RMM:  18    -0.673093502444E+03    0.29954E-05   -0.18620E-05 15286   0.126E-02
   1 F= -.67309350E+03 E0= -.67309350E+03  d E =-.673094E+03  mag=     0.0000
 curvature:   0.00 expect dE= 0.000E+00 dE for cont linesearch  0.000E+00
 trial: gam= 0.00000 g(F)=  0.378E-01 g(S)=  0.133E-01 ort = 0.000E+00 (trialstep = 0.100E+01)
 search vector abs. value=  0.511E-01
 bond charge predicted
       N       E                     dE             d eps       ncg     rms          rms(c)
DAV:   1    -0.673147207277E+03   -0.53702E-01   -0.99478E+00 23208   0.687E+00    0.217E+00
RMM:   2    -0.673126003444E+03    0.21204E-01   -0.48275E-01 21424   0.119E+00    0.648E-01
RMM:   3    -0.673104566240E+03    0.21437E-01   -0.37736E-02 22053   0.321E-01    0.275E-01
RMM:   4    -0.673102295501E+03    0.22707E-02   -0.84059E-03 22135   0.120E-01    0.144E-01
RMM:   5    -0.673101992936E+03    0.30256E-03   -0.18275E-03 25139   0.580E-02    0.701E-02
RMM:   6    -0.673101971382E+03    0.21554E-04   -0.50190E-04 25190   0.300E-02    0.150E-02
RMM:   7    -0.673101977571E+03   -0.61886E-05   -0.14312E-04 21913   0.137E-02    0.895E-03
RMM:   8    -0.673101978199E+03   -0.62816E-06   -0.15224E-05 14005   0.815E-03
   2 F= -.67310198E+03 E0= -.67310198E+03  d E =-.847576E-02  mag=     0.0000
 trial-energy change:   -0.008476  1 .order   -0.009193   -0.051131    0.032744
 step:   0.5973(harm=  0.6096)  dis= 0.00348  next Energy=  -673.108619 (dE=-0.151E-01)
 bond charge predicted
       N       E                     dE             d eps       ncg     rms          rms(c)
DAV:   1    -0.673116145050E+03   -0.14167E-01   -0.16163E+00 23028   0.276E+00    0.878E-01
RMM:   2    -0.673112784567E+03    0.33605E-02   -0.79357E-02 20543   0.474E-01    0.260E-01
RMM:   3    -0.673109106545E+03    0.36780E-02   -0.62617E-03 21190   0.128E-01    0.108E-01
RMM:   4    -0.673108723678E+03    0.38287E-03   -0.13381E-03 21124   0.469E-02    0.560E-02
RMM:   5    -0.673108651689E+03    0.71989E-04   -0.25300E-04 22624   0.219E-02    0.277E-02
RMM:   6    -0.673108631380E+03    0.20309E-04   -0.63718E-05 19858   0.113E-02    0.609E-03
RMM:   7    -0.673108629629E+03    0.17508E-05   -0.66011E-06 11899   0.543E-03
   3 F= -.67310863E+03 E0= -.67310863E+03  d E =-.151272E-01  mag=    -0.0000
 curvature:  -0.30 expect dE=-0.352E-01 dE for cont linesearch -0.184E-05
 trial: gam= 2.25021 g(F)=  0.980E-01 g(S)=  0.176E-01 ort = 0.556E-03 (trialstep = 0.125E+00)
 search vector abs. value=  0.377E+00
 bond charge predicted
       N       E                     dE             d eps       ncg     rms          rms(c)
DAV:   1    -0.673128876814E+03   -0.20245E-01   -0.10659E+00 21528   0.227E+00    0.690E-01
RMM:   2    -0.673124256159E+03    0.46207E-02   -0.50974E-02 21712   0.386E-01    0.224E-01
RMM:   3    -0.673122093652E+03    0.21625E-02   -0.49417E-03 22394   0.115E-01    0.893E-02
RMM:   4    -0.673121911301E+03    0.18235E-03   -0.71974E-04 24334   0.381E-02    0.504E-02
RMM:   5    -0.673121906514E+03    0.47872E-05   -0.13176E-04 24099   0.181E-02    0.258E-02
RMM:   6    -0.673121915662E+03   -0.91481E-05   -0.29145E-05 15257   0.947E-03
   4 F= -.67312192E+03 E0= -.67312192E+03  d E =-.132860E-01  mag=    -0.0000
 ZBRENT: can't locate minimum, use default step
 trial-energy change:   -0.013286  1 .order   -0.013364   -0.014573   -0.012156
 step:   0.4988(harm=  0.7519)  dis= 0.00741  next Energy=  -673.152564 (dE=-0.439E-01)
 bond charge predicted
       N       E                     dE             d eps       ncg     rms          rms(c)
DAV:   1    -0.673210422422E+03   -0.88516E-01   -0.96066E+00 20736   0.681E+00    0.208E+00
RMM:   2    -0.673168364891E+03    0.42058E-01   -0.46090E-01 21889   0.117E+00    0.671E-01
RMM:   3    -0.673149333008E+03    0.19032E-01   -0.44451E-02 22582   0.347E-01    0.270E-01
RMM:   4    -0.673147698892E+03    0.16341E-02   -0.68077E-03 24770   0.117E-01    0.152E-01
RMM:   5    -0.673147633909E+03    0.64983E-04   -0.13971E-03 27330   0.558E-02    0.781E-02
RMM:   6    -0.673147675701E+03   -0.41792E-04   -0.39827E-04 26540   0.273E-02    0.120E-02
WARNING in EDDRMM: call to ZHEGV failed, returncode =   6  3      6
RMM:   7    -0.673147684721E+03   -0.90204E-05   -0.13013E-04 20022   0.137E-02    0.555E-03
RMM:   8    -0.673147684610E+03    0.11092E-06   -0.76889E-06 13508   0.888E-03
   5 F= -.67314768E+03 E0= -.67314768E+03  d E =-.390550E-01  mag=     0.0000
 curvature:  -1.02 expect dE=-0.303E-01 dE for cont linesearch -0.480E-02
 ZBRENT: increasing intervall
 opt :   1.2470  next Energy=  -673.137947 (dE=-0.293E-01)
 bond charge predicted
       N       E                     dE             d eps       ncg     rms          rms(c)
DAV:   1    -0.673386909900E+03   -0.23923E+00   -0.38507E+01 20040   0.137E+01    0.419E+00
RMM:   2    -0.673217770191E+03    0.16914E+00   -0.18691E+00 21946   0.235E+00    0.134E+00
RMM:   3    -0.673141908765E+03    0.75861E-01   -0.17450E-01 22573   0.691E-01    0.544E-01
RMM:   4    -0.673135306870E+03    0.66019E-02   -0.27467E-02 24756   0.236E-01    0.304E-01
RMM:   5    -0.673135025251E+03    0.28162E-03   -0.56034E-03 27564   0.112E-01    0.156E-01
RMM:   6    -0.673135139915E+03   -0.11466E-03   -0.15849E-03 27063   0.543E-02    0.218E-02
RMM:   7    -0.673135179133E+03   -0.39218E-04   -0.56188E-04 27056   0.272E-02    0.100E-02
RMM:   8    -0.673135197019E+03   -0.17886E-04   -0.19620E-04 21363   0.157E-02    0.514E-03
RMM:   9    -0.673135198468E+03   -0.14488E-05   -0.14827E-05 14864   0.105E-02
   6 F= -.67313520E+03 E0= -.67313520E+03  d E =-.265688E-01  mag=    -0.0000
 curvature:   2.06 expect dE= 0.330E+00 dE for cont linesearch  0.294E-01
 ZBRENT: bracketing found
 ZBRENT: interpolating
 opt :   0.7722  next Energy=  -673.153459 (dE=-0.448E-01)
 bond charge predicted
       N       E                     dE             d eps       ncg     rms          rms(c)
DAV:   1    -0.673254405766E+03   -0.11921E+00   -0.15499E+01 20616   0.864E+00    0.262E+00
RMM:   2    -0.673187582826E+03    0.66823E-01   -0.73212E-01 21565   0.146E+00    0.861E-01
RMM:   3    -0.673155975863E+03    0.31607E-01   -0.76291E-02 22236   0.450E-01    0.335E-01
RMM:   4    -0.673153316618E+03    0.26592E-02   -0.10322E-02 24358   0.145E-01    0.191E-01
RMM:   5    -0.673153091873E+03    0.22475E-03   -0.20883E-03 26742   0.694E-02    0.998E-02
WARNING in EDDRMM: call to ZHEGV failed, returncode =   6  3     18
WARNING in EDDRMM: call to ZHEGV failed, returncode =   6  3     21
RMM:   6    -0.673153069302E+03    0.22571E-04   -0.55081E-04 25988   0.336E-02    0.161E-02
WARNING in EDDRMM: call to ZHEGV failed, returncode =   8  4      3
WARNING in EDDRMM: call to ZHEGV failed, returncode =   6  3     16
WARNING in EDDRMM: call to ZHEGV failed, returncode =   6  3     16
RMM:   7    -0.673153073283E+03   -0.39809E-05   -0.17074E-04 21860   0.168E-02    0.647E-03
RMM:   8    -0.673153076826E+03   -0.35432E-05   -0.44011E-05 15961   0.984E-03
   7 F= -.67315308E+03 E0= -.67315308E+03  d E =-.444472E-01  mag=     0.0000
 curvature:  -0.40 expect dE=-0.168E-01 dE for cont linesearch -0.144E-05
 trial: gam= 0.39967 g(F)=  0.380E-01 g(S)=  0.353E-02 ort =-0.116E-02 (trialstep = 0.254E+00)
 search vector abs. value=  0.101E+00
 bond charge predicted
       N       E                     dE             d eps       ncg     rms          rms(c)
DAV:   1    -0.673160573972E+03   -0.75007E-02   -0.10322E+00 20784   0.226E+00    0.651E-01
RMM:   2    -0.673160446349E+03    0.12762E-03   -0.34903E-02 23547   0.356E-01    0.249E-01
RMM:   3    -0.673159289013E+03    0.11573E-02   -0.29188E-03 24173   0.988E-02    0.105E-01
WARNING in EDDRMM: call to ZHEGV failed, returncode =   8  4     13
RMM:   4    -0.673159151430E+03    0.13758E-03   -0.53075E-04 25693   0.368E-02    0.475E-02
RMM:   5    -0.673159145208E+03    0.62220E-05   -0.18184E-04 24114   0.208E-02    0.216E-02
RMM:   6    -0.673159150977E+03   -0.57689E-05   -0.58144E-05 19423   0.125E-02
   8 F= -.67315915E+03 E0= -.67315915E+03  d E =-.607415E-02  mag=     0.0000
 trial-energy change:   -0.006074  1 .order   -0.006091   -0.010447   -0.001736
 step:   0.3049(harm=  0.3049)  dis= 0.00278  next Energy=  -673.159341 (dE=-0.626E-02)
 bond charge predicted
       N       E                     dE             d eps       ncg     rms          rms(c)
DAV:   1    -0.673159364247E+03   -0.21904E-03   -0.41017E-02 22464   0.450E-01    0.129E-01
RMM:   2    -0.673159364745E+03   -0.49789E-06   -0.14061E-03 24218   0.725E-02    0.498E-02
WARNING in EDDRMM: call to ZHEGV failed, returncode =   8  4     19
RMM:   3    -0.673159326121E+03    0.38624E-04   -0.15589E-04 23596   0.219E-02    0.211E-02
RMM:   4    -0.673159320252E+03    0.58685E-05   -0.24781E-05 17194   0.104E-02
   9 F= -.67315932E+03 E0= -.67315932E+03  d E =-.624343E-02  mag=     0.0000
 curvature:  -0.37 expect dE=-0.653E-02 dE for cont linesearch -0.164E-05
 trial: gam= 0.40700 g(F)=  0.125E-01 g(S)=  0.497E-02 ort = 0.664E-03 (trialstep = 0.264E+00)
 search vector abs. value=  0.347E-01
 bond charge predicted
       N       E                     dE             d eps       ncg     rms          rms(c)
DAV:   1    -0.673162215332E+03   -0.28892E-02   -0.53097E-01 20736   0.161E+00    0.280E-01
RMM:   2    -0.673163182646E+03   -0.96731E-03   -0.11669E-02 24896   0.215E-01    0.110E-01
RMM:   3    -0.673163034116E+03    0.14853E-03   -0.76263E-04 27771   0.490E-02    0.546E-02
RMM:   4    -0.673163024922E+03    0.91934E-05   -0.24173E-04 25414   0.250E-02    0.136E-02
RMM:   5    -0.673163033497E+03   -0.85750E-05   -0.10304E-04 22106   0.145E-02    0.516E-03
WARNING in EDDRMM: call to ZHEGV failed, returncode =   6  3     21
WARNING in EDDRMM: call to ZHEGV failed, returncode =   6  3     21
RMM:   6    -0.673163033339E+03    0.15858E-06   -0.10531E-05 14356   0.101E-02
  10 F= -.67316303E+03 E0= -.67316303E+03  d E =-.371309E-02  mag=    -0.0000
 trial-energy change:   -0.003713  1 .order   -0.003730   -0.004689   -0.002771
 step:   0.6462(harm=  0.6462)  dis= 0.00529  next Energy=  -673.165051 (dE=-0.573E-02)
 bond charge predicted
       N       E                     dE             d eps       ncg     rms          rms(c)
DAV:   1    -0.673163546283E+03   -0.51279E-03   -0.11120E+00 20736   0.232E+00    0.400E-01
RMM:   2    -0.673165579659E+03   -0.20334E-02   -0.24520E-02 24913   0.311E-01    0.157E-01
RMM:   3    -0.673165268580E+03    0.31108E-03   -0.16199E-03 28572   0.715E-02    0.784E-02
RMM:   4    -0.673165250425E+03    0.18155E-04   -0.53636E-04 28454   0.363E-02    0.200E-02
RMM:   5    -0.673165272350E+03   -0.21925E-04   -0.25620E-04 26979   0.201E-02    0.872E-03
RMM:   6    -0.673165270326E+03    0.20236E-05    0.49795E-06 12557   0.117E-02
  11 F= -.67316527E+03 E0= -.67316527E+03  d E =-.595007E-02  mag=     0.0000
 curvature:  -0.63 expect dE=-0.603E-02 dE for cont linesearch -0.110E-04
 trial: gam= 0.49233 g(F)=  0.876E-02 g(S)=  0.785E-03 ort = 0.777E-03 (trialstep = 0.341E+00)
 search vector abs. value=  0.187E-01
 bond charge predicted
       N       E                     dE             d eps       ncg     rms          rms(c)
DAV:   1    -0.673167605121E+03   -0.23328E-02   -0.43087E-01 20736   0.144E+00    0.186E-01
RMM:   2    -0.673168273923E+03   -0.66880E-03   -0.88413E-03 25064   0.185E-01    0.752E-02
WARNING in EDDRMM: call to ZHEGV failed, returncode =   6  3     14
RMM:   3    -0.673168211927E+03    0.61996E-04   -0.76138E-04 29058   0.462E-02    0.416E-02
RMM:   4    -0.673168206804E+03    0.51229E-05   -0.27744E-04 26842   0.262E-02    0.939E-03
RMM:   5    -0.673168216460E+03   -0.96559E-05   -0.11041E-04 21407   0.145E-02    0.483E-03
RMM:   6    -0.673168218021E+03   -0.15608E-05   -0.21140E-05 15840   0.102E-02
  12 F= -.67316822E+03 E0= -.67316822E+03  d E =-.294769E-02  mag=     0.0000
 trial-energy change:   -0.002948  1 .order   -0.002913   -0.003381   -0.002445
 step:   1.2303(harm=  1.2303)  dis= 0.00849  next Energy=  -673.171375 (dE=-0.610E-02)
 bond charge predicted
       N       E                     dE             d eps       ncg     rms          rms(c)
DAV:   1    -0.673167307617E+03    0.90884E-03   -0.29350E+00 20208   0.377E+00    0.487E-01
RMM:   2    -0.673171790892E+03   -0.44833E-02   -0.59336E-02 25061   0.480E-01    0.195E-01
WARNING in EDDRMM: call to ZHEGV failed, returncode =   6  3     18
RMM:   3    -0.673171338599E+03    0.45229E-03   -0.46280E-03 29754   0.114E-01    0.108E-01
WARNING in EDDRMM: call to ZHEGV failed, returncode =   6  3     16
WARNING in EDDRMM: call to ZHEGV failed, returncode =   6  3     13
RMM:   4    -0.673171269519E+03    0.69080E-04   -0.14897E-03 27479   0.627E-02    0.245E-02
RMM:   5    -0.673171333005E+03   -0.63486E-04   -0.72068E-04 28635   0.326E-02    0.133E-02
RMM:   6    -0.673171356442E+03   -0.23437E-04   -0.22622E-04 26181   0.177E-02    0.694E-03
RMM:   7    -0.673171357561E+03   -0.11189E-05    0.33483E-06 13056   0.108E-02
  13 F= -.67317136E+03 E0= -.67317136E+03  d E =-.608723E-02  mag=    -0.0000
 curvature:  -1.16 expect dE=-0.222E-01 dE for cont linesearch -0.136E-05
 trial: gam= 2.11444 g(F)=  0.178E-01 g(S)=  0.124E-02 ort =-0.148E-03 (trialstep = 0.950E-01)
 search vector abs. value=  0.102E+00
 bond charge predicted
       N       E                     dE             d eps       ncg     rms          rms(c)
DAV:   1    -0.673172563263E+03   -0.12068E-02   -0.19440E-01 22656   0.969E-01    0.139E-01
RMM:   2    -0.673172919008E+03   -0.35574E-03   -0.42116E-03 25166   0.128E-01    0.501E-02
RMM:   3    -0.673172890552E+03    0.28455E-04   -0.36470E-04 27590   0.330E-02    0.270E-02
RMM:   4    -0.673172890120E+03    0.43229E-06   -0.16630E-04 24537   0.202E-02    0.584E-03
RMM:   5    -0.673172889226E+03    0.89405E-06    0.70756E-07 13026   0.121E-02
  14 F= -.67317289E+03 E0= -.67317289E+03  d E =-.153167E-02  mag=    -0.0000
 trial-energy change:   -0.001532  1 .order   -0.001541   -0.001785   -0.001297
 step:   0.3478(harm=  0.3478)  dis= 0.00491  next Energy=  -673.174624 (dE=-0.327E-02)
 bond charge predicted
       N       E                     dE             d eps       ncg     rms          rms(c)
DAV:   1    -0.673172349213E+03    0.54091E-03   -0.13763E+00 20544   0.258E+00    0.372E-01
RMM:   2    -0.673174798208E+03   -0.24490E-02   -0.29244E-02 25156   0.339E-01    0.133E-01
RMM:   3    -0.673174589071E+03    0.20914E-03   -0.23571E-03 29624   0.815E-02    0.722E-02
RMM:   4    -0.673174553094E+03    0.35977E-04   -0.88116E-04 27640   0.467E-02    0.163E-02
RMM:   5    -0.673174589084E+03   -0.35990E-04   -0.42823E-04 27879   0.248E-02    0.952E-03
RMM:   6    -0.673174594029E+03   -0.49445E-05   -0.54554E-05 17304   0.136E-02
  15 F= -.67317459E+03 E0= -.67317459E+03  d E =-.323647E-02  mag=     0.0000
 curvature:  -0.95 expect dE=-0.110E-01 dE for cont linesearch -0.132E-05
 trial: gam= 0.56506 g(F)=  0.998E-02 g(S)=  0.163E-02 ort =-0.377E-03 (trialstep = 0.146E+00)
 search vector abs. value=  0.438E-01
 bond charge predicted
       N       E                     dE             d eps       ncg     rms          rms(c)
DAV:   1    -0.673175923566E+03   -0.13345E-02   -0.19634E-01 20784   0.973E-01    0.126E-01
RMM:   2    -0.673176185720E+03   -0.26215E-03   -0.43667E-03 25164   0.130E-01    0.491E-02
WARNING in EDDRMM: call to ZHEGV failed, returncode =   8  4     18
WARNING in EDDRMM: call to ZHEGV failed, returncode =   6  3     18
RMM:   3    -0.673176164160E+03    0.21560E-04   -0.42026E-04 28606   0.356E-02    0.233E-02
RMM:   4    -0.673176169727E+03   -0.55671E-05   -0.16900E-04 25002   0.187E-02    0.769E-03
RMM:   5    -0.673176166776E+03    0.29503E-05    0.14153E-05 11749   0.117E-02
  16 F= -.67317617E+03 E0= -.67317617E+03  d E =-.157275E-02  mag=    -0.0000
 ZBRENT: can't locate minimum, use default step
 trial-energy change:   -0.001573  1 .order   -0.001590   -0.001660   -0.001520
 step:   0.5823(harm=  1.7345)  dis= 0.00436  next Energy=  -673.184481 (dE=-0.989E-02)
 bond charge predicted
       N       E                     dE             d eps       ncg     rms          rms(c)
DAV:   1    -0.673177369249E+03   -0.11995E-02   -0.17621E+00 20268   0.292E+00    0.376E-01
RMM:   2    -0.673179664511E+03   -0.22953E-02   -0.38298E-02 25092   0.386E-01    0.147E-01
WARNING in EDDRMM: call to ZHEGV failed, returncode =   8  4     22
RMM:   3    -0.673179445775E+03    0.21874E-03   -0.34015E-03 30093   0.985E-02    0.704E-02
RMM:   4    -0.673179448647E+03   -0.28722E-05   -0.10170E-03 30440   0.462E-02    0.250E-02
RMM:   5    -0.673179481649E+03   -0.33002E-04   -0.42617E-04 28106   0.257E-02    0.124E-02
RMM:   6    -0.673179489001E+03   -0.73520E-05   -0.11344E-04 22131   0.149E-02    0.476E-03
RMM:   7    -0.673179489524E+03   -0.52356E-06   -0.28005E-05 16299   0.108E-02
  17 F= -.67317949E+03 E0= -.67317949E+03  d E =-.489550E-02  mag=     0.0000
 curvature:  -1.58 expect dE=-0.136E-01 dE for cont linesearch -0.104E-02
 ZBRENT: increasing intervall
 opt :   1.4559  next Energy=  -673.179735 (dE=-0.514E-02)
 bond charge predicted
       N       E                     dE             d eps       ncg     rms          rms(c)
DAV:   1    -0.673171691653E+03    0.77973E-02   -0.70558E+00 19968   0.584E+00    0.749E-01
RMM:   2    -0.673180790089E+03   -0.90984E-02   -0.15228E-01 25072   0.770E-01    0.296E-01
RMM:   3    -0.673179818343E+03    0.97175E-03   -0.12969E-02 30071   0.193E-01    0.141E-01
RMM:   4    -0.673179792831E+03    0.25512E-04   -0.36395E-03 31079   0.876E-02    0.507E-02
RMM:   5    -0.673179902605E+03   -0.10977E-03   -0.14289E-03 31675   0.478E-02    0.248E-02
RMM:   6    -0.673179945848E+03   -0.43243E-04   -0.52883E-04 28664   0.273E-02    0.965E-03
RMM:   7    -0.673179956489E+03   -0.10641E-04   -0.14069E-04 23610   0.157E-02    0.361E-03
RMM:   8    -0.673179957569E+03   -0.10803E-05   -0.24068E-05 15513   0.107E-02
  18 F= -.67317996E+03 E0= -.67317996E+03  d E =-.536354E-02  mag=     0.0000
 curvature:  -0.37 expect dE=-0.150E-01 dE for cont linesearch -0.162E-03
 ZBRENT: bracketing found
 ZBRENT: interpolating
 opt :   1.0640  next Energy=  -673.180812 (dE=-0.622E-02)
 bond charge predicted
       N       E                     dE             d eps       ncg     rms          rms(c)
DAV:   1    -0.673179201624E+03    0.75486E-03   -0.14218E+00 20064   0.262E+00    0.341E-01
RMM:   2    -0.673180996174E+03   -0.17946E-02   -0.30608E-02 24849   0.345E-01    0.131E-01
RMM:   3    -0.673180740512E+03    0.25566E-03   -0.20780E-03 28422   0.809E-02    0.626E-02
RMM:   4    -0.673180717847E+03    0.22665E-04   -0.55234E-04 27934   0.372E-02    0.208E-02
RMM:   5    -0.673180740830E+03   -0.22983E-04   -0.24653E-04 26516   0.204E-02    0.106E-02
RMM:   6    -0.673180743563E+03   -0.27333E-05   -0.45956E-06 13543   0.118E-02
  19 F= -.67318074E+03 E0= -.67318074E+03  d E =-.614953E-02  mag=     0.0000
 curvature:  -1.97 expect dE=-0.409E-01 dE for cont linesearch -0.693E-05
 trial: gam= 1.77412 g(F)=  0.205E-01 g(S)=  0.278E-03 ort = 0.393E-03 (trialstep = 0.901E-01)
 search vector abs. value=  0.160E+00
 bond charge predicted
       N       E                     dE             d eps       ncg     rms          rms(c)
DAV:   1    -0.673182120230E+03   -0.13794E-02   -0.28285E-01 20640   0.117E+00    0.151E-01
RMM:   2    -0.673182521245E+03   -0.40102E-03   -0.62932E-03 24236   0.155E-01    0.549E-02
RMM:   3    -0.673182443170E+03    0.78075E-04   -0.32976E-04 26495   0.331E-02    0.279E-02
RMM:   4    -0.673182432942E+03    0.10228E-04   -0.94294E-05 20992   0.156E-02    0.798E-03
RMM:   5    -0.673182429428E+03    0.35134E-05    0.64880E-06 12007   0.865E-03
  20 F= -.67318243E+03 E0= -.67318243E+03  d E =-.168587E-02  mag=    -0.0000
 ZBRENT: can't locate minimum, use default step
 trial-energy change:   -0.001686  1 .order   -0.001754   -0.001937   -0.001571
 step:   0.3604(harm=  0.4773)  dis= 0.00473  next Energy=  -673.185872 (dE=-0.513E-02)
 bond charge predicted
       N       E                     dE             d eps       ncg     rms          rms(c)
DAV:   1    -0.673181807654E+03    0.62529E-03   -0.25437E+00 19968   0.352E+00    0.449E-01
RMM:   2    -0.673185368101E+03   -0.35604E-02   -0.55795E-02 25020   0.468E-01    0.165E-01
RMM:   3    -0.673184979227E+03    0.38887E-03   -0.43559E-03 29600   0.113E-01    0.846E-02
RMM:   4    -0.673184938993E+03    0.40234E-04   -0.13546E-03 29479   0.550E-02    0.274E-02
RMM:   5    -0.673184983704E+03   -0.44711E-04   -0.57754E-04 29105   0.301E-02    0.142E-02
RMM:   6    -0.673184998034E+03   -0.14330E-04   -0.20573E-04 26858   0.177E-02    0.507E-03
RMM:   7    -0.673184995449E+03    0.25851E-05    0.10454E-05 12196   0.109E-02
  21 F= -.67318500E+03 E0= -.67318500E+03  d E =-.425189E-02  mag=    -0.0000
 curvature:  -1.62 expect dE=-0.104E-01 dE for cont linesearch -0.127E-03
 ZBRENT: extrapolating
 opt :   0.4297  next Energy=  -673.185118 (dE=-0.437E-02)
 bond charge predicted
       N       E                     dE             d eps       ncg     rms          rms(c)
DAV:   1    -0.673184844305E+03    0.15373E-03   -0.16606E-01 21360   0.901E-01    0.115E-01
RMM:   2    -0.673185086290E+03   -0.24198E-03   -0.37768E-03 25054   0.121E-01    0.418E-02
RMM:   3    -0.673185065731E+03    0.20559E-04   -0.35201E-04 28188   0.323E-02    0.214E-02
RMM:   4    -0.673185068674E+03   -0.29426E-05   -0.14907E-04 24454   0.176E-02    0.667E-03
RMM:   5    -0.673185065911E+03    0.27628E-05    0.11806E-05 11938   0.109E-02
  22 F= -.67318507E+03 E0= -.67318507E+03  d E =-.432235E-02  mag=     0.0000
 curvature:  -1.56 expect dE=-0.134E-01 dE for cont linesearch -0.168E-06
 trial: gam= 0.45674 g(F)=  0.792E-02 g(S)=  0.699E-03 ort = 0.131E-03 (trialstep = 0.158E+00)
 search vector abs. value=  0.421E-01
 bond charge predicted
       N       E                     dE             d eps       ncg     rms          rms(c)
DAV:   1    -0.673185642157E+03   -0.57348E-03   -0.23213E-01 20568   0.107E+00    0.160E-01
RMM:   2    -0.673186107548E+03   -0.46539E-03   -0.54976E-03 25043   0.147E-01    0.523E-02
WARNING in EDDRMM: call to ZHEGV failed, returncode =   8  4     16
RMM:   3    -0.673186071570E+03    0.35978E-04   -0.41493E-04 27980   0.353E-02    0.285E-02
RMM:   4    -0.673186066805E+03    0.47651E-05   -0.18238E-04 24261   0.207E-02    0.636E-03
RMM:   5    -0.673186065611E+03    0.11936E-05   -0.59167E-06 13694   0.121E-02
  23 F= -.67318607E+03 E0= -.67318607E+03  d E =-.999700E-03  mag=     0.0000
 trial-energy change:   -0.001000  1 .order   -0.001050   -0.001371   -0.000730
 step:   0.3380(harm=  0.3380)  dis= 0.00237  next Energy=  -673.186532 (dE=-0.147E-02)
 bond charge predicted
       N       E                     dE             d eps       ncg     rms          rms(c)
DAV:   1    -0.673185913311E+03    0.15349E-03   -0.30185E-01 20448   0.122E+00    0.183E-01
RMM:   2    -0.673186516680E+03   -0.60337E-03   -0.71459E-03 25043   0.168E-01    0.599E-02
RMM:   3    -0.673186468530E+03    0.48150E-04   -0.53768E-04 28499   0.399E-02    0.326E-02
RMM:   4    -0.673186460447E+03    0.80826E-05   -0.22037E-04 24800   0.231E-02    0.738E-03
RMM:   5    -0.673186464614E+03   -0.41672E-05   -0.63862E-05 18387   0.133E-02
  24 F= -.67318646E+03 E0= -.67318646E+03  d E =-.139870E-02  mag=     0.0000
 curvature:  -0.82 expect dE=-0.346E-02 dE for cont linesearch -0.389E-06
 trial: gam= 0.42267 g(F)=  0.373E-02 g(S)=  0.478E-03 ort = 0.141E-03 (trialstep = 0.194E+00)
 search vector abs. value=  0.119E-01
 bond charge predicted
       N       E                     dE             d eps       ncg     rms          rms(c)
DAV:   1    -0.673186989617E+03   -0.52917E-03   -0.95072E-02 21456   0.680E-01    0.935E-02
RMM:   2    -0.673187183137E+03   -0.19352E-03   -0.23015E-03 25049   0.944E-02    0.372E-02
WARNING in EDDRMM: call to ZHEGV failed, returncode =   8  4     22
WARNING in EDDRMM: call to ZHEGV failed, returncode =   8  4     21
WARNING in EDDRMM: call to ZHEGV failed, returncode =   6  3     22
RMM:   3    -0.673187165243E+03    0.17895E-04   -0.15729E-04 24438   0.229E-02    0.205E-02
RMM:   4    -0.673187163562E+03    0.16805E-05   -0.78311E-05 22054   0.147E-02
  25 F= -.67318716E+03 E0= -.67318716E+03  d E =-.698948E-03  mag=    -0.0000
 trial-energy change:   -0.000699  1 .order   -0.000710   -0.000829   -0.000592
 step:   0.6779(harm=  0.6779)  dis= 0.00254  next Energy=  -673.187913 (dE=-0.145E-02)
 bond charge predicted
       N       E                     dE             d eps       ncg     rms          rms(c)
DAV:   1    -0.673186883205E+03    0.28204E-03   -0.59203E-01 20184   0.170E+00    0.234E-01
RMM:   2    -0.673188051072E+03   -0.11679E-02   -0.14048E-02 24950   0.233E-01    0.929E-02
RMM:   3    -0.673187927431E+03    0.12364E-03   -0.88405E-04 28923   0.511E-02    0.516E-02
WARNING in EDDRMM: call to ZHEGV failed, returncode =   6  3     17
RMM:   4    -0.673187901350E+03    0.26081E-04   -0.32166E-04 25640   0.290E-02    0.116E-02
RMM:   5    -0.673187912252E+03   -0.10902E-04   -0.14406E-04 24605   0.153E-02    0.630E-03
RMM:   6    -0.673187911571E+03    0.68077E-06    0.45977E-06 12479   0.961E-03
  26 F= -.67318791E+03 E0= -.67318791E+03  d E =-.144696E-02  mag=     0.0000
 curvature:  -0.94 expect dE=-0.467E-02 dE for cont linesearch -0.502E-06
 trial: gam= 1.18935 g(F)=  0.486E-02 g(S)=  0.109E-03 ort =-0.795E-04 (trialstep = 0.160E+00)
 search vector abs. value=  0.216E-01
 bond charge predicted
       N       E                     dE             d eps       ncg     rms          rms(c)
DAV:   1    -0.673188398025E+03   -0.48577E-03   -0.12117E-01 20664   0.761E-01    0.101E-01
RMM:   2    -0.673188650656E+03   -0.25263E-03   -0.28517E-03 24981   0.104E-01    0.356E-02
RMM:   3    -0.673188634383E+03    0.16273E-04   -0.19687E-04 25060   0.243E-02    0.210E-02
RMM:   4    -0.673188633072E+03    0.13108E-05   -0.94392E-05 21872   0.161E-02
  27 F= -.67318863E+03 E0= -.67318863E+03  d E =-.721501E-03  mag=     0.0000
 ZBRENT: can't locate minimum, use default step
 trial-energy change:   -0.000722  1 .order   -0.000702   -0.000780   -0.000624
 step:   0.6400(harm=  0.7999)  dis= 0.00355  next Energy=  -673.189861 (dE=-0.195E-02)
 bond charge predicted
       N       E                     dE             d eps       ncg     rms          rms(c)
DAV:   1    -0.673187626261E+03    0.10081E-02   -0.10869E+00 20064   0.228E+00    0.304E-01
RMM:   2    -0.673189842170E+03   -0.22159E-02   -0.25325E-02 24855   0.310E-01    0.106E-01
RMM:   3    -0.673189662122E+03    0.18005E-03   -0.15197E-03 28830   0.652E-02    0.632E-02
RMM:   4    -0.673189627169E+03    0.34954E-04   -0.60915E-04 25511   0.403E-02    0.175E-02
RMM:   5    -0.673189645003E+03   -0.17835E-04   -0.26378E-04 26341   0.200E-02    0.937E-03
RMM:   6    -0.673189645632E+03   -0.62850E-06   -0.14137E-05 14794   0.122E-02
  28 F= -.67318965E+03 E0= -.67318965E+03  d E =-.173406E-02  mag=     0.0000
 curvature:  -1.66 expect dE=-0.109E-01 dE for cont linesearch -0.585E-06
 trial: gam= 1.35559 g(F)=  0.577E-02 g(S)=  0.775E-03 ort =-0.872E-04 (trialstep = 0.120E+00)
 search vector abs. value=  0.459E-01
 bond charge predicted
       N       E                     dE             d eps       ncg     rms          rms(c)
DAV:   1    -0.673190154743E+03   -0.50974E-03   -0.13531E-01 20880   0.804E-01    0.915E-02
RMM:   2    -0.673190415863E+03   -0.26112E-03   -0.32120E-03 24925   0.110E-01    0.415E-02
RMM:   3    -0.673190396596E+03    0.19266E-04   -0.23936E-04 26481   0.264E-02    0.244E-02
RMM:   4    -0.673190395365E+03    0.12316E-05   -0.10624E-04 22553   0.165E-02    0.571E-03
RMM:   5    -0.673190393208E+03    0.21568E-05    0.10793E-05 11748   0.987E-03
  29 F= -.67319039E+03 E0= -.67319039E+03  d E =-.747576E-03  mag=    -0.0000
 ZBRENT: can't locate minimum, use default step
 trial-energy change:   -0.000748  1 .order   -0.000724   -0.000773   -0.000675
 step:   0.4806(harm=  0.9525)  dis= 0.00381  next Energy=  -673.192709 (dE=-0.306E-02)
 bond charge predicted
       N       E                     dE             d eps       ncg     rms          rms(c)
DAV:   1    -0.673189507444E+03    0.88792E-03   -0.12114E+00 20016   0.241E+00    0.275E-01
RMM:   2    -0.673191788847E+03   -0.22814E-02   -0.28352E-02 24859   0.327E-01    0.123E-01
RMM:   3    -0.673191587610E+03    0.20124E-03   -0.17715E-03 29286   0.707E-02    0.733E-02
RMM:   4    -0.673191547808E+03    0.39802E-04   -0.61107E-04 25743   0.410E-02    0.180E-02
RMM:   5    -0.673191566876E+03   -0.19068E-04   -0.27633E-04 26369   0.207E-02    0.851E-03
RMM:   6    -0.673191565241E+03    0.16357E-05    0.61033E-07 13025   0.120E-02
  30 F= -.67319157E+03 E0= -.67319157E+03  d E =-.191961E-02  mag=     0.0000
 curvature:  -2.31 expect dE=-0.849E-02 dE for cont linesearch -0.208E-04
 trial: gam= 0.48309 g(F)=  0.347E-02 g(S)=  0.210E-03 ort = 0.643E-03 (trialstep = 0.192E+00)
 search vector abs. value=  0.150E-01
 bond charge predicted
       N       E                     dE             d eps       ncg     rms          rms(c)
DAV:   1    -0.673192052094E+03   -0.48522E-03   -0.11950E-01 20904   0.767E-01    0.122E-01
RMM:   2    -0.673192263650E+03   -0.21156E-03   -0.29969E-03 24969   0.107E-01    0.426E-02
WARNING in EDDRMM: call to ZHEGV failed, returncode =   8  4     14
RMM:   3    -0.673192242780E+03    0.20870E-04   -0.25066E-04 27333   0.273E-02    0.224E-02
RMM:   4    -0.673192243493E+03   -0.71346E-06   -0.11158E-04 23534   0.154E-02    0.632E-03
RMM:   5    -0.673192241095E+03    0.23977E-05    0.90557E-06 12148   0.961E-03
  31 F= -.67319224E+03 E0= -.67319224E+03  d E =-.675855E-03  mag=    -0.0000
 trial-energy change:   -0.000676  1 .order   -0.000670   -0.000767   -0.000572
 step:   0.7569(harm=  0.7569)  dis= 0.00371  next Energy=  -673.193075 (dE=-0.151E-02)
 bond charge predicted
       N       E                     dE             d eps       ncg     rms          rms(c)
DAV:   1    -0.673191121234E+03    0.11223E-02   -0.10249E+00 20016   0.225E+00    0.357E-01
RMM:   2    -0.673192873458E+03   -0.17522E-02   -0.24984E-02 24918   0.310E-01    0.124E-01
WARNING in EDDRMM: call to ZHEGV failed, returncode =   8  4     20
RMM:   3    -0.673192664098E+03    0.20936E-03   -0.17533E-03 29884   0.710E-02    0.658E-02
RMM:   4    -0.673192631673E+03    0.32426E-04   -0.49186E-04 27674   0.350E-02    0.190E-02
RMM:   5    -0.673192647319E+03   -0.15647E-04   -0.23076E-04 26617   0.194E-02    0.874E-03
RMM:   6    -0.673192643541E+03    0.37778E-05    0.10918E-05 12017   0.116E-02
  32 F= -.67319264E+03 E0= -.67319264E+03  d E =-.107830E-02  mag=    -0.0000
 curvature:  -1.42 expect dE=-0.987E-02 dE for cont linesearch -0.237E-03
 ZBRENT: interpolating
 opt :   0.5611  next Energy=  -673.192798 (dE=-0.123E-02)
 bond charge predicted
       N       E                     dE             d eps       ncg     rms          rms(c)
DAV:   1    -0.673192609163E+03    0.38156E-04   -0.12306E-01 20544   0.779E-01    0.125E-01
RMM:   2    -0.673192855552E+03   -0.24639E-03   -0.33537E-03 21298   0.106E-01    0.426E-02
RMM:   3    -0.673192781867E+03    0.73685E-04   -0.12935E-04 23109   0.203E-02    0.221E-02
RMM:   4    -0.673192775156E+03    0.67116E-05   -0.27900E-05 12889   0.915E-03
  33 F= -.67319278E+03 E0= -.67319278E+03  d E =-.120992E-02  mag=    -0.0000
 curvature:  -0.93 expect dE=-0.308E-02 dE for cont linesearch -0.246E-06
 trial: gam= 1.06364 g(F)=  0.285E-02 g(S)=  0.464E-03 ort = 0.630E-04 (trialstep = 0.196E+00)
 search vector abs. value=  0.204E-01
 bond charge predicted
       N       E                     dE             d eps       ncg     rms          rms(c)
DAV:   1    -0.673193027654E+03   -0.24579E-03   -0.16869E-01 20400   0.916E-01    0.104E-01
RMM:   2    -0.673193360488E+03   -0.33283E-03   -0.38950E-03 24868   0.123E-01    0.418E-02
WARNING in EDDRMM: call to ZHEGV failed, returncode =   6  3     18
WARNING in EDDRMM: call to ZHEGV failed, returncode =   8  4     18
WARNING in EDDRMM: call to ZHEGV failed, returncode =   8  4     18
RMM:   3    -0.673193332393E+03    0.28095E-04   -0.19650E-04 26462   0.250E-02    0.253E-02
RMM:   4    -0.672250270592E+03    0.94306E+00    0.94305E+00 21301   0.149E-02    0.836E-01
RMM:   5    -0.672199393972E+03    0.50877E-01   -0.24743E-03 19933   0.163E-01    0.238E-01
RMM:   6    -0.672206911032E+03   -0.75171E-02   -0.13711E-03 19631   0.126E-01    0.209E-01
RMM:   7    -0.672207406622E+03   -0.49559E-03   -0.91440E-05 15476   0.327E-02    0.208E-01
RMM:   8    -0.672207435251E+03   -0.28630E-04   -0.11132E-05 11783   0.125E-02    0.207E-01
RMM:   9    -0.672207417325E+03    0.17926E-04   -0.14031E-05 12055   0.124E-02    0.204E-01
RMM:  10    -0.672207367633E+03    0.49692E-04   -0.16855E-05 12019   0.130E-02    0.198E-01
RMM:  11    -0.672207293529E+03    0.74104E-04   -0.32093E-05 13310   0.138E-02    0.179E-01
RMM:  12    -0.672207243907E+03    0.49623E-04   -0.54311E-05 16071   0.120E-02    0.152E-01
RMM:  13    -0.672207308051E+03   -0.64144E-04   -0.11505E-04 17783   0.227E-02    0.109E-01
RMM:  14    -0.672207296036E+03    0.12015E-04   -0.12415E-04 17934   0.177E-02    0.753E-02
RMM:  15    -0.672207279373E+03    0.16663E-04   -0.15689E-04 18150   0.258E-02    0.629E-02
RMM:  16    -0.672207251281E+03    0.28092E-04   -0.29327E-05 12494   0.127E-02    0.634E-02
RMM:  17    -0.672207260353E+03   -0.90722E-05   -0.58822E-06 11325   0.376E-03
  34 F= -.67220726E+03 E0= -.67220726E+03  d E =0.985515E+00  mag=     0.0009
 ZBRENT: can't locate minimum, use default step
 trial-energy change:    0.985515  1 .order   -0.000619   -0.000660   -0.000577
 step:   0.7820(harm=  1.5589)  dis= 0.00332  next Energy=  -673.195408 (dE=-0.263E-02)
 bond charge predicted
       N       E                     dE             d eps       ncg     rms          rms(c)
DAV:   1    -0.673123251960E+03   -0.91600E+00   -0.15160E+00 20016   0.275E+00    0.373E-01
RMM:   2    -0.673176244038E+03   -0.52992E-01   -0.53801E-01 24843   0.399E-01    0.180E-01
RMM:   3    -0.673188535225E+03   -0.12291E-01   -0.12786E-01 28655   0.916E-02    0.112E-01
RMM:   4    -0.673191925630E+03   -0.33904E-02   -0.37224E-02 28177   0.431E-02    0.564E-02
RMM:   5    -0.673193271406E+03   -0.13458E-02   -0.12998E-02 27150   0.285E-02    0.137E-02
RMM:   6    -0.673193627345E+03   -0.35594E-03   -0.34365E-03 24611   0.164E-02    0.784E-03
RMM:   7    -0.673193717522E+03   -0.90177E-04   -0.88230E-04 12487   0.105E-02    0.431E-03
RMM:   8    -0.673193739982E+03   -0.22460E-04   -0.25525E-04 20855   0.112E-02    0.236E-03
RMM:   9    -0.673193744798E+03   -0.48162E-05   -0.49147E-05 10809   0.850E-03
  35 F= -.67319374E+03 E0= -.67319374E+03  d E =-.969643E-03  mag=     0.0000
 curvature:  -3.18 expect dE=-0.237E-01 dE for cont linesearch -0.109E-03
 ZBRENT: interpolating
 opt :   0.6526  next Energy=  -673.193799 (dE=-0.102E-02)
 bond charge predicted
       N       E                     dE             d eps       ncg     rms          rms(c)
DAV:   1    -0.673193692165E+03    0.47817E-04   -0.74138E-02 20640   0.607E-01    0.694E-02
RMM:   2    -0.673193856893E+03   -0.16473E-03   -0.19167E-03 21881   0.815E-02    0.281E-02
RMM:   3    -0.673193819756E+03    0.37137E-04   -0.58311E-05 18759   0.145E-02    0.168E-02
RMM:   4    -0.673193816158E+03    0.35987E-05   -0.25084E-05 12329   0.894E-03
  36 F= -.67319382E+03 E0= -.67319382E+03  d E =-.104100E-02  mag=     0.0000
 curvature:  -1.58 expect dE=-0.837E-02 dE for cont linesearch -0.178E-05
 trial: gam= 1.50952 g(F)=  0.500E-02 g(S)=  0.297E-03 ort =-0.152E-03 (trialstep = 0.114E+00)
 search vector abs. value=  0.514E-01
 bond charge predicted
       N       E                     dE             d eps       ncg     rms          rms(c)
DAV:   1    -0.673194045898E+03   -0.22614E-03   -0.14491E-01 20388   0.849E-01    0.825E-02
RMM:   2    -0.673194342701E+03   -0.29680E-03   -0.32516E-03 24868   0.113E-01    0.363E-02
WARNING in EDDRMM: call to ZHEGV failed, returncode =   8  4     19
WARNING in EDDRMM: call to ZHEGV failed, returncode =   6  3     15
WARNING in EDDRMM: call to ZHEGV failed, returncode =   6  3     19
RMM:   3    -0.673194321949E+03    0.20752E-04   -0.15913E-04 25126   0.226E-02    0.227E-02
WARNING in EDDRMM: call to ZHEGV failed, returncode =   6  3     19
RMM:   4    -0.673194317038E+03    0.49103E-05   -0.77253E-05 21020   0.144E-02
  37 F= -.67319432E+03 E0= -.67319432E+03  d E =-.500881E-03  mag=     0.0000
 ZBRENT: can't locate minimum, use default step
 trial-energy change:   -0.000501  1 .order   -0.000507   -0.000578   -0.000436
 step:   0.4563(harm=  0.4642)  dis= 0.00303  next Energy=  -673.194991 (dE=-0.118E-02)
 bond charge predicted
       N       E                     dE             d eps       ncg     rms          rms(c)
DAV:   1    -0.673192411590E+03    0.19104E-02   -0.13042E+00 19992   0.255E+00    0.250E-01
RMM:   2    -0.673195130893E+03   -0.27193E-02   -0.29844E-02 24920   0.341E-01    0.110E-01
RMM:   3    -0.673194968795E+03    0.16210E-03   -0.17078E-03 29015   0.716E-02    0.693E-02
WARNING in EDDRMM: call to ZHEGV failed, returncode =   6  3     20
RMM:   4    -0.673194934381E+03    0.34414E-04   -0.68265E-04 25702   0.431E-02    0.198E-02
RMM:   5    -0.673194949325E+03   -0.14943E-04   -0.27765E-04 26627   0.218E-02    0.821E-03
RMM:   6    -0.673194949906E+03   -0.58102E-06   -0.13277E-05 14047   0.126E-02
  38 F= -.67319495E+03 E0= -.67319495E+03  d E =-.113375E-02  mag=     0.0000
 curvature:  -2.35 expect dE=-0.765E-02 dE for cont linesearch -0.216E-06
 trial: gam= 0.48682 g(F)=  0.299E-02 g(S)=  0.255E-03 ort =-0.686E-04 (trialstep = 0.183E+00)
 search vector abs. value=  0.154E-01
 bond charge predicted
       N       E                     dE             d eps       ncg     rms          rms(c)
DAV:   1    -0.673195196876E+03   -0.24755E-03   -0.11253E-01 21264   0.749E-01    0.101E-01
RMM:   2    -0.673195445831E+03   -0.24896E-03   -0.27758E-03 25020   0.104E-01    0.336E-02
WARNING in EDDRMM: call to ZHEGV failed, returncode =   6  3     11
RMM:   3    -0.673195430918E+03    0.14913E-04   -0.21434E-04 25276   0.258E-02    0.200E-02
WARNING in EDDRMM: call to ZHEGV failed, returncode =   6  3     10
RMM:   4    -0.673195430305E+03    0.61372E-06   -0.10512E-04 22577   0.167E-02    0.530E-03
RMM:   5    -0.673195428604E+03    0.17008E-05    0.12609E-05 11648   0.105E-02
  39 F= -.67319543E+03 E0= -.67319543E+03  d E =-.478698E-03  mag=     0.0000
 trial-energy change:   -0.000479  1 .order   -0.000467   -0.000587   -0.000348
 step:   0.4487(harm=  0.4487)  dis= 0.00165  next Energy=  -673.195671 (dE=-0.721E-03)
 bond charge predicted
       N       E                     dE             d eps       ncg     rms          rms(c)
DAV:   1    -0.673195215796E+03    0.21451E-03   -0.23937E-01 20088   0.109E+00    0.148E-01
RMM:   2    -0.673195736336E+03   -0.52054E-03   -0.57851E-03 25020   0.151E-01    0.494E-02
RMM:   3    -0.673195700400E+03    0.35936E-04   -0.41001E-04 28419   0.349E-02    0.293E-02
RMM:   4    -0.673195694953E+03    0.54468E-05   -0.18024E-04 23952   0.213E-02    0.756E-03
RMM:   5    -0.673195695803E+03   -0.84981E-06   -0.23026E-05 15445   0.122E-02
  40 F= -.67319570E+03 E0= -.67319570E+03  d E =-.745897E-03  mag=     0.0000
 curvature:  -1.07 expect dE=-0.227E-02 dE for cont linesearch -0.668E-08
 trial: gam= 0.64952 g(F)=  0.192E-02 g(S)=  0.196E-03 ort = 0.978E-05 (trialstep = 0.236E+00)
 search vector abs. value=  0.861E-02
 bond charge predicted
       N       E                     dE             d eps       ncg     rms          rms(c)
DAV:   1    -0.673195954367E+03   -0.25941E-03   -0.92427E-02 20376   0.681E-01    0.898E-02
RMM:   2    -0.673196143233E+03   -0.18887E-03   -0.21231E-03 25063   0.914E-02    0.376E-02
RMM:   3    -0.673196131731E+03    0.11502E-04   -0.16976E-04 24389   0.238E-02    0.202E-02
RMM:   4    -0.673196134502E+03   -0.27712E-05   -0.88401E-05 22912   0.151E-02
  41 F= -.67319613E+03 E0= -.67319613E+03  d E =-.438700E-03  mag=     0.0000
 trial-energy change:   -0.000439  1 .order   -0.000425   -0.000501   -0.000350
 step:   0.7796(harm=  0.7796)  dis= 0.00263  next Energy=  -673.196524 (dE=-0.829E-03)
 bond charge predicted
       N       E                     dE             d eps       ncg     rms          rms(c)
DAV:   1    -0.673195657693E+03    0.47404E-03   -0.49125E-01 20016   0.157E+00    0.208E-01
RMM:   2    -0.673196615503E+03   -0.95781E-03   -0.10986E-02 25060   0.208E-01    0.861E-02
RMM:   3    -0.673196547498E+03    0.68004E-04   -0.78650E-04 29068   0.485E-02    0.471E-02
RMM:   4    -0.673196540635E+03    0.68631E-05   -0.27975E-04 26762   0.272E-02    0.109E-02
RMM:   5    -0.673196550581E+03   -0.99460E-05   -0.12526E-04 23322   0.151E-02    0.520E-03
RMM:   6    -0.673196550845E+03   -0.26327E-06   -0.90094E-06 13976   0.994E-03
  42 F= -.67319655E+03 E0= -.67319655E+03  d E =-.855042E-03  mag=     0.0000
 curvature:  -1.58 expect dE=-0.511E-02 dE for cont linesearch -0.443E-08
 trial: gam= 1.57911 g(F)=  0.264E-02 g(S)=  0.595E-03 ort =-0.491E-05 (trialstep = 0.120E+00)
 search vector abs. value=  0.247E-01
 bond charge predicted
       N       E                     dE             d eps       ncg     rms          rms(c)
DAV:   1    -0.673196785732E+03   -0.23515E-03   -0.70305E-02 20760   0.594E-01    0.732E-02
RMM:   2    -0.673196910318E+03   -0.12459E-03   -0.15807E-03 25068   0.789E-02    0.306E-02
RMM:   3    -0.673196900603E+03    0.97146E-05   -0.12524E-04 23472   0.207E-02    0.174E-02
RMM:   4    -0.673196901483E+03   -0.87911E-06   -0.66844E-05 22274   0.138E-02
  43 F= -.67319690E+03 E0= -.67319690E+03  d E =-.350638E-03  mag=     0.0000
 ZBRENT: can't locate minimum, use default step
 trial-energy change:   -0.000351  1 .order   -0.000340   -0.000388   -0.000293
 step:   0.4806(harm=  0.4912)  dis= 0.00244  next Energy=  -673.197343 (dE=-0.792E-03)
 bond charge predicted
       N       E                     dE             d eps       ncg     rms          rms(c)
DAV:   1    -0.673196366329E+03    0.53427E-03   -0.63218E-01 19992   0.178E+00    0.218E-01
RMM:   2    -0.673197449770E+03   -0.10834E-02   -0.13736E-02 25059   0.233E-01    0.923E-02
WARNING in EDDRMM: call to ZHEGV failed, returncode =   8  4     21
WARNING in EDDRMM: call to ZHEGV failed, returncode =   8  4     21
RMM:   3    -0.673197353153E+03    0.96617E-04   -0.10029E-03 29344   0.541E-02    0.527E-02
RMM:   4    -0.673197335934E+03    0.17220E-04   -0.36898E-04 26783   0.312E-02    0.121E-02
RMM:   5    -0.673197349663E+03   -0.13729E-04   -0.17674E-04 25606   0.167E-02    0.667E-03
RMM:   6    -0.673197348019E+03    0.16443E-05    0.47561E-06 12365   0.988E-03
  44 F= -.67319735E+03 E0= -.67319735E+03  d E =-.797174E-03  mag=     0.0000
 curvature:  -1.88 expect dE=-0.232E-02 dE for cont linesearch -0.351E-05
 trial: gam= 0.39990 g(F)=  0.112E-02 g(S)=  0.113E-03 ort =-0.215E-03 (trialstep = 0.192E+00)
 search vector abs. value=  0.502E-02
 bond charge predicted
       N       E                     dE             d eps       ncg     rms          rms(c)
DAV:   1    -0.673197505471E+03   -0.15581E-03   -0.35828E-02 22968   0.424E-01    0.749E-02
RMM:   2    -0.673197552590E+03   -0.47119E-04   -0.89774E-04 25078   0.595E-02    0.278E-02
RMM:   3    -0.673197545907E+03    0.66834E-05   -0.91912E-05 22836   0.178E-02
  45 F= -.67319755E+03 E0= -.67319755E+03  d E =-.197888E-03  mag=     0.0000
 trial-energy change:   -0.000198  1 .order   -0.000185   -0.000221   -0.000149
 step:   0.5915(harm=  0.5915)  dis= 0.00106  next Energy=  -673.197689 (dE=-0.341E-03)
 bond charge predicted
       N       E                     dE             d eps       ncg     rms          rms(c)
DAV:   1    -0.673197513380E+03    0.39210E-04   -0.15283E-01 20184   0.876E-01    0.156E-01
RMM:   2    -0.673197697337E+03   -0.18396E-03   -0.36444E-03 25080   0.120E-01    0.585E-02
WARNING in EDDRMM: call to ZHEGV failed, returncode =   8  4     22
WARNING in EDDRMM: call to ZHEGV failed, returncode =   8  4     22
RMM:   3    -0.673197668284E+03    0.29053E-04   -0.37108E-04 28917   0.326E-02    0.270E-02
RMM:   4    -0.673197666479E+03    0.18043E-05   -0.11286E-04 23574   0.162E-02    0.906E-03
RMM:   5    -0.673197663143E+03    0.33364E-05    0.11801E-05 11846   0.104E-02
  46 F= -.67319766E+03 E0= -.67319766E+03  d E =-.315124E-03  mag=     0.0000
 curvature:  -1.29 expect dE=-0.232E-02 dE for cont linesearch -0.202E-09
 trial: gam= 1.58776 g(F)=  0.169E-02 g(S)=  0.111E-03 ort =-0.888E-06 (trialstep = 0.945E-01)
 search vector abs. value=  0.144E-01
 bond charge predicted
       N       E                     dE             d eps       ncg     rms          rms(c)
DAV:   1    -0.673197755114E+03   -0.88635E-04   -0.25477E-02 20736   0.358E-01    0.462E-02
RMM:   2    -0.673197797609E+03   -0.42495E-04   -0.64155E-04 25077   0.500E-02    0.196E-02
RMM:   3    -0.673197795803E+03    0.18065E-05   -0.73468E-05 22813   0.151E-02
  47 F= -.67319780E+03 E0= -.67319780E+03  d E =-.132660E-03  mag=     0.0000
 trial-energy change:   -0.000133  1 .order   -0.000140   -0.000170   -0.000110
 step:   0.2683(harm=  0.2683)  dis= 0.00092  next Energy=  -673.197905 (dE=-0.241E-03)
 bond charge predicted
       N       E                     dE             d eps       ncg     rms          rms(c)
DAV:   1    -0.673197845140E+03   -0.47531E-04   -0.86663E-02 20232   0.658E-01    0.859E-02
RMM:   2    -0.673197971459E+03   -0.12632E-03   -0.20252E-03 25074   0.891E-02    0.373E-02
WARNING in EDDRMM: call to ZHEGV failed, returncode =   6  3     15
RMM:   3    -0.673197957185E+03    0.14274E-04   -0.17388E-04 25117   0.236E-02    0.194E-02
WARNING in EDDRMM: call to ZHEGV failed, returncode =   6  3     22
RMM:   4    -0.673197958523E+03   -0.13381E-05   -0.84783E-05 23075   0.143E-02
  48 F= -.67319796E+03 E0= -.67319796E+03  d E =-.295380E-03  mag=     0.0000
 curvature:  -1.08 expect dE=-0.123E-02 dE for cont linesearch -0.248E-04
 trial: gam=-0.00714 g(F)=  0.104E-02 g(S)=  0.103E-03 ort = 0.577E-03 (trialstep = 0.129E+00)
 search vector abs. value=  0.113E-02
 bond charge predicted
       N       E                     dE             d eps       ncg     rms          rms(c)
DAV:   1    -0.673198072675E+03   -0.11549E-03   -0.38982E-03 23076   0.138E-01    0.492E-02
RMM:   2    -0.673198081198E+03   -0.85229E-05   -0.13375E-04 24483   0.230E-02    0.143E-02
RMM:   3    -0.673198076878E+03    0.43204E-05    0.10213E-05 11648   0.715E-03
  49 F= -.67319808E+03 E0= -.67319808E+03  d E =-.118355E-03  mag=     0.0000
 trial-energy change:   -0.000118  1 .order   -0.000128   -0.000147   -0.000108
 step:   0.4933(harm=  0.4933)  dis= 0.00054  next Energy=  -673.198239 (dE=-0.280E-03)
 bond charge predicted
       N       E                     dE             d eps       ncg     rms          rms(c)
DAV:   1    -0.673198069352E+03    0.11847E-04   -0.29782E-02 20520   0.383E-01    0.133E-01
RMM:   2    -0.673198134380E+03   -0.65029E-04   -0.95816E-04 24567   0.600E-02    0.380E-02
WARNING in EDDRMM: call to ZHEGV failed, returncode =   6  3     19
RMM:   3    -0.673198116923E+03    0.17457E-04   -0.68228E-05 21296   0.141E-02    0.177E-02
WARNING in EDDRMM: call to ZHEGV failed, returncode =   6  3     19
RMM:   4    -0.673198113160E+03    0.37629E-05   -0.18587E-05 14663   0.838E-03
  50 F= -.67319811E+03 E0= -.67319811E+03  d E =-.154637E-03  mag=     0.0000
 curvature:  -0.25 expect dE=-0.353E-03 dE for cont linesearch -0.455E-04
 trial: gam= 0.00000 g(F)=  0.136E-02 g(S)=  0.776E-04 ort =-0.458E-03 (trialstep = 0.160E+00)
 search vector abs. value=  0.144E-02
 bond charge predicted
       N       E                     dE             d eps       ncg     rms          rms(c)
DAV:   1    -0.673198257667E+03   -0.14074E-03   -0.55405E-03 21480   0.162E-01    0.656E-02
RMM:   2    -0.673198271090E+03   -0.13423E-04   -0.23755E-04 23014   0.287E-02    0.231E-02
RMM:   3    -0.673198262335E+03    0.87556E-05   -0.16373E-05 11686   0.729E-03
  51 F= -.67319826E+03 E0= -.67319826E+03  d E =-.149175E-03  mag=     0.0000
 trial-energy change:   -0.000149  1 .order   -0.000148   -0.000229   -0.000066
 step:   0.2242(harm=  0.2242)  dis= 0.00029  next Energy=  -673.198274 (dE=-0.161E-03)
 bond charge predicted
       N       E                     dE             d eps       ncg     rms          rms(c)
DAV:   1    -0.673198270624E+03    0.46645E-06   -0.83972E-04 23064   0.638E-02    0.265E-02
RMM:   2    -0.673198271628E+03   -0.10039E-05   -0.35096E-05 13801   0.117E-02
  52 F= -.67319827E+03 E0= -.67319827E+03  d E =-.158468E-03  mag=     0.0000
 curvature:  -0.11 expect dE=-0.321E-04 dE for cont linesearch -0.240E-06
 trial: gam= 0.23839 g(F)=  0.283E-03 g(S)=  0.359E-05 ort =-0.555E-04 (trialstep = 0.173E+00)
 search vector abs. value=  0.342E-03
 reached required accuracy - stopping structural energy minimisation
