unknown system                          
           1
     5.521558    0.000000    0.000000
     0.000000   13.312980    0.000000
     0.000000   10.635230   16.540545
   Li   P    O 
  20  20  60
Direct configuration=     1
   0.50539300  0.87352200  0.18178000
   0.49460700  0.87352200  0.68178000
   0.51558100  0.11117000  0.06599600
   0.48441900  0.11117000  0.56599600
   0.49421600  0.34704300  0.95054300
   0.50578400  0.34704300  0.45054300
   0.49277600  0.58170300  0.83545200
   0.50722400  0.58170300  0.33545200
   0.00721700  0.72910600  0.75843400
   0.99278300  0.72910600  0.25843400
   0.47880600  0.37573700  0.68171400
   0.52119400  0.37573700  0.18171400
   0.52368700  0.61227500  0.56627000
   0.47631300  0.61227500  0.06627000
   0.46675000  0.84818200  0.44954700
   0.53325000  0.84818200  0.94954700
   0.52226300  0.08452000  0.33298400
   0.47773700  0.08452000  0.83298400
   0.03911100  0.23317100  0.25636600
   0.96088900  0.23317100  0.75636600
   0.81462300  0.99922100  0.99958700
   0.18537700  0.99922100  0.49958700
   0.15668300  0.20561300  0.90672000
   0.84331700  0.20561300  0.40672000
   0.81155600  0.40113700  0.80293900
   0.18844400  0.40113700  0.30293900
   0.17102300  0.59160500  0.69168900
   0.82897700  0.59160500  0.19168900
   0.84026100  0.79159900  0.59175100
   0.15973900  0.79159900  0.09175100
   0.15607000  0.66508000  0.42543300
   0.84393000  0.66508000  0.92543300
   0.82567800  0.86545200  0.32556200
   0.17432200  0.86545200  0.82556200
   0.18772200  0.05632300  0.21354500
   0.81227800  0.05632300  0.71354500
   0.84809900  0.25213400  0.11014400
   0.15190100  0.25213400  0.61014400
   0.19013300  0.45842000  0.01715500
   0.80986700  0.45842000  0.51715500
   0.93100000  0.12998500  0.96458700
   0.06900000  0.12998500  0.46458700
   0.04891300  0.34017900  0.85937200
   0.95108700  0.34017900  0.35937200
   0.91998200  0.51865000  0.72414400
   0.08001800  0.51865000  0.22414400
   0.07331900  0.70690400  0.60774100
   0.92668100  0.70690400  0.10774100
   0.05797800  0.91984800  0.02185200
   0.94202200  0.91984800  0.52185200
   0.92321900  0.74993600  0.40937800
   0.07678100  0.74993600  0.90937800
   0.07815900  0.93677400  0.29059600
   0.92184100  0.93677400  0.79059600
   0.95073500  0.11679900  0.15644500
   0.04926500  0.11679900  0.65644500
   0.08121300  0.32543200  0.05652000
   0.91878700  0.32543200  0.55652000
   0.05530900  0.53637100  0.49567300
   0.94469100  0.53637100  0.99567300
   0.67720500  0.97082700  0.07388900
   0.32279500  0.97082700  0.57388900
   0.68608200  0.99490900  0.93392600
   0.31391800  0.99490900  0.43392600
   0.35642400  0.20462500  0.95865100
   0.64357600  0.20462500  0.45865100
   0.20469500  0.17105600  0.84674300
   0.79530500  0.17105600  0.34674300
   0.64802600  0.43965800  0.84535300
   0.35197400  0.43965800  0.34535300
   0.71821900  0.32258300  0.77541000
   0.28178100  0.32258300  0.27541000
   0.24845400  0.63067000  0.74729500
   0.75154600  0.63067000  0.24729500
   0.34371000  0.52752000  0.66935200
   0.65629000  0.52752000  0.16935200
   0.78487900  0.79058400  0.66715900
   0.21512100  0.79058400  0.16715900
   0.64422300  0.76110500  0.55329200
   0.35577700  0.76110500  0.05329200
   0.35011000  0.69760900  0.46333500
   0.64989000  0.69760900  0.96333500
   0.21400400  0.66508700  0.35060600
   0.78599600  0.66508700  0.85060600
   0.65920700  0.93140600  0.34821500
   0.34079300  0.93140600  0.84821500
   0.74195600  0.82468800  0.27145800
   0.25804400  0.82468800  0.77145800
   0.27426600  0.13528000  0.24162500
   0.72573400  0.13528000  0.74162500
   0.35705000  0.01988000  0.17119900
   0.64295000  0.01988000  0.67119900
   0.79472800  0.28638000  0.17002700
   0.20527200  0.28638000  0.67002700
   0.65270500  0.25700400  0.05564000
   0.34729500  0.25700400  0.55564000
   0.32253000  0.46718100  0.08044100
   0.67747000  0.46718100  0.58044100
   0.32108600  0.48469000  0.94236600
   0.67891400  0.48469000  0.44236600
unknown system                          
           1
     5.515428    0.000000    0.000000
     0.000000   13.295972   -0.011320
     0.000000   10.607578   16.507433
   Li   P    O 
  20  20  60
Direct configuration=     2
   0.50531226  0.87394579  0.18168972
   0.49468774  0.87394579  0.68168972
   0.51496548  0.11123881  0.06595793
   0.48503452  0.11123881  0.56595793
   0.49436751  0.34710662  0.95049240
   0.50563249  0.34710662  0.45049240
   0.49285924  0.58160243  0.83549337
   0.50714076  0.58160243  0.33549337
   0.00722638  0.72906639  0.75852219
   0.99277362  0.72906639  0.25852219
   0.47874288  0.37598960  0.68168864
   0.52125712  0.37598960  0.18168864
   0.52373542  0.61228895  0.56622521
   0.47626458  0.61228895  0.06622521
   0.46730416  0.84807574  0.44960948
   0.53269584  0.84807574  0.94960948
   0.52194442  0.08426192  0.33312949
   0.47805558  0.08426192  0.83312949
   0.03901230  0.23263805  0.25664414
   0.96098770  0.23263805  0.75664414
   0.81455517  0.99929837  0.99967044
   0.18544483  0.99929837  0.49967044
   0.15661854  0.20575145  0.90687374
   0.84338146  0.20575145  0.40687374
   0.81130799  0.40144888  0.80307450
   0.18869201  0.40144888  0.30307450
   0.17082114  0.59176295  0.69174700
   0.82917886  0.59176295  0.19174700
   0.84061802  0.79174875  0.59176158
   0.15938198  0.79174875  0.09176158
   0.15590654  0.66504337  0.42536900
   0.84409346  0.66504337  0.92536900
   0.82584141  0.86533836  0.32544502
   0.17415859  0.86533836  0.82544502
   0.18753483  0.05602173  0.21345834
   0.81246517  0.05602173  0.71345834
   0.84806623  0.25218528  0.10983577
   0.15193377  0.25218528  0.60983577
   0.19025851  0.45859179  0.01703078
   0.80974149  0.45859179  0.51703078
   0.93044375  0.13013693  0.96437399
   0.06955625  0.13013693  0.46437399
   0.04884699  0.34026179  0.85943020
   0.95115301  0.34026179  0.35943020
   0.92002325  0.51858676  0.72420099
   0.07997675  0.51858676  0.22420099
   0.07348240  0.70689672  0.60770762
   0.92651760  0.70689672  0.10770762
   0.05799477  0.91998477  0.02172588
   0.94200523  0.91998477  0.52172588
   0.92312836  0.74993186  0.40935501
   0.07687164  0.74993186  0.90935501
   0.07835690  0.93675112  0.29072737
   0.92164310  0.93675112  0.79072737
   0.95057217  0.11680757  0.15650136
   0.04942783  0.11680757  0.65650136
   0.08145994  0.32553870  0.05637130
   0.91854006  0.32553870  0.55637130
   0.05551152  0.53628247  0.49572092
   0.94448848  0.53628247  0.99572092
   0.67685139  0.97076213  0.07402700
   0.32314861  0.97076213  0.57402700
   0.68526168  0.99459776  0.93385772
   0.31473832  0.99459776  0.43385772
   0.35653583  0.20429728  0.95883415
   0.64346417  0.20429728  0.45883415
   0.20478200  0.17076076  0.84656777
   0.79521800  0.17076076  0.34656777
   0.64750116  0.43952952  0.84548168
   0.35249884  0.43952952  0.34548168
   0.71805170  0.32217369  0.77526103
   0.28194830  0.32217369  0.27526103
   0.24893227  0.63058818  0.74736248
   0.75106773  0.63058818  0.24736248
   0.34455754  0.52723310  0.66919014
   0.65544246  0.52723310  0.16919014
   0.78433454  0.79065074  0.66722126
   0.21566546  0.79065074  0.16722126
   0.64361569  0.76083482  0.55325097
   0.35638431  0.76083482  0.05325097
   0.35103987  0.69776584  0.46349499
   0.64896013  0.69776584  0.96349499
   0.21403529  0.66520442  0.35045633
   0.78596471  0.66520442  0.85045633
   0.65815131  0.93160600  0.34825439
   0.34184869  0.93160600  0.84825439
   0.74183973  0.82488516  0.27118566
   0.25816027  0.82488516  0.77118566
   0.27475801  0.13538906  0.24182344
   0.72524199  0.13538906  0.74182344
   0.35740604  0.02003840  0.17101965
   0.64259396  0.02003840  0.67101965
   0.79418375  0.28653895  0.17026682
   0.20581625  0.28653895  0.67026682
   0.65235691  0.25696498  0.05560820
   0.34764309  0.25696498  0.55560820
   0.32348609  0.46727787  0.08065747
   0.67651391  0.46727787  0.58065747
   0.32182424  0.48495042  0.94224647
   0.67817576  0.48495042  0.44224647
unknown system                          
           1
     5.517897    0.000000    0.000000
     0.000000   13.302822   -0.006761
     0.000000   10.618715   16.520768
   Li   P    O 
  20  20  60
Direct configuration=     3
   0.50534481  0.87377500  0.18172603
   0.49465519  0.87377500  0.68172603
   0.51521365  0.11121108  0.06597327
   0.48478635  0.11121108  0.56597327
   0.49430642  0.34708099  0.95051280
   0.50569358  0.34708099  0.45051280
   0.49282568  0.58164295  0.83547671
   0.50717432  0.58164295  0.33547671
   0.00722260  0.72908234  0.75848661
   0.99277740  0.72908234  0.25848661
   0.47876833  0.37588780  0.68169880
   0.52123167  0.37588780  0.18169880
   0.52371590  0.61228334  0.56624328
   0.47628410  0.61228334  0.06624328
   0.46708073  0.84811856  0.44958430
   0.53291927  0.84811856  0.94958430
   0.52207287  0.08436591  0.33307085
   0.47792713  0.08436591  0.83307085
   0.03905209  0.23285279  0.25653205
   0.96094791  0.23285279  0.75653205
   0.81458252  0.99926717  0.99963675
   0.18541748  0.99926717  0.49963675
   0.15664453  0.20569562  0.90681166
   0.84335547  0.20569562  0.40681166
   0.81140799  0.40132316  0.80301973
   0.18859201  0.40132316  0.30301973
   0.17090253  0.59169928  0.69172355
   0.82909747  0.59169928  0.19172355
   0.84047407  0.79168840  0.59175727
   0.15952593  0.79168840  0.09175727
   0.15597244  0.66505814  0.42539484
   0.84402756  0.66505814  0.92539484
   0.82577553  0.86538418  0.32549226
   0.17422447  0.86538418  0.82549226
   0.18761029  0.05614317  0.21349339
   0.81238971  0.05614317  0.71349339
   0.84807944  0.25216467  0.10996014
   0.15192056  0.25216467  0.60996014
   0.19020791  0.45852258  0.01708086
   0.80979209  0.45852258  0.51708086
   0.93066802  0.13007574  0.96445991
   0.06933198  0.13007574  0.46445991
   0.04887361  0.34022841  0.85940669
   0.95112639  0.34022841  0.35940669
   0.92000662  0.51861224  0.72417801
   0.07999338  0.51861224  0.22417801
   0.07341652  0.70689966  0.60772109
   0.92658348  0.70689966  0.10772109
   0.05798801  0.91992967  0.02177674
   0.94201199  0.91992967  0.52177674
   0.92316491  0.74993353  0.40936429
   0.07683509  0.74993353  0.90936429
   0.07827711  0.93676032  0.29067436
   0.92172289  0.93676032  0.79067436
   0.95063782  0.11680410  0.15647861
   0.04936218  0.11680410  0.65647861
   0.08136038  0.32549573  0.05643128
   0.91863962  0.32549573  0.55643128
   0.05542987  0.53631814  0.49570161
   0.94457013  0.53631814  0.99570161
   0.67699396  0.97078825  0.07397133
   0.32300604  0.97078825  0.57397133
   0.68559242  0.99472322  0.93388536
   0.31440758  0.99472322  0.43388536
   0.35649074  0.20442933  0.95876033
   0.64350926  0.20442933  0.45876033
   0.20474692  0.17087979  0.84663857
   0.79525308  0.17087979  0.34663857
   0.64771277  0.43958128  0.84542979
   0.35228723  0.43958128  0.34542979
   0.71811915  0.32233869  0.77532126
   0.28188085  0.32233869  0.27532126
   0.24873944  0.63062114  0.74733527
   0.75126056  0.63062114  0.24733527
   0.34421582  0.52734876  0.66925554
   0.65578418  0.52734876  0.16925554
   0.78455406  0.79062383  0.66719611
   0.21544594  0.79062383  0.16719611
   0.64386055  0.76094372  0.55326760
   0.35613945  0.76094372  0.05326760
   0.35066496  0.69770260  0.46343038
   0.64933504  0.69770260  0.96343038
   0.21402268  0.66515713  0.35051670
   0.78597732  0.66515713  0.85051670
   0.65857695  0.93152538  0.34823844
   0.34142305  0.93152538  0.84823844
   0.74188661  0.82480575  0.27129551
   0.25811339  0.82480575  0.77129551
   0.27455964  0.13534507  0.24174333
   0.72544036  0.13534507  0.74174333
   0.35726249  0.01997460  0.17109198
   0.64273751  0.01997460  0.67109198
   0.79440319  0.28647484  0.17017000
   0.20559681  0.28647484  0.67017000
   0.65249726  0.25698071  0.05562105
   0.34750274  0.25698071  0.55562105
   0.32310060  0.46723879  0.08057009
   0.67689940  0.46723879  0.58057009
   0.32152659  0.48484548  0.94229463
   0.67847341  0.48484548  0.44229463
unknown system                          
           1
     5.515540    0.000000    0.000000
     0.000000   13.295128   -0.012124
     0.000000   10.605907   16.507668
   Li   P    O 
  20  20  60
Direct configuration=     4
   0.50531170  0.87394395  0.18168887
   0.49468830  0.87394395  0.68168887
   0.51497110  0.11123803  0.06595762
   0.48502890  0.11123803  0.56595762
   0.49436127  0.34710301  0.95049538
   0.50563873  0.34710301  0.45049538
   0.49285888  0.58160623  0.83549260
   0.50714112  0.58160623  0.33549260
   0.00722777  0.72906829  0.75851869
   0.99277223  0.72906829  0.25851869
   0.47874164  0.37598193  0.68169283
   0.52125836  0.37598193  0.18169283
   0.52373460  0.61228640  0.56622827
   0.47626540  0.61228640  0.06622827
   0.46730168  0.84807844  0.44960864
   0.53269832  0.84807844  0.94960864
   0.52194486  0.08426875  0.33312559
   0.47805514  0.08426875  0.83312559
   0.03901149  0.23264130  0.25664209
   0.96098851  0.23264130  0.75664209
   0.81446009  0.99928993  0.99961589
   0.18553991  0.99928993  0.49961589
   0.15660956  0.20570799  0.90678745
   0.84339044  0.20570799  0.40678745
   0.81128921  0.40130715  0.80301042
   0.18871079  0.40130715  0.30301042
   0.17101386  0.59166722  0.69169986
   0.82898614  0.59166722  0.19169986
   0.84045523  0.79172350  0.59172145
   0.15954477  0.79172350  0.09172145
   0.15607329  0.66507104  0.42542051
   0.84392671  0.66507104  0.92542051
   0.82568346  0.86542007  0.32548189
   0.17431654  0.86542007  0.82548189
   0.18760991  0.05613513  0.21350333
   0.81239009  0.05613513  0.71350333
   0.84807854  0.25222172  0.10994314
   0.15192146  0.25222172  0.60994314
   0.19034875  0.45858513  0.01709079
   0.80965125  0.45858513  0.51709079
   0.93042469  0.13014188  0.96438689
   0.06957531  0.13014188  0.46438689
   0.04886805  0.34026990  0.85943939
   0.95113195  0.34026990  0.35943939
   0.92000980  0.51860239  0.72419909
   0.07999020  0.51860239  0.22419909
   0.07348435  0.70690575  0.60770568
   0.92651565  0.70690575  0.10770568
   0.05801250  0.91997983  0.02173259
   0.94198750  0.91997983  0.52173259
   0.92312152  0.74992422  0.40935874
   0.07687848  0.74992422  0.90935874
   0.07835570  0.93673793  0.29072636
   0.92164430  0.93673793  0.79072636
   0.95055676  0.11679709  0.15649072
   0.04944324  0.11679709  0.65649072
   0.08146384  0.32553286  0.05636550
   0.91853616  0.32553286  0.55636550
   0.05551848  0.53628859  0.49571565
   0.94448152  0.53628859  0.99571565
   0.67684990  0.97076292  0.07403820
   0.32315010  0.97076292  0.57403820
   0.68534038  0.99460209  0.93389602
   0.31465962  0.99460209  0.43389602
   0.35659548  0.20430640  0.95885418
   0.64340452  0.20430640  0.45885418
   0.20474279  0.17079413  0.84662366
   0.79525721  0.17079413  0.34662366
   0.64741549  0.43955961  0.84550672
   0.35258451  0.43955961  0.34550672
   0.71814454  0.32226658  0.77529745
   0.28185546  0.32226658  0.27529745
   0.24895221  0.63060854  0.74738831
   0.75104779  0.63060854  0.24738831
   0.34437213  0.52730195  0.66921628
   0.65562787  0.52730195  0.16921628
   0.78434961  0.79065195  0.66723716
   0.21565039  0.79065195  0.16723716
   0.64375526  0.76086108  0.55327517
   0.35624474  0.76086108  0.05327517
   0.35087593  0.69773846  0.46346080
   0.64912407  0.69773846  0.96346080
   0.21404794  0.66519923  0.35043835
   0.78595206  0.66519923  0.85043835
   0.65830680  0.93154499  0.34823287
   0.34169320  0.93154499  0.84823287
   0.74182877  0.82486859  0.27117098
   0.25817123  0.82486859  0.77117098
   0.27468194  0.13531759  0.24179422
   0.72531806  0.13531759  0.74179422
   0.35743979  0.02001539  0.17100621
   0.64256021  0.02001539  0.67100621
   0.79424913  0.28650818  0.17019995
   0.20575087  0.28650818  0.67019995
   0.65227975  0.25696871  0.05557497
   0.34772025  0.25696871  0.55557497
   0.32338266  0.46727503  0.08061295
   0.67661734  0.46727503  0.58061295
   0.32183082  0.48495593  0.94223066
   0.67816918  0.48495593  0.44223066
unknown system                          
           1
     5.508468    0.000000    0.000000
     0.000000   13.272047   -0.028212
     0.000000   10.567483   16.468368
   Li   P    O 
  20  20  60
Direct configuration=     5
   0.50521232  0.87445093  0.18157743
   0.49478768  0.87445093  0.68157743
   0.51424313  0.11131888  0.06591065
   0.48575687  0.11131888  0.56591065
   0.49452589  0.34716909  0.95044310
   0.50547411  0.34716909  0.45044310
   0.49295851  0.58149605  0.83554028
   0.50704149  0.58149605  0.33554028
   0.00724330  0.72902616  0.75861500
   0.99275670  0.72902616  0.25861500
   0.47866152  0.37626443  0.68167499
   0.52133848  0.37626443  0.18167499
   0.52379073  0.61229558  0.56618320
   0.47620927  0.61229558  0.06618320
   0.46796483  0.84795809  0.44968169
   0.53203517  0.84795809  0.94968169
   0.52156067  0.08397722  0.33328985
   0.47843933  0.08397722  0.83328985
   0.03888963  0.23200672  0.25697228
   0.96111037  0.23200672  0.75697228
   0.81409266  0.99935821  0.99955327
   0.18590734  0.99935821  0.49955327
   0.15650460  0.20574508  0.90671476
   0.84349540  0.20574508  0.40671476
   0.81093272  0.40125911  0.80298246
   0.18906728  0.40125911  0.30298246
   0.17134798  0.59157099  0.69162869
   0.82865202  0.59157099  0.19162869
   0.84039868  0.79182879  0.59161395
   0.15960132  0.79182879  0.09161395
   0.15637596  0.66510976  0.42549761
   0.84362404  0.66510976  0.92549761
   0.82540716  0.86552774  0.32545080
   0.17459284  0.86552774  0.82545080
   0.18760877  0.05611099  0.21353316
   0.81239123  0.05611099  0.71353316
   0.84807584  0.25239292  0.10989216
   0.15192416  0.25239292  0.60989216
   0.19077146  0.45877288  0.01712066
   0.80922854  0.45877288  0.51712066
   0.92969437  0.13034031  0.96416774
   0.07030563  0.13034031  0.46416774
   0.04885136  0.34039444  0.85953759
   0.95114864  0.34039444  0.35953759
   0.92001936  0.51857287  0.72426239
   0.07998064  0.51857287  0.22426239
   0.07368790  0.70692403  0.60765941
   0.92631210  0.70692403  0.10765941
   0.05808602  0.92013032  0.02160011
   0.94191398  0.92013032  0.52160011
   0.92299132  0.74989628  0.40934206
   0.07700868  0.74989628  0.90934206
   0.07859159  0.93667079  0.29088245
   0.92140841  0.93667079  0.79088245
   0.95031348  0.11677605  0.15652707
   0.04968652  0.11677605  0.65652707
   0.08177434  0.32564422  0.05616805
   0.91822566  0.32564422  0.55616805
   0.05578444  0.53619994  0.49575779
   0.94421556  0.53619994  0.99575779
   0.67641752  0.97068695  0.07423894
   0.32358248  0.97068695  0.57423894
   0.68458393  0.99423862  0.93392788
   0.31541607  0.99423862  0.43392788
   0.35690983  0.20393760  0.95913584
   0.64309017  0.20393760  0.45913584
   0.20473038  0.17053704  0.84657880
   0.79526962  0.17053704  0.34657880
   0.64652324  0.43949465  0.84573767
   0.35347676  0.43949465  0.34573767
   0.71822072  0.32205015  0.77522591
   0.28177928  0.32205015  0.27522591
   0.24959080  0.63057078  0.74754753
   0.75040920  0.63057078  0.24754753
   0.34484123  0.52716141  0.66909836
   0.65515877  0.52716141  0.16909836
   0.78373598  0.79073639  0.66736041
   0.21626402  0.79073639  0.16736041
   0.64343927  0.76061309  0.55329779
   0.35656073  0.76061309  0.05329779
   0.35150912  0.69784611  0.46355214
   0.64849088  0.69784611  0.96355214
   0.21412378  0.66532550  0.35020316
   0.78587622  0.66532550  0.85020316
   0.65749598  0.93160383  0.34821616
   0.34250402  0.93160383  0.84821616
   0.74165519  0.82505706  0.27079714
   0.25834481  0.82505706  0.77079714
   0.27504902  0.13523517  0.24194699
   0.72495098  0.13523517  0.74194699
   0.35797193  0.02013771  0.17074874
   0.64202807  0.02013771  0.67074874
   0.79378675  0.28660824  0.17028991
   0.20621325  0.28660824  0.67028991
   0.65162694  0.25693264  0.05543661
   0.34837306  0.25693264  0.55543661
   0.32422919  0.46738385  0.08074167
   0.67577081  0.46738385  0.58074167
   0.32274392  0.48528731  0.94203869
   0.67725608  0.48528731  0.44203869
unknown system                          
           1
     5.494325    0.000000    0.000000
     0.000000   13.225885   -0.060387
     0.000000   10.490637   16.389766
   Li   P    O 
  20  20  60
Direct configuration=     6
   0.50501329  0.87546564  0.18135503
   0.49498671  0.87546564  0.68135503
   0.51278532  0.11148064  0.06581665
   0.48721468  0.11148064  0.56581665
   0.49485555  0.34730126  0.95033842
   0.50514445  0.34730126  0.45033842
   0.49315803  0.58127557  0.83563564
   0.50684197  0.58127557  0.33563564
   0.00727440  0.72894202  0.75880798
   0.99272560  0.72894202  0.25880798
   0.47850109  0.37682992  0.68163979
   0.52149891  0.37682992  0.18163979
   0.52390313  0.61231386  0.56609286
   0.47609687  0.61231386  0.06609286
   0.46929283  0.84771729  0.44982791
   0.53070717  0.84771729  0.94982791
   0.52079129  0.08339394  0.33361859
   0.47920871  0.08339394  0.83361859
   0.03864560  0.23073700  0.25763299
   0.96135440  0.23073700  0.75763299
   0.81335685  0.99949477  0.99942788
   0.18664315  0.99949477  0.49942788
   0.15629440  0.20581920  0.90656912
   0.84370560  0.20581920  0.40656912
   0.81021882  0.40116288  0.80292632
   0.18978118  0.40116288  0.30292632
   0.17201710  0.59137821  0.69148584
   0.82798290  0.59137821  0.19148584
   0.84028543  0.79203938  0.59139863
   0.15971457  0.79203938  0.09139863
   0.15698209  0.66518743  0.42565226
   0.84301791  0.66518743  0.92565226
   0.82485384  0.86574323  0.32538868
   0.17514616  0.86574323  0.82538868
   0.18760649  0.05606274  0.21359291
   0.81239351  0.05606274  0.71359291
   0.84807043  0.25273554  0.10979029
   0.15192957  0.25273554  0.60979029
   0.19161797  0.45914880  0.01718091
   0.80838203  0.45914880  0.51718091
   0.92823186  0.13073711  0.96372877
   0.07176814  0.13073711  0.46372877
   0.04881794  0.34064394  0.85973472
   0.95118206  0.34064394  0.35973472
   0.92003850  0.51851389  0.72438923
   0.07996150  0.51851389  0.22438923
   0.07409554  0.70696053  0.60756668
   0.92590446  0.70696053  0.10756668
   0.05823323  0.92043133  0.02133480
   0.94176677  0.92043133  0.52133480
   0.92273057  0.74984031  0.40930858
   0.07726943  0.74984031  0.90930858
   0.07906398  0.93653670  0.29119523
   0.92093602  0.93653670  0.79119523
   0.94982629  0.11673401  0.15659990
   0.05017371  0.11673401  0.65659990
   0.08239616  0.32586678  0.05577241
   0.91760384  0.32586678  0.55577241
   0.05631703  0.53602255  0.49584209
   0.94368297  0.53602255  0.99584209
   0.67555166  0.97053529  0.07464125
   0.32444834  0.97053529  0.57464125
   0.68306908  0.99351104  0.93399106
   0.31693092  0.99351104  0.43399106
   0.35753933  0.20319985  0.95969977
   0.64246067  0.20319985  0.45969977
   0.20470552  0.17002230  0.84648836
   0.79529448  0.17002230  0.34648836
   0.64473647  0.43936507  0.84620056
   0.35526353  0.43936507  0.34620056
   0.71837328  0.32161675  0.77508205
   0.28162672  0.32161675  0.27508205
   0.25086962  0.63049549  0.74786668
   0.74913038  0.63049549  0.24786668
   0.34578065  0.52687984  0.66886169
   0.65421935  0.52687984  0.16886169
   0.78250715  0.79090568  0.66760768
   0.21749285  0.79090568  0.16760768
   0.64280647  0.76011667  0.55334266
   0.35719353  0.76011667  0.05334266
   0.35277712  0.69806181  0.46373549
   0.64722288  0.69806181  0.96373549
   0.21427564  0.66557782  0.34973190
   0.78572436  0.66557782  0.84973190
   0.65587228  0.93172159  0.34818277
   0.34412772  0.93172159  0.84818277
   0.74130757  0.82543360  0.27004806
   0.25869243  0.82543360  0.77004806
   0.27578412  0.13507047  0.24225309
   0.72421588  0.13507047  0.74225309
   0.35903757  0.02038208  0.17023280
   0.64096243  0.02038208  0.67023280
   0.79286082  0.28680875  0.17047045
   0.20713918  0.28680875  0.67047045
   0.65031966  0.25686016  0.05515916
   0.34968034  0.25686016  0.55515916
   0.32592442  0.46760194  0.08099993
   0.67407558  0.46760194  0.58099993
   0.32457246  0.48595033  0.94165448
   0.67542754  0.48595033  0.44165448
unknown system                          
           1
     5.503299    0.000000    0.000000
     0.000000   13.255176   -0.039971
     0.000000   10.539398   16.439641
   Li   P    O 
  20  20  60
Direct configuration=     7
   0.50513990  0.87482082  0.18149556
   0.49486010  0.87482082  0.68149556
   0.51371272  0.11137792  0.06587638
   0.48628728  0.11137792  0.56587638
   0.49464583  0.34721737  0.95040500
   0.50535417  0.34721737  0.45040500
   0.49303110  0.58141562  0.83557511
   0.50696890  0.58141562  0.33557511
   0.00725462  0.72899527  0.75868504
   0.99274538  0.72899527  0.25868504
   0.47860315  0.37647045  0.68166153
   0.52139685  0.37647045  0.18166153
   0.52383162  0.61230235  0.56615044
   0.47616838  0.61230235  0.06615044
   0.46844801  0.84787019  0.44973499
   0.53155199  0.84787019  0.94973499
   0.52128074  0.08376435  0.33340972
   0.47871926  0.08376435  0.83340972
   0.03880085  0.23154338  0.25721332
   0.96119915  0.23154338  0.75721332
   0.81382494  0.99940811  0.99950766
   0.18617506  0.99940811  0.49950766
   0.15642812  0.20577227  0.90666189
   0.84357188  0.20577227  0.40666189
   0.81067297  0.40122413  0.80296223
   0.18932703  0.40122413  0.30296223
   0.17159143  0.59150095  0.69157716
   0.82840857  0.59150095  0.19157716
   0.84035747  0.79190577  0.59153565
   0.15964253  0.79190577  0.09153565
   0.15659649  0.66513785  0.42555356
   0.84340351  0.66513785  0.92555356
   0.82520584  0.86560631  0.32542802
   0.17479416  0.86560631  0.82542802
   0.18760794  0.05609334  0.21355488
   0.81239206  0.05609334  0.71355488
   0.84807387  0.25251785  0.10985481
   0.15192613  0.25251785  0.60985481
   0.19107945  0.45890974  0.01714203
   0.80892055  0.45890974  0.51714203
   0.92916225  0.13048540  0.96400815
   0.07083775  0.13048540  0.46400815
   0.04883920  0.34048507  0.85960872
   0.95116080  0.34048507  0.35960872
   0.92002632  0.51855123  0.72430844
   0.07997368  0.51855123  0.22430844
   0.07383622  0.70693744  0.60762575
   0.92616378  0.70693744  0.10762575
   0.05813958  0.92024030  0.02150358
   0.94186042  0.92024030  0.52150358
   0.92289645  0.74987594  0.40933000
   0.07710355  0.74987594  0.90933000
   0.07876347  0.93662155  0.29099597
   0.92123653  0.93662155  0.79099597
   0.95013622  0.11676065  0.15655352
   0.04986378  0.11676065  0.65655352
   0.08200058  0.32572579  0.05602438
   0.91799942  0.32572579  0.55602438
   0.05597822  0.53613522  0.49578856
   0.94402178  0.53613522  0.99578856
   0.67610249  0.97063120  0.07438494
   0.32389751  0.97063120  0.57438494
   0.68403277  0.99397352  0.93395169
   0.31596723  0.99397352  0.43395169
   0.35713887  0.20366816  0.95934114
   0.64286113  0.20366816  0.45934114
   0.20472133  0.17034966  0.84654666
   0.79527867  0.17034966  0.34654666
   0.64587314  0.43944686  0.84590560
   0.35412686  0.43944686  0.34590560
   0.71827623  0.32189247  0.77517431
   0.28172377  0.32189247  0.27517431
   0.25005608  0.63054295  0.74766329
   0.74994392  0.63054295  0.24766329
   0.34518303  0.52705915  0.66901294
   0.65481697  0.52705915  0.16901294
   0.78328888  0.79079774  0.66744982
   0.21671112  0.79079774  0.16744982
   0.64320903  0.76043221  0.55331467
   0.35679097  0.76043221  0.05331467
   0.35197047  0.69792445  0.46361832
   0.64802953  0.69792445  0.96361832
   0.21417903  0.66541801  0.35003205
   0.78582097  0.66541801  0.85003205
   0.65690522  0.93164677  0.34820391
   0.34309478  0.93164677  0.84820391
   0.74152871  0.82519517  0.27052518
   0.25847129  0.82519517  0.77052518
   0.27531648  0.13517479  0.24205813
   0.72468352  0.13517479  0.74205813
   0.35835965  0.02022738  0.17056144
   0.64164035  0.02022738  0.67056144
   0.79344986  0.28668105  0.17035509
   0.20655014  0.28668105  0.67035509
   0.65115130  0.25690659  0.05533615
   0.34884870  0.25690659  0.55533615
   0.32484598  0.46746296  0.08083500
   0.67515402  0.46746296  0.58083500
   0.32340922  0.48552930  0.94189861
   0.67659078  0.48552930  0.44189861
unknown system                          
           1
     5.501620    0.000000    0.000000
     0.000000   13.250653   -0.046895
     0.000000   10.527182   16.429047
   Li   P    O 
  20  20  60
Direct configuration=     8
   0.50508474  0.87501530  0.18144851
   0.49491526  0.87501530  0.68144851
   0.51343201  0.11141255  0.06585308
   0.48656799  0.11141255  0.56585308
   0.49466878  0.34722361  0.95040345
   0.50533122  0.34722361  0.45040345
   0.49308754  0.58141051  0.83558057
   0.50691246  0.58141051  0.33558057
   0.00728326  0.72898554  0.75870087
   0.99271674  0.72898554  0.25870087
   0.47856169  0.37655961  0.68166777
   0.52143831  0.37655961  0.18166777
   0.52387060  0.61230771  0.56614085
   0.47612940  0.61230771  0.06614085
   0.46872289  0.84781899  0.44977001
   0.53127711  0.84781899  0.94977001
   0.52110933  0.08365465  0.33346893
   0.47889067  0.08365465  0.83346893
   0.03873807  0.23127320  0.25734579
   0.96126193  0.23127320  0.75734579
   0.81342051  0.99934206  0.99956934
   0.18657949  0.99934206  0.49956934
   0.15661926  0.20572864  0.90669654
   0.84338074  0.20572864  0.40669654
   0.81038879  0.40115427  0.80299594
   0.18961121  0.40115427  0.30299594
   0.17195353  0.59146888  0.69160944
   0.82804647  0.59146888  0.19160944
   0.84009445  0.79189209  0.59159488
   0.15990555  0.79189209  0.09159488
   0.15687710  0.66518273  0.42549772
   0.84312290  0.66518273  0.92549772
   0.82493723  0.86562375  0.32536664
   0.17506277  0.86562375  0.82536664
   0.18795820  0.05612513  0.21353207
   0.81204180  0.05612513  0.71353207
   0.84776631  0.25257109  0.10982897
   0.15223369  0.25257109  0.60982897
   0.19146270  0.45896971  0.01706523
   0.80853730  0.45896971  0.51706523
   0.92874164  0.13059383  0.96394228
   0.07125836  0.13059383  0.46394228