    9    9    1    2
  0.1129649E+02  0.5055550E-09  0.5008229E-09  0.5114825E-09  0.5000000E-15
  1.000000000000000E-004
  CAR 
 unknown system                          
     51    197     34
 
  0.0000000E+00  0.0000000E+00  0.0000000E+00  0.2551020E-02
    1      -44.339877    -44.339598   1.000000   1.000000
    2      -25.598229    -25.597975   1.000000   1.000000
    3      -24.522286    -24.522796   1.000000   1.000000
    4      -24.360724    -24.360676   1.000000   1.000000
    5      -23.789885    -23.786819   1.000000   1.000000
    6      -14.691339    -14.691189   1.000000   1.000000
    7      -13.916698    -13.916686   1.000000   1.000000
    8      -13.767029    -13.763691   1.000000   1.000000
    9      -12.934487    -12.933988   1.000000   1.000000
   10       -8.100021     -8.099978   1.000000   1.000000
   11       -7.669339     -7.668543   1.000000   1.000000
   12       -7.594517     -7.594386   1.000000   1.000000
   13       -7.064148     -7.064149   1.000000   1.000000
   14       -6.450567     -6.449647   1.000000   1.000000
   15       -6.184945     -6.182564   1.000000   1.000000
   16       -5.981770     -5.980829   1.000000   1.000000
   17       -5.926993     -5.926778   1.000000   1.000000
   18       -3.948472     -3.947270   1.000000   1.000000
   19       -3.822947     -3.820410   1.000000   1.000000
   20       -3.672701     -3.671217   1.000000   1.000000
   21       -3.516686     -3.516830   1.000000   1.000000
   22       -1.688285     -1.688253   1.000000   1.000000
   23       -1.547526     -1.545856   1.000000   1.000000
   24       -0.955460     -0.955685   1.000000   1.000000
   25       -0.153428     -0.150386   1.000000   1.000000
   26        1.496735      1.501302   0.000000   0.000000
   27        1.626954      1.628403   0.000000   0.000000
   28        1.672508      1.672672   0.000000   0.000000
   29        1.945514      1.945104   0.000000   0.000000
   30        7.171258      7.169773   0.000000   0.000000
   31        7.379655      7.383123   0.000000   0.000000
   32        8.779012      8.777309   0.000000   0.000000
   33        8.873322      8.873805   0.000000   0.000000
   34        9.071910      9.073641   0.000000   0.000000
 
  0.1250000E+00  0.4014495E-17 -0.5398406E-14  0.5102041E-02
    1      -44.339875    -44.339596   1.000000   1.000000
    2      -25.595793    -25.595538   1.000000   1.000000
    3      -24.523980    -24.524505   1.000000   1.000000
    4      -24.362123    -24.362054   1.000000   1.000000
    5      -23.790251    -23.787194   1.000000   1.000000
    6      -14.742527    -14.742332   1.000000   1.000000
    7      -13.886665    -13.886615   1.000000   1.000000
    8      -13.745120    -13.741880   1.000000   1.000000
    9      -12.932581    -12.932064   1.000000   1.000000
   10       -8.069923     -8.069902   1.000000   1.000000
   11       -7.683965     -7.683117   1.000000   1.000000
   12       -7.510896     -7.510828   1.000000   1.000000
   13       -7.066582     -7.066537   1.000000   1.000000
   14       -6.491252     -6.490631   1.000000   1.000000
   15       -6.277059     -6.274751   1.000000   1.000000
   16       -5.953110     -5.952363   1.000000   1.000000
   17       -5.923426     -5.922659   1.000000   1.000000
   18       -3.947432     -3.946194   1.000000   1.000000
   19       -3.820193     -3.817707   1.000000   1.000000
   20       -3.671185     -3.669707   1.000000   1.000000
   21       -3.514009     -3.514136   1.000000   1.000000
   22       -1.683887     -1.683860   1.000000   1.000000
   23       -1.520635     -1.518989   1.000000   1.000000
   24       -0.961010     -0.961199   1.000000   1.000000
   25       -0.186922     -0.183918   1.000000   1.000000
   26        1.492796      1.497363   0.000000   0.000000
   27        1.620214      1.621675   0.000000   0.000000
   28        1.674569      1.674759   0.000000   0.000000
   29        1.941547      1.941135   0.000000   0.000000
   30        7.390984      7.389806   0.000000   0.000000
   31        7.476080      7.479600   0.000000   0.000000
   32        7.783872      7.783406   0.000000   0.000000
   33        9.042326      9.042329   0.000000   0.000000
   34        9.684631      9.685104   0.000000   0.000000
 
  0.2500000E+00  0.2583793E-16  0.3774172E-14  0.5102041E-02
    1      -44.339834    -44.339556   1.000000   1.000000
    2      -25.589740    -25.589483   1.000000   1.000000
    3      -24.527973    -24.528535   1.000000   1.000000
    4      -24.365173    -24.365052   1.000000   1.000000
    5      -23.791165    -23.788125   1.000000   1.000000
    6      -14.861597    -14.861324   1.000000   1.000000
    7      -13.811119    -13.811038   1.000000   1.000000
    8      -13.688726    -13.685598   1.000000   1.000000
    9      -12.932755    -12.932224   1.000000   1.000000
   10       -8.033234     -8.033244   1.000000   1.000000
   11       -7.719835     -7.718988   1.000000   1.000000
   12       -7.282539     -7.282632   1.000000   1.000000
   13       -7.042132     -7.041884   1.000000   1.000000
   14       -6.608821     -6.608762   1.000000   1.000000
   15       -6.430875     -6.428496   1.000000   1.000000
   16       -5.963393     -5.962256   1.000000   1.000000
   17       -5.910016     -5.909166   1.000000   1.000000
   18       -3.944358     -3.943031   1.000000   1.000000
   19       -3.813491     -3.811140   1.000000   1.000000
   20       -3.667401     -3.665926   1.000000   1.000000
   21       -3.507648     -3.507738   1.000000   1.000000
   22       -1.667027     -1.666994   1.000000   1.000000
   23       -1.442761     -1.441209   1.000000   1.000000
   24       -0.971341     -0.971442   1.000000   1.000000
   25       -0.266114     -0.263171   1.000000   1.000000
   26        1.484611      1.489198   0.000000   0.000000
   27        1.608319      1.609847   0.000000   0.000000
   28        1.675145      1.675333   0.000000   0.000000
   29        1.931654      1.931229   0.000000   0.000000
   30        6.568816      6.569500   0.000000   0.000000
   31        7.872240      7.874569   0.000000   0.000000
   32        7.956939      7.955545   0.000000   0.000000
   33        9.260124      9.260832   0.000000   0.000000
   34        9.903485      9.905723   0.000000   0.000000
 
  0.3750000E+00 -0.1571981E-16 -0.1628630E-14  0.5102041E-02
    1      -44.339790    -44.339511   1.000000   1.000000
    2      -25.583675    -25.583416   1.000000   1.000000
    3      -24.531947    -24.532545   1.000000   1.000000
    4      -24.368124    -24.367951   1.000000   1.000000
    5      -23.792089    -23.789067   1.000000   1.000000
    6      -14.974963    -14.974639   1.000000   1.000000
    7      -13.731108    -13.731189   1.000000   1.000000
    8      -13.626621    -13.623317   1.000000   1.000000
    9      -12.941448    -12.940973   1.000000   1.000000
   10       -8.016769     -8.016794   1.000000   1.000000
   11       -7.746942     -7.746111   1.000000   1.000000
   12       -7.151047     -7.151214   1.000000   1.000000
   13       -6.878548     -6.878271   1.000000   1.000000
   14       -6.749861     -6.750108   1.000000   1.000000
   15       -6.556497     -6.553997   1.000000   1.000000
   16       -5.968930     -5.967486   1.000000   1.000000
   17       -5.939655     -5.938852   1.000000   1.000000
   18       -3.940653     -3.939229   1.000000   1.000000
   19       -3.806621     -3.804421   1.000000   1.000000
   20       -3.663463     -3.661977   1.000000   1.000000
   21       -3.501406     -3.501460   1.000000   1.000000
   22       -1.642726     -1.642672   1.000000   1.000000
   23       -1.349238     -1.347834   1.000000   1.000000
   24       -0.977600     -0.977611   1.000000   1.000000
   25       -0.342739     -0.339811   1.000000   1.000000
   26        1.478480      1.483138   0.000000   0.000000
   27        1.599314      1.600860   0.000000   0.000000
   28        1.672493      1.672684   0.000000   0.000000
   29        1.921218      1.920763   0.000000   0.000000
   30        5.721740      5.722284   0.000000   0.000000
   31        8.315136      8.317740   0.000000   0.000000
   32        8.497286      8.495598   0.000000   0.000000
   33        9.284437      9.285881   0.000000   0.000000
   34        9.903251      9.904631   0.000000   0.000000
 
  0.5000000E+00  0.6508666E-16  0.7379349E-16  0.2551020E-02
    1      -44.339775    -44.339496   1.000000   1.000000
    2      -25.581221    -25.580960   1.000000   1.000000
    3      -24.533673    -24.534288   1.000000   1.000000
    4      -24.369328    -24.369132   1.000000   1.000000
    5      -23.792538    -23.789523   1.000000   1.000000
    6      -15.020404    -15.020063   1.000000   1.000000
    7      -13.696589    -13.696846   1.000000   1.000000
    8      -13.598619    -13.595094   1.000000   1.000000
    9      -12.948278    -12.947861   1.000000   1.000000
   10       -8.011204     -8.011235   1.000000   1.000000
   11       -7.754504     -7.753682   1.000000   1.000000
   12       -7.133177     -7.133274   1.000000   1.000000
   13       -6.828629     -6.828908   1.000000   1.000000
   14       -6.752967     -6.752964   1.000000   1.000000
   15       -6.603944     -6.601257   1.000000   1.000000
   16       -5.969589     -5.968604   1.000000   1.000000
   17       -5.960818     -5.959493   1.000000   1.000000
   18       -3.938988     -3.937522   1.000000   1.000000
   19       -3.803704     -3.801571   1.000000   1.000000
   20       -3.661797     -3.660303   1.000000   1.000000
   21       -3.498852     -3.498891   1.000000   1.000000
   22       -1.630783     -1.630717   1.000000   1.000000
   23       -1.306656     -1.305332   1.000000   1.000000
   24       -0.979232     -0.979202   1.000000   1.000000
   25       -0.373582     -0.370645   1.000000   1.000000
   26        1.476661      1.481368   0.000000   0.000000
   27        1.595965      1.597491   0.000000   0.000000
   28        1.670849      1.671053   0.000000   0.000000
   29        1.916719      1.916247   0.000000   0.000000
   30        5.407606      5.408124   0.000000   0.000000
   31        8.602445      8.604834   0.000000   0.000000
   32        8.717493      8.716509   0.000000   0.000000
   33        9.102337      9.103038   0.000000   0.000000
   34        9.945574      9.945325   0.000000   0.000000
 
 -0.9013151E-18  0.1428571E+00 -0.1266773E-14  0.5102041E-02
    1      -44.339884    -44.339605   1.000000   1.000000
    2      -25.582631    -25.582368   1.000000   1.000000
    3      -24.524732    -24.525582   1.000000   1.000000
    4      -24.369571    -24.369162   1.000000   1.000000
    5      -23.801634    -23.798601   1.000000   1.000000
    6      -14.674353    -14.674246   1.000000   1.000000
    7      -13.914649    -13.914841   1.000000   1.000000
    8      -13.783880    -13.780244   1.000000   1.000000
    9      -12.948685    -12.948243   1.000000   1.000000
   10       -8.055816     -8.055760   1.000000   1.000000
   11       -7.636052     -7.635284   1.000000   1.000000
   12       -7.525322     -7.525268   1.000000   1.000000
   13       -6.982525     -6.982500   1.000000   1.000000
   14       -6.485772     -6.484654   1.000000   1.000000
   15       -6.206541     -6.204502   1.000000   1.000000
   16       -5.964925     -5.964257   1.000000   1.000000
   17       -5.960498     -5.959925   1.000000   1.000000
   18       -4.001052     -3.998135   1.000000   1.000000
   19       -3.888855     -3.887916   1.000000   1.000000
   20       -3.733980     -3.732793   1.000000   1.000000
   21       -3.581120     -3.580961   1.000000   1.000000
   22       -1.627423     -1.627215   1.000000   1.000000
   23       -1.473750     -1.472403   1.000000   1.000000
   24       -0.872819     -0.873003   1.000000   1.000000
   25       -0.211429     -0.208513   1.000000   1.000000
   26        1.436101      1.441367   0.000000   0.000000
   27        1.544527      1.545759   0.000000   0.000000
   28        1.666621      1.666394   0.000000   0.000000
   29        1.892070      1.891822   0.000000   0.000000
   30        7.214541      7.213187   0.000000   0.000000
   31        7.357152      7.360524   0.000000   0.000000
   32        8.510457      8.509920   0.000000   0.000000
   33        8.901920      8.901821   0.000000   0.000000
   34        9.386236      9.387412   0.000000   0.000000
 
  0.1250000E+00  0.1428571E+00 -0.6671019E-14  0.5102041E-02
    1      -44.339868    -44.339589   1.000000   1.000000
    2      -25.581925    -25.581661   1.000000   1.000000
    3      -24.525471    -24.526299   1.000000   1.000000
    4      -24.368989    -24.368600   1.000000   1.000000
    5      -23.802488    -23.799455   1.000000   1.000000
    6      -14.686363    -14.686216   1.000000   1.000000
    7      -13.904101    -13.905419   1.000000   1.000000
    8      -13.791580    -13.786842   1.000000   1.000000
    9      -12.939907    -12.939473   1.000000   1.000000
   10       -8.043862     -8.043824   1.000000   1.000000
   11       -7.632497     -7.631731   1.000000   1.000000
   12       -7.507526     -7.507449   1.000000   1.000000
   13       -7.012093     -7.012038   1.000000   1.000000
   14       -6.477106     -6.475941   1.000000   1.000000
   15       -6.212508     -6.210473   1.000000   1.000000
   16       -5.985051     -5.984836   1.000000   1.000000
   17       -5.942026     -5.941094   1.000000   1.000000
   18       -3.995943     -3.992844   1.000000   1.000000
   19       -3.890240     -3.889558   1.000000   1.000000
   20       -3.736600     -3.735311   1.000000   1.000000
   21       -3.580646     -3.580502   1.000000   1.000000
   22       -1.615190     -1.614986   1.000000   1.000000
   23       -1.464663     -1.463293   1.000000   1.000000
   24       -0.881762     -0.881908   1.000000   1.000000
   25       -0.217624     -0.214662   1.000000   1.000000
   26        1.437849      1.443027   0.000000   0.000000
   27        1.532334      1.533393   0.000000   0.000000
   28        1.672875      1.672734   0.000000   0.000000
   29        1.890379      1.890152   0.000000   0.000000
   30        7.144385      7.143453   0.000000   0.000000
   31        7.446364      7.449362   0.000000   0.000000
   32        8.248514      8.248323   0.000000   0.000000
   33        9.030816      9.030995   0.000000   0.000000
   34        9.526250      9.526699   0.000000   0.000000
 
  0.2500000E+00  0.1428571E+00  0.2500460E-14  0.5102041E-02
    1      -44.339832    -44.339553   1.000000   1.000000
    2      -25.577121    -25.576855   1.000000   1.000000
    3      -24.528482    -24.529326   1.000000   1.000000
    4      -24.371084    -24.370668   1.000000   1.000000
    5      -23.803704    -23.800685   1.000000   1.000000
    6      -14.782283    -14.782044   1.000000   1.000000
    7      -13.853545    -13.855420   1.000000   1.000000
    8      -13.745617    -13.740395   1.000000   1.000000
    9      -12.934621    -12.934193   1.000000   1.000000
   10       -7.991078     -7.991081   1.000000   1.000000
   11       -7.656772     -7.656016   1.000000   1.000000
   12       -7.336019     -7.335981   1.000000   1.000000
   13       -7.034306     -7.034087   1.000000   1.000000
   14       -6.547848     -6.547197   1.000000   1.000000
   15       -6.332557     -6.330478   1.000000   1.000000
   16       -5.995308     -5.994867   1.000000   1.000000
   17       -5.925022     -5.923940   1.000000   1.000000
   18       -3.991532     -3.988231   1.000000   1.000000
   19       -3.888974     -3.888598   1.000000   1.000000
   20       -3.731979     -3.730586   1.000000   1.000000
   21       -3.575586     -3.575441   1.000000   1.000000
   22       -1.589501     -1.589369   1.000000   1.000000
   23       -1.413291     -1.411915   1.000000   1.000000
   24       -0.894288     -0.894336   1.000000   1.000000
   25       -0.279454     -0.276502   1.000000   1.000000
   26        1.432874      1.437907   0.000000   0.000000
   27        1.517464      1.518582   0.000000   0.000000
   28        1.674503      1.674383   0.000000   0.000000
   29        1.882696      1.882485   0.000000   0.000000
   30        7.059152      7.059988   0.000000   0.000000
   31        7.411330      7.411062   0.000000   0.000000
   32        7.882675      7.884071   0.000000   0.000000
   33        9.217172      9.217363   0.000000   0.000000
   34       10.015204     10.016250   0.000000   0.000000
 
  0.3750000E+00  0.1428571E+00 -0.2919002E-14  0.5102041E-02
    1      -44.339798    -44.339519   1.000000   1.000000
    2      -25.571046    -25.570778   1.000000   1.000000
    3      -24.532090    -24.532976   1.000000   1.000000
    4      -24.374533    -24.374058   1.000000   1.000000
    5      -23.804586    -23.801585   1.000000   1.000000
    6      -14.901694    -14.901390   1.000000   1.000000
    7      -13.782266    -13.784062   1.000000   1.000000
    8      -13.673566    -13.668414   1.000000   1.000000
    9      -12.942479    -12.942114   1.000000   1.000000
   10       -7.962796     -7.962817   1.000000   1.000000
   11       -7.691411     -7.690671   1.000000   1.000000
   12       -7.152065     -7.152177   1.000000   1.000000
   13       -6.934168     -6.933717   1.000000   1.000000
   14       -6.678212     -6.678099   1.000000   1.000000
   15       -6.465579     -6.463461   1.000000   1.000000
   16       -6.010709     -6.009481   1.000000   1.000000
   17       -5.941494     -5.940754   1.000000   1.000000
   18       -3.989742     -3.986357   1.000000   1.000000
   19       -3.885418     -3.885192   1.000000   1.000000
   20       -3.723000     -3.721565   1.000000   1.000000
   21       -3.569109     -3.568948   1.000000   1.000000
   22       -1.561048     -1.560942   1.000000   1.000000
   23       -1.331830     -1.330578   1.000000   1.000000
   24       -0.897724     -0.897675   1.000000   1.000000
   25       -0.359399     -0.356446   1.000000   1.000000
   26        1.427942      1.432976   0.000000   0.000000
   27        1.505867      1.507108   0.000000   0.000000
   28        1.670119      1.669950   0.000000   0.000000
   29        1.871828      1.871605   0.000000   0.000000
   30        6.080482      6.081043   0.000000   0.000000
   31        7.895668      7.895971   0.000000   0.000000
   32        8.389027      8.390017   0.000000   0.000000
   33        9.309629      9.311086   0.000000   0.000000
   34       10.062593     10.064075   0.000000   0.000000
 
  0.5000000E+00  0.1428571E+00  0.6254263E-14  0.5102041E-02
    1      -44.339778    -44.339499   1.000000   1.000000
    2      -25.567349    -25.567079   1.000000   1.000000
    3      -24.534170    -24.535103   1.000000   1.000000
    4      -24.377313    -24.376783   1.000000   1.000000
    5      -23.804627    -23.801639   1.000000   1.000000
    6      -14.975977    -14.975653   1.000000   1.000000
    7      -13.726796    -13.728182   1.000000   1.000000
    8      -13.624555    -13.619765   1.000000   1.000000
    9      -12.956495    -12.956198   1.000000   1.000000
   10       -7.956412     -7.956440   1.000000   1.000000
   11       -7.718215     -7.717483   1.000000   1.000000
   12       -7.094735     -7.094755   1.000000   1.000000
   13       -6.808432     -6.808509   1.000000   1.000000
   14       -6.734874     -6.734659   1.000000   1.000000
   15       -6.561961     -6.559722   1.000000   1.000000
   16       -6.028091     -6.026518   1.000000   1.000000
   17       -5.947306     -5.946675   1.000000   1.000000
   18       -3.990867     -3.987540   1.000000   1.000000
   19       -3.882209     -3.881923   1.000000   1.000000
   20       -3.715446     -3.714047   1.000000   1.000000
   21       -3.565302     -3.565118   1.000000   1.000000
   22       -1.548391     -1.548283   1.000000   1.000000
   23       -1.273003     -1.271898   1.000000   1.000000
   24       -0.890475     -0.890381   1.000000   1.000000
   25       -0.411231     -0.408259   1.000000   1.000000
   26        1.428353      1.433773   0.000000   0.000000
   27        1.501290      1.502392   0.000000   0.000000
   28        1.662187      1.661922   0.000000   0.000000
   29        1.863003      1.862744   0.000000   0.000000
   30        5.541187      5.541713   0.000000   0.000000
   31        8.448025      8.448272   0.000000   0.000000
   32        8.634472      8.635864   0.000000   0.000000
   33        9.136474      9.137110   0.000000   0.000000
   34       10.120550     10.116638   0.000000   0.000000
 
 -0.3750000E+00  0.1428571E+00  0.4701600E-15  0.5102041E-02
    1      -44.339790    -44.339511   1.000000   1.000000
    2      -25.568082    -25.567812   1.000000   1.000000
    3      -24.533482    -24.534435   1.000000   1.000000
    4      -24.377927    -24.377376   1.000000   1.000000
    5      -23.803756    -23.800768   1.000000   1.000000
    6      -14.965714    -14.965407   1.000000   1.000000
    7      -13.734914    -13.735018   1.000000   1.000000
    8      -13.622566    -13.619114   1.000000   1.000000
    9      -12.960175    -12.959812   1.000000   1.000000
   10       -7.966610     -7.966622   1.000000   1.000000
   11       -7.728829     -7.728100   1.000000   1.000000
   12       -7.064752     -7.064874   1.000000   1.000000
   13       -6.812869     -6.812914   1.000000   1.000000
   14       -6.751033     -6.750849   1.000000   1.000000
   15       -6.573047     -6.570765   1.000000   1.000000
   16       -6.030596     -6.028947   1.000000   1.000000
   17       -5.925210     -5.924592   1.000000   1.000000
   18       -3.994852     -3.991683   1.000000   1.000000
   19       -3.881502     -3.880996   1.000000   1.000000
   20       -3.713647     -3.712338   1.000000   1.000000
   21       -3.566190     -3.565990   1.000000   1.000000
   22       -1.563120     -1.563022   1.000000   1.000000
   23       -1.284966     -1.283855   1.000000   1.000000
   24       -0.881802     -0.881738   1.000000   1.000000
   25       -0.406487     -0.403555   1.000000   1.000000
   26        1.429042      1.434740   0.000000   0.000000
   27        1.510363      1.511419   0.000000   0.000000
   28        1.656006      1.655645   0.000000   0.000000
   29        1.863472      1.863194   0.000000   0.000000
   30        5.600045      5.600584   0.000000   0.000000
   31        8.320401      8.322345   0.000000   0.000000
   32        8.743641      8.742440   0.000000   0.000000
   33        9.222645      9.224024   0.000000   0.000000
   34       10.116665     10.118968   0.000000   0.000000
 
 -0.2500000E+00  0.1428571E+00 -0.4916910E-14  0.5102041E-02
    1      -44.339823    -44.339544   1.000000   1.000000
    2      -25.572822    -25.572554   1.000000   1.000000
    3      -24.530413    -24.531349   1.000000   1.000000
    4      -24.375935    -24.375412   1.000000   1.000000
    5      -23.802505    -23.799504   1.000000   1.000000
    6      -14.875880    -14.875626   1.000000   1.000000
    7      -13.802930    -13.802154   1.000000   1.000000
    8      -13.664495    -13.661986   1.000000   1.000000
    9      -12.955854    -12.955388   1.000000   1.000000
   10       -7.984582     -7.984569   1.000000   1.000000
   11       -7.712496     -7.711755   1.000000   1.000000
   12       -7.139312     -7.139526   1.000000   1.000000
   13       -6.923216     -6.922837   1.000000   1.000000
   14       -6.685941     -6.685883   1.000000   1.000000
   15       -6.486368     -6.484155   1.000000   1.000000
   16       -6.014415     -6.012986   1.000000   1.000000
   17       -5.897341     -5.896661   1.000000   1.000000
   18       -4.000137     -3.997153   1.000000   1.000000
   19       -3.883277     -3.882491   1.000000   1.000000
   20       -3.718068     -3.716859   1.000000   1.000000
   21       -3.570934     -3.570735   1.000000   1.000000
   22       -1.594798     -1.594706   1.000000   1.000000
   23       -1.359522     -1.358280   1.000000   1.000000
   24       -0.876661     -0.876690   1.000000   1.000000
   25       -0.346746     -0.343888   1.000000   1.000000
   26        1.428721      1.434303   0.000000   0.000000
   27        1.529123      1.530402   0.000000   0.000000
   28        1.654975      1.654579   0.000000   0.000000
   29        1.873832      1.873557   0.000000   0.000000
   30        6.237207      6.237851   0.000000   0.000000
   31        7.856558      7.858330   0.000000   0.000000
   32        8.440563      8.439355   0.000000   0.000000
   33        9.276746      9.274890   0.000000   0.000000
   34       10.078476     10.099619   0.000000   0.000000
 
 -0.1250000E+00  0.1428571E+00  0.4229287E-14  0.5102041E-02
    1      -44.339877    -44.339598   1.000000   1.000000
    2      -25.578892    -25.578627   1.000000   1.000000
    3      -24.526855    -24.527749   1.000000   1.000000
    4      -24.372547    -24.372082   1.000000   1.000000
    5      -23.801675    -23.798655   1.000000   1.000000
    6      -14.754723    -14.754554   1.000000   1.000000
    7      -13.876707    -13.876066   1.000000   1.000000
    8      -13.731084    -13.728373   1.000000   1.000000
    9      -12.952973    -12.952498   1.000000   1.000000
   10       -8.013641     -8.013606   1.000000   1.000000
   11       -7.671541     -7.670783   1.000000   1.000000
   12       -7.379754     -7.379744   1.000000   1.000000
   13       -6.966848     -6.966741   1.000000   1.000000
   14       -6.563718     -6.563135   1.000000   1.000000
   15       -6.337804     -6.335672   1.000000   1.000000
   16       -5.988774     -5.987966   1.000000   1.000000
   17       -5.906042     -5.905168   1.000000   1.000000
   18       -4.003053     -4.000178   1.000000   1.000000
   19       -3.886146     -3.885173   1.000000   1.000000
   20       -3.726227     -3.725071   1.000000   1.000000
   21       -3.576995     -3.576814   1.000000   1.000000
   22       -1.620822     -1.620688   1.000000   1.000000
   23       -1.437949     -1.436612   1.000000   1.000000
   24       -0.873001     -0.873134   1.000000   1.000000
   25       -0.265408     -0.262558   1.000000   1.000000
   26        1.431119      1.436515   0.000000   0.000000
   27        1.543838      1.545208   0.000000   0.000000
   28        1.659335      1.658997   0.000000   0.000000
   29        1.885880      1.885618   0.000000   0.000000
   30        7.227568      7.229466   0.000000   0.000000
   31        7.484779      7.485028   0.000000   0.000000
   32        7.861932      7.861328   0.000000   0.000000
   33        9.052995      9.053171   0.000000   0.000000
   34        9.969012      9.970562   0.000000   0.000000
 
  0.1162498E-17  0.2857143E+00 -0.2562511E-14  0.5102041E-02
    1      -44.339872    -44.339593   1.000000   1.000000
    2      -25.545395    -25.545106   1.000000   1.000000
    3      -24.539666    -24.541254   1.000000   1.000000
    4      -24.380862    -24.379668   1.000000   1.000000
    5      -23.828925    -23.825965   1.000000   1.000000
    6      -14.632357    -14.632373   1.000000   1.000000
    7      -13.926593    -13.926887   1.000000   1.000000
    8      -13.807719    -13.803733   1.000000   1.000000
    9      -12.981714    -12.981407   1.000000   1.000000
   10       -7.949543     -7.949455   1.000000   1.000000
   11       -7.577835     -7.577335   1.000000   1.000000
   12       -7.313646     -7.313569   1.000000   1.000000
   13       -6.827866     -6.827570   1.000000   1.000000
   14       -6.566543     -6.565224   1.000000   1.000000
   15       -6.260021     -6.258861   1.000000   1.000000
   16       -6.002122     -6.002230   1.000000   1.000000
   17       -5.895480     -5.893859   1.000000   1.000000
   18       -4.344743     -4.341595   1.000000   1.000000
   19       -4.039052     -4.037919   1.000000   1.000000
   20       -3.826558     -3.826195   1.000000   1.000000
   21       -3.615611     -3.614715   1.000000   1.000000
   22       -1.532758     -1.532170   1.000000   1.000000
   23       -1.195559     -1.195042   1.000000   1.000000
   24       -0.742828     -0.742460   1.000000   1.000000
   25       -0.278701     -0.276552   1.000000   1.000000
   26        1.084145      1.088140  -0.028340  -0.031443
   27        1.470253      1.472977   0.000000   0.000000
   28        1.637451      1.637513   0.000000   0.000000
   29        1.815833      1.815792   0.000000   0.000000
   30        7.287335      7.289481   0.000000   0.000000
   31        7.340200      7.340242   0.000000   0.000000
   32        8.217256      8.216469   0.000000   0.000000
   33        8.892423      8.892650   0.000000   0.000000
   34        9.924910      9.926815   0.000000   0.000000
 
  0.1250000E+00  0.2857143E+00  0.6597138E-14  0.5102041E-02
    1      -44.339855    -44.339576   1.000000   1.000000
    2      -25.545843    -25.545554   1.000000   1.000000
    3      -24.538957    -24.540512   1.000000   1.000000
    4      -24.379861    -24.378703   1.000000   1.000000
    5      -23.830065    -23.827101   1.000000   1.000000
    6      -14.617774    -14.617762   1.000000   1.000000
    7      -13.957079    -13.958015   1.000000   1.000000
    8      -13.804697    -13.800057   1.000000   1.000000
    9      -12.969718    -12.969441   1.000000   1.000000
   10       -7.968500     -7.968429   1.000000   1.000000
   11       -7.569835     -7.569346   1.000000   1.000000
   12       -7.322757     -7.322621   1.000000   1.000000
   13       -6.872456     -6.872255   1.000000   1.000000
   14       -6.529665     -6.527838   1.000000   1.000000
   15       -6.201830     -6.201113   1.000000   1.000000
   16       -5.991545     -5.992154   1.000000   1.000000
   17       -5.924560     -5.922481   1.000000   1.000000
   18       -4.356314     -4.353148   1.000000   1.000000
   19       -4.029666     -4.028562   1.000000   1.000000
   20       -3.824559     -3.824159   1.000000   1.000000
   21       -3.620145     -3.619240   1.000000   1.000000