 vasp.6.1.2 22Jul20 (build Mar 20 2021 11:25:07) complex                        
  
 executed on             LinuxIFC date 2021.04.05  18:27:25
 running on   12 total cores
 distrk:  each k-point on   12 cores,    1 groups
 distr:  one band on NCORE=   6 cores,    2 groups


--------------------------------------------------------------------------------------------------------


 INCAR:
 POTCAR:    PAW_PBE Li_sv 10Sep2004               
 POTCAR:    PAW_PBE O 08Apr2002                   
 POTCAR:    PAW_PBE Li_sv 10Sep2004               
   VRHFIN =Li: 1s2s2p                                                                               
   LEXCH  = PE                                                                                      
   EATOM  =   202.7858 eV,   14.9043 Ry                                                             
                                                                                                    
   TITEL  = PAW_PBE Li_sv 10Sep2004                                                                 
   LULTRA =        F    use ultrasoft PP ?                                                          
   IUNSCR =        0    unscreen: 0-lin 1-nonlin 2-no                                               
   RPACOR =    0.000    partial core radius                                                         
   POMASS =    7.010; ZVAL   =    3.000    mass and valenz                                          
   RCORE  =    1.700    outmost cutoff radius                                                       
   RWIGS  =    2.050; RWIGS  =    1.085    wigner-seitz radius (au A)                               
   ENMAX  =  499.034; ENMIN  =  374.276 eV                                                          
   ICORE  =        2    local potential                                                             
   LCOR   =        T    correct aug charges                                                         
   LPAW   =        T    paw PP                                                                      
   EAUG   =  628.945                                                                                
   RMAX   =    1.732    core radius for proj-oper                                                   
   RAUG   =    1.300    factor for augmentation sphere                                              
   RDEP   =    1.728    radius for radial grids                                                     
   RDEPT  =    1.329    core radius for aug-charge                                                  
                                                                                                    
   Atomic configuration                                                                             
    4 entries                                                                                       
     n  l   j            E        occ.                                                              
     1  0  0.50       -51.8549   2.0000                                                             
     2  0  0.50        -2.8742   1.0000                                                             
     2  1  0.50        -1.3606   0.0000                                                             
     3  2  1.50        -1.3606   0.0000                                                             
   Description                                                                                      
     l       E           TYP  RCUT    TYP  RCUT                                                     
     0    -51.8548813     23  1.400                                                                 
     0     -2.8742052     23  1.700                                                                 
     1     -1.3605826     23  1.400                                                                 
     2     -1.3605826     23  1.400                                                                 
  local pseudopotential read in
  atomic valenz-charges read in
  non local Contribution for L=           0  read in
    real space projection operators read in
  non local Contribution for L=           0  read in
    real space projection operators read in
  non local Contribution for L=           1  read in
    real space projection operators read in
    PAW grid and wavefunctions read in
 
   number of l-projection  operators is LMAX  =           3
   number of lm-projection operators is LMMAX =           5
 
 POTCAR:    PAW_PBE O 08Apr2002                   
   VRHFIN =O: s2p4                                                                                  
   LEXCH  = PE                                                                                      
   EATOM  =   432.3788 eV,   31.7789 Ry                                                             
                                                                                                    
   TITEL  = PAW_PBE O 08Apr2002                                                                     
   LULTRA =        F    use ultrasoft PP ?                                                          
   IUNSCR =        1    unscreen: 0-lin 1-nonlin 2-no                                               
   RPACOR =    1.200    partial core radius                                                         
   POMASS =   16.000; ZVAL   =    6.000    mass and valenz                                          
   RCORE  =    1.520    outmost cutoff radius                                                       
   RWIGS  =    1.550; RWIGS  =    0.820    wigner-seitz radius (au A)                               
   ENMAX  =  400.000; ENMIN  =  300.000 eV                                                          
   ICORE  =        2    local potential                                                             
   LCOR   =        T    correct aug charges                                                         
   LPAW   =        T    paw PP                                                                      
   EAUG   =  605.392                                                                                
   DEXC   =    0.000                                                                                
   RMAX   =    1.553    core radius for proj-oper                                                   
   RAUG   =    1.300    factor for augmentation sphere                                              
   RDEP   =    1.550    radius for radial grids                                                     
   RDEPT  =    1.329    core radius for aug-charge                                                  
                                                                                                    
   Atomic configuration                                                                             
    4 entries                                                                                       
     n  l   j            E        occ.                                                              
     1  0  0.50      -514.6923   2.0000                                                             
     2  0  0.50       -23.9615   2.0000                                                             
     2  1  0.50        -9.0305   4.0000                                                             
     3  2  1.50        -9.5241   0.0000                                                             
   Description                                                                                      
     l       E           TYP  RCUT    TYP  RCUT                                                     
     0    -23.9615318     23  1.200                                                                 
     0     -9.5240782     23  1.200                                                                 
     1     -9.0304911     23  1.520                                                                 
     1      8.1634956     23  1.520                                                                 
     2     -9.5240782      7  1.500                                                                 
  local pseudopotential read in
  partial core-charges read in
  partial kinetic energy density read in
  kinetic energy density of atom read in
  atomic valenz-charges read in
  non local Contribution for L=           0  read in
    real space projection operators read in
  non local Contribution for L=           0  read in
    real space projection operators read in
  non local Contribution for L=           1  read in
    real space projection operators read in
  non local Contribution for L=           1  read in
    real space projection operators read in
    PAW grid and wavefunctions read in
 
   number of l-projection  operators is LMAX  =           4
   number of lm-projection operators is LMMAX =           8
 
 Optimization of the real space projectors (new method)

 maximal supplied QI-value         = 22.11
 optimisation between [QCUT,QGAM] = [ 11.50, 23.22] = [ 37.02,150.92] Ry 
 Optimized for a Real-space Cutoff    1.08 Angstroem

   l    n(q)    QCUT    max X(q) W(low)/X(q) W(high)/X(q)  e(spline) 
   0      7    11.497    10.506    0.36E-04    0.62E-04    0.14E-07
   0      7    11.497     8.367    0.65E-04    0.14E-03    0.28E-07
   1      7    11.497     8.983    0.21E-03    0.43E-03    0.90E-07
 Optimization of the real space projectors (new method)

 maximal supplied QI-value         = 24.76
 optimisation between [QCUT,QGAM] = [ 11.64, 23.27] = [ 37.91,151.63] Ry 
 Optimized for a Real-space Cutoff    1.14 Angstroem

   l    n(q)    QCUT    max X(q) W(low)/X(q) W(high)/X(q)  e(spline) 
   0      8    11.635    20.381    0.10E-03    0.33E-03    0.24E-06
   0      8    11.635    15.268    0.11E-03    0.35E-03    0.26E-06
   1      7    11.635     5.964    0.24E-03    0.31E-03    0.30E-06
   1      7    11.635     5.382    0.22E-03    0.25E-03    0.26E-06
  PAW_PBE Li_sv 10Sep2004               :
 energy of atom  1       EATOM= -202.7858
 kinetic energy error for atom=    0.0130 (will be added to EATOM!!)
  PAW_PBE O 08Apr2002                   :
 energy of atom  2       EATOM= -432.3788
 kinetic energy error for atom=    0.0208 (will be added to EATOM!!)
 
 
 POSCAR: Li1 O8
  positions in direct lattice
  No initial velocities read in
 exchange correlation table for  LEXCH =        8
   RHO(1)=    0.500       N(1)  =     2000
   RHO(2)=  100.500       N(2)  =     4000
 


--------------------------------------------------------------------------------------------------------


 ion  position               nearest neighbor table
   1  0.496  0.804  0.804-   7 2.06   9 2.08   4 2.14   5 2.19   3 2.22   2 2.25
   2  0.842  0.333  0.820-   3 1.28   1 2.25
   3  0.151  0.233  0.700-   2 1.28   1 2.22
   4  0.151  0.700  0.233-   5 1.28   1 2.14
   5  0.842  0.820  0.333-   4 1.28   1 2.19
   6  0.838  0.256  0.256-   8 1.26
   7  0.154  0.741  0.741-   9 1.29   1 2.06
   8  0.142  0.153  0.153-   6 1.26
   9  0.844  0.865  0.865-   7 1.29   1 2.08
 
  LATTYP: Found a triclinic cell.
 ALAT       =     8.0680260451
 B/A-ratio  =     1.2621279393
 C/A-ratio  =     2.4253892493
 COS(alpha) =     0.0018161532
 COS(beta)  =     0.4823468264
 COS(gamma) =     0.8745690818
  
  Lattice vectors:
  
 A1 = (  -3.5737710000,   4.7628950000,  -5.4438990000)
 A2 = (  -1.8776330000,   9.2159980000,  -3.9026840000)
 A3 = (  -9.2538000000,  -8.2559470000, -15.1366180000)


Analysis of symmetry for initial positions (statically):
=====================================================================
 Subroutine PRICEL returns:
 Original cell was already a primitive cell.
 

 Routine SETGRP: Setting up the symmetry group for a 
 triclinic supercell.


 Subroutine GETGRP returns: Found  1 space group operations
 (whereof  1 operations were pure point group operations)
 out of a pool of  2 trial point group operations.


The static configuration has the point symmetry C_1 .


Analysis of symmetry for dynamics (positions and initial velocities):
=====================================================================
 Subroutine PRICEL returns:
 Original cell was already a primitive cell.
 

 Routine SETGRP: Setting up the symmetry group for a 
 triclinic supercell.


 Subroutine GETGRP returns: Found  1 space group operations
 (whereof  1 operations were pure point group operations)
 out of a pool of  2 trial point group operations.


The dynamic configuration has the point symmetry C_1 .


Analysis of structural, dynamic, and magnetic symmetry:
=====================================================================
 Subroutine PRICEL returns:
 Original cell was already a primitive cell.
 

 Routine SETGRP: Setting up the symmetry group for a 
 triclinic supercell.


 Subroutine GETGRP returns: Found  1 space group operations
 (whereof  1 operations were pure point group operations)
 out of a pool of  2 trial point group operations.


The magnetic configuration has the point symmetry C_1 .


 Subroutine INISYM returns: Found  1 space group operations
 (whereof  1 operations are pure point group operations),
 and found     1 'primitive' translations


----------------------------------------------------------------------------------------

                                     Primitive cell                                     

  volume of cell :     101.6684

  direct lattice vectors                    reciprocal lattice vectors
     4.678294000  0.030675000  1.916040000     0.227188009 -0.075599135 -0.031592919
     1.696138000  4.453103000  1.541215000    -0.007945854  0.222105004  0.015845164
     0.591615000 -0.340467000  5.069074000    -0.083458053 -0.038953978  0.204398770

  length of vectors
     5.055549919  5.008228641  5.114825247     0.241511352  0.222811217  0.224190803

  position of ions in fractional coordinates (direct lattice)
     0.495530000  0.803706000  0.803706000
     0.842098000  0.333358000  0.820393000
     0.150600000  0.233297000  0.699617000
     0.150600000  0.699617000  0.233297000
     0.842098000  0.820393000  0.333358000
     0.838017000  0.255822000  0.255822000
     0.153713000  0.741225000  0.741225000
     0.142059000  0.152549000  0.152549000
     0.843618000  0.864795000  0.864795000

  ion indices of the primitive-cell ions
   primitive index   ion index
                 1           1
                 2           2
                 3           3
                 4           4
                 5           5
                 6           6
                 7           7
                 8           8
                 9           9

----------------------------------------------------------------------------------------

 
 
 KPOINTS: Fully automatic kpoint scheme           

Automatic generation of k-mesh.
 generate k-points for:    8    7    7
Space group operators:
 irot       det(A)        alpha          n_x          n_y          n_z        tau_x        tau_y        tau_z
    1     1.000000     0.000000     1.000000     0.000000     0.000000     0.000000     0.000000     0.000000
 TETIRR: Found   1174 inequivalent tetrahedra from     2352
 
 Subroutine IBZKPT returns following result:
 ===========================================
 
 Found    197 irreducible k-points:
 
 Following reciprocal coordinates:
            Coordinates               Weight
  0.000000  0.000000  0.000000      1.000000
  0.125000  0.000000 -0.000000      2.000000
  0.250000  0.000000  0.000000      2.000000
  0.375000 -0.000000 -0.000000      2.000000
  0.500000  0.000000  0.000000      1.000000
 -0.000000  0.142857 -0.000000      2.000000
  0.125000  0.142857 -0.000000      2.000000
  0.250000  0.142857  0.000000      2.000000
  0.375000  0.142857 -0.000000      2.000000
  0.500000  0.142857  0.000000      2.000000
 -0.375000  0.142857  0.000000      2.000000
 -0.250000  0.142857 -0.000000      2.000000
 -0.125000  0.142857  0.000000      2.000000
  0.000000  0.285714 -0.000000      2.000000
  0.125000  0.285714  0.000000      2.000000
  0.250000  0.285714  0.000000      2.000000
  0.375000  0.285714 -0.000000      2.000000
  0.500000  0.285714  0.000000      2.000000
 -0.375000  0.285714 -0.000000      2.000000
 -0.250000  0.285714 -0.000000      2.000000
 -0.125000  0.285714  0.000000      2.000000
 -0.000000  0.428571 -0.000000      2.000000
  0.125000  0.428571  0.000000      2.000000
  0.250000  0.428571 -0.000000      2.000000
  0.375000  0.428571 -0.000000      2.000000
  0.500000  0.428571  0.000000      2.000000
 -0.375000  0.428571 -0.000000      2.000000
 -0.250000  0.428571 -0.000000      2.000000
 -0.125000  0.428571  0.000000      2.000000
  0.000000 -0.000000  0.142857      2.000000
  0.125000  0.000000  0.142857      2.000000
  0.250000 -0.000000  0.142857      2.000000
  0.375000  0.000000  0.142857      2.000000
  0.500000  0.000000  0.142857      2.000000
 -0.375000 -0.000000  0.142857      2.000000
 -0.250000  0.000000  0.142857      2.000000
 -0.125000 -0.000000  0.142857      2.000000
  0.000000  0.142857  0.142857      2.000000
  0.125000  0.142857  0.142857      2.000000
  0.250000  0.142857  0.142857      2.000000
  0.375000  0.142857  0.142857      2.000000
  0.500000  0.142857  0.142857      2.000000
 -0.375000  0.142857  0.142857      2.000000
 -0.250000  0.142857  0.142857      2.000000
 -0.125000  0.142857  0.142857      2.000000
  0.000000  0.285714  0.142857      2.000000
  0.125000  0.285714  0.142857      2.000000
  0.250000  0.285714  0.142857      2.000000
  0.375000  0.285714  0.142857      2.000000
  0.500000  0.285714  0.142857      2.000000
 -0.375000  0.285714  0.142857      2.000000
 -0.250000  0.285714  0.142857      2.000000
 -0.125000  0.285714  0.142857      2.000000
 -0.000000  0.428571  0.142857      2.000000
  0.125000  0.428571  0.142857      2.000000
  0.250000  0.428571  0.142857      2.000000
  0.375000  0.428571  0.142857      2.000000
  0.500000  0.428571  0.142857      2.000000
 -0.375000  0.428571  0.142857      2.000000
 -0.250000  0.428571  0.142857      2.000000
 -0.125000  0.428571  0.142857      2.000000
  0.000000 -0.428571  0.142857      2.000000
  0.125000 -0.428571  0.142857      2.000000
  0.250000 -0.428571  0.142857      2.000000
  0.375000 -0.428571  0.142857      2.000000
  0.500000 -0.428571  0.142857      2.000000
 -0.375000 -0.428571  0.142857      2.000000
 -0.250000 -0.428571  0.142857      2.000000
 -0.125000 -0.428571  0.142857      2.000000
  0.000000 -0.285714  0.142857      2.000000
  0.125000 -0.285714  0.142857      2.000000
  0.250000 -0.285714  0.142857      2.000000
  0.375000 -0.285714  0.142857      2.000000
  0.500000 -0.285714  0.142857      2.000000
 -0.375000 -0.285714  0.142857      2.000000
 -0.250000 -0.285714  0.142857      2.000000
 -0.125000 -0.285714  0.142857      2.000000
  0.000000 -0.142857  0.142857      2.000000
  0.125000 -0.142857  0.142857      2.000000
  0.250000 -0.142857  0.142857      2.000000
  0.375000 -0.142857  0.142857      2.000000
  0.500000 -0.142857  0.142857      2.000000
 -0.375000 -0.142857  0.142857      2.000000
 -0.250000 -0.142857  0.142857      2.000000
 -0.125000 -0.142857  0.142857      2.000000
  0.000000 -0.000000  0.285714      2.000000
  0.125000  0.000000  0.285714      2.000000
  0.250000  0.000000  0.285714      2.000000
  0.375000 -0.000000  0.285714      2.000000
  0.500000  0.000000  0.285714      2.000000
 -0.375000 -0.000000  0.285714      2.000000
 -0.250000 -0.000000  0.285714      2.000000
 -0.125000 -0.000000  0.285714      2.000000
  0.000000  0.142857  0.285714      2.000000
  0.125000  0.142857  0.285714      2.000000
  0.250000  0.142857  0.285714      2.000000
  0.375000  0.142857  0.285714      2.000000
  0.500000  0.142857  0.285714      2.000000
 -0.375000  0.142857  0.285714      2.000000
 -0.250000  0.142857  0.285714      2.000000
 -0.125000  0.142857  0.285714      2.000000
  0.000000  0.285714  0.285714      2.000000
  0.125000  0.285714  0.285714      2.000000
  0.250000  0.285714  0.285714      2.000000
  0.375000  0.285714  0.285714      2.000000
  0.500000  0.285714  0.285714      2.000000
 -0.375000  0.285714  0.285714      2.000000
 -0.250000  0.285714  0.285714      2.000000
 -0.125000  0.285714  0.285714      2.000000
  0.000000  0.428571  0.285714      2.000000
  0.125000  0.428571  0.285714      2.000000
  0.250000  0.428571  0.285714      2.000000
  0.375000  0.428571  0.285714      2.000000
  0.500000  0.428571  0.285714      2.000000
 -0.375000  0.428571  0.285714      2.000000
 -0.250000  0.428571  0.285714      2.000000
 -0.125000  0.428571  0.285714      2.000000
  0.000000 -0.428571  0.285714      2.000000
  0.125000 -0.428571  0.285714      2.000000
  0.250000 -0.428571  0.285714      2.000000
  0.375000 -0.428571  0.285714      2.000000
  0.500000 -0.428571  0.285714      2.000000
 -0.375000 -0.428571  0.285714      2.000000
 -0.250000 -0.428571  0.285714      2.000000
 -0.125000 -0.428571  0.285714      2.000000
  0.000000 -0.285714  0.285714      2.000000
  0.125000 -0.285714  0.285714      2.000000
  0.250000 -0.285714  0.285714      2.000000
  0.375000 -0.285714  0.285714      2.000000
  0.500000 -0.285714  0.285714      2.000000
 -0.375000 -0.285714  0.285714      2.000000
 -0.250000 -0.285714  0.285714      2.000000
 -0.125000 -0.285714  0.285714      2.000000
  0.000000 -0.142857  0.285714      2.000000
  0.125000 -0.142857  0.285714      2.000000
  0.250000 -0.142857  0.285714      2.000000
  0.375000 -0.142857  0.285714      2.000000
  0.500000 -0.142857  0.285714      2.000000
 -0.375000 -0.142857  0.285714      2.000000
 -0.250000 -0.142857  0.285714      2.000000
 -0.125000 -0.142857  0.285714      2.000000
  0.000000 -0.000000  0.428571      2.000000
  0.125000 -0.000000  0.428571      2.000000
  0.250000  0.000000  0.428571      2.000000
  0.375000 -0.000000  0.428571      2.000000
  0.500000 -0.000000  0.428571      2.000000
 -0.375000 -0.000000  0.428571      2.000000
 -0.250000  0.000000  0.428571      2.000000
 -0.125000  0.000000  0.428571      2.000000
  0.000000  0.142857  0.428571      2.000000
  0.125000  0.142857  0.428571      2.000000
  0.250000  0.142857  0.428571      2.000000
  0.375000  0.142857  0.428571      2.000000
  0.500000  0.142857  0.428571      2.000000
 -0.375000  0.142857  0.428571      2.000000
 -0.250000  0.142857  0.428571      2.000000
 -0.125000  0.142857  0.428571      2.000000
  0.000000  0.285714  0.428571      2.000000
  0.125000  0.285714  0.428571      2.000000
  0.250000  0.285714  0.428571      2.000000
  0.375000  0.285714  0.428571      2.000000
  0.500000  0.285714  0.428571      2.000000
 -0.375000  0.285714  0.428571      2.000000
 -0.250000  0.285714  0.428571      2.000000
 -0.125000  0.285714  0.428571      2.000000
  0.000000  0.428571  0.428571      2.000000
  0.125000  0.428571  0.428571      2.000000
  0.250000  0.428571  0.428571      2.000000
  0.375000  0.428571  0.428571      2.000000
  0.500000  0.428571  0.428571      2.000000
 -0.375000  0.428571  0.428571      2.000000
 -0.250000  0.428571  0.428571      2.000000
 -0.125000  0.428571  0.428571      2.000000
  0.000000 -0.428571  0.428571      2.000000
  0.125000 -0.428571  0.428571      2.000000
  0.250000 -0.428571  0.428571      2.000000
  0.375000 -0.428571  0.428571      2.000000
  0.500000 -0.428571  0.428571      2.000000
 -0.375000 -0.428571  0.428571      2.000000
 -0.250000 -0.428571  0.428571      2.000000
 -0.125000 -0.428571  0.428571      2.000000
  0.000000 -0.285714  0.428571      2.000000
  0.125000 -0.285714  0.428571      2.000000
  0.250000 -0.285714  0.428571      2.000000
  0.375000 -0.285714  0.428571      2.000000
  0.500000 -0.285714  0.428571      2.000000
 -0.375000 -0.285714  0.428571      2.000000
 -0.250000 -0.285714  0.428571      2.000000
 -0.125000 -0.285714  0.428571      2.000000
  0.000000 -0.142857  0.428571      2.000000
  0.125000 -0.142857  0.428571      2.000000
  0.250000 -0.142857  0.428571      2.000000
  0.375000 -0.142857  0.428571      2.000000
  0.500000 -0.142857  0.428571      2.000000
 -0.375000 -0.142857  0.428571      2.000000
 -0.250000 -0.142857  0.428571      2.000000
 -0.125000 -0.142857  0.428571      2.000000
 
 Following cartesian coordinates:
            Coordinates               Weight
  0.000000  0.000000  0.000000      1.000000
  0.028399 -0.009450 -0.003949      2.000000
  0.056797 -0.018900 -0.007898      2.000000
  0.085196 -0.028350 -0.011847      2.000000
  0.113594 -0.037800 -0.015796      1.000000
 -0.001135  0.031729  0.002264      2.000000
  0.027263  0.022279 -0.001686      2.000000
  0.055662  0.012830 -0.005635      2.000000
  0.084060  0.003380 -0.009584      2.000000
  0.112459 -0.006070 -0.013533      2.000000
 -0.086331  0.060079  0.014111      2.000000
 -0.057932  0.050629  0.010162      2.000000
 -0.029534  0.041179  0.006213      2.000000
 -0.002270  0.063459  0.004527      2.000000
  0.026128  0.054009  0.000578      2.000000
  0.054527  0.044559 -0.003371      2.000000
  0.082925  0.035109 -0.007320      2.000000
  0.111324  0.025659 -0.011269      2.000000
 -0.087466  0.091808  0.016375      2.000000
 -0.059067  0.082358  0.012425      2.000000
 -0.030669  0.072908  0.008476      2.000000
 -0.003405  0.095188  0.006791      2.000000
  0.024993  0.085738  0.002842      2.000000
  0.053392  0.076288 -0.001107      2.000000
  0.081790  0.066838 -0.005057      2.000000
  0.110189  0.057388 -0.009006      2.000000
 -0.088601  0.123538  0.018638      2.000000
 -0.060202  0.114088  0.014689      2.000000
 -0.031804  0.104638  0.010740      2.000000
 -0.011923 -0.005565  0.029200      2.000000
  0.016476 -0.015015  0.025251      2.000000
  0.044874 -0.024465  0.021302      2.000000
  0.073273 -0.033915  0.017352      2.000000
  0.101671 -0.043364  0.013403      2.000000
 -0.097118  0.022785  0.041047      2.000000
 -0.068720  0.013335  0.037098      2.000000
 -0.040321  0.003885  0.033149      2.000000
 -0.013058  0.026164  0.031463      2.000000
  0.015341  0.016715  0.027514      2.000000
  0.043739  0.007265  0.023565      2.000000
  0.072138 -0.002185  0.019616      2.000000
  0.100536 -0.011635  0.015667      2.000000
 -0.098253  0.054514  0.043311      2.000000
 -0.069855  0.045064  0.039362      2.000000
 -0.041456  0.035614  0.035413      2.000000
 -0.014193  0.057894  0.033727      2.000000
  0.014206  0.048444  0.029778      2.000000
  0.042604  0.038994  0.025829      2.000000
  0.071003  0.029544  0.021880      2.000000
  0.099401  0.020094  0.017931      2.000000
 -0.099388  0.086243  0.045574      2.000000
 -0.070990  0.076794  0.041625      2.000000
 -0.042591  0.067344  0.037676      2.000000
 -0.015328  0.089623  0.035991      2.000000
  0.013071  0.080173  0.032041      2.000000
  0.041469  0.070723  0.028092      2.000000
  0.069868  0.061273  0.024143      2.000000
  0.098266  0.051823  0.020194      2.000000
 -0.100523  0.117973  0.047838      2.000000
 -0.072125  0.108523  0.043889      2.000000
 -0.043726  0.099073  0.039940      2.000000
 -0.008517 -0.100753  0.022409      2.000000
  0.019881 -0.110203  0.018460      2.000000
  0.048280 -0.119652  0.014511      2.000000
  0.076678 -0.129102  0.010562      2.000000
  0.105077 -0.138552  0.006613      2.000000
 -0.093713 -0.072403  0.034256      2.000000
 -0.065314 -0.081853  0.030307      2.000000
 -0.036916 -0.091303  0.026358      2.000000
 -0.009652 -0.069023  0.024673      2.000000
  0.018746 -0.078473  0.020724      2.000000
  0.047145 -0.087923  0.016774      2.000000
  0.075543 -0.097373  0.012825      2.000000
  0.103942 -0.106823  0.008876      2.000000
 -0.094848 -0.040674  0.036520      2.000000
 -0.066449 -0.050124  0.032571      2.000000
 -0.038051 -0.059574  0.028622      2.000000
 -0.010787 -0.037294  0.026936      2.000000
  0.017611 -0.046744  0.022987      2.000000
  0.046010 -0.056194  0.019038      2.000000
  0.074408 -0.065644  0.015089      2.000000
  0.102807 -0.075094  0.011140      2.000000
 -0.095983 -0.008944  0.038784      2.000000
 -0.067584 -0.018394  0.034834      2.000000
 -0.039186 -0.027844  0.030885      2.000000
 -0.023845 -0.011130  0.058400      2.000000
  0.004553 -0.020580  0.054451      2.000000
  0.032952 -0.030029  0.050501      2.000000
  0.061350 -0.039479  0.046552      2.000000
  0.089749 -0.048929  0.042603      2.000000
 -0.109041  0.017220  0.070247      2.000000
 -0.080642  0.007770  0.066298      2.000000
 -0.052244 -0.001680  0.062349      2.000000
 -0.024980  0.020600  0.060663      2.000000
  0.003418  0.011150  0.056714      2.000000
  0.031817  0.001700  0.052765      2.000000
  0.060215 -0.007750  0.048816      2.000000
  0.088614 -0.017200  0.044867      2.000000
 -0.110176  0.048949  0.072511      2.000000
 -0.081777  0.039499  0.068561      2.000000
 -0.053379  0.030049  0.064612      2.000000
 -0.026115  0.052329  0.062927      2.000000
  0.002283  0.042879  0.058978      2.000000
  0.030682  0.033429  0.055029      2.000000
  0.059080  0.023979  0.051079      2.000000
  0.087479  0.014529  0.047130      2.000000
 -0.111311  0.080679  0.074774      2.000000
 -0.082912  0.071229  0.070825      2.000000
 -0.054514  0.061779  0.066876      2.000000
 -0.027251  0.084058  0.065190      2.000000
  0.001148  0.074608  0.061241      2.000000
  0.029546  0.065158  0.057292      2.000000
  0.057945  0.055708  0.053343      2.000000
  0.086343  0.046259  0.049394      2.000000
 -0.112446  0.112408  0.077038      2.000000
 -0.084048  0.102958  0.073089      2.000000
 -0.055649  0.093508  0.069140      2.000000
 -0.020440 -0.106318  0.051609      2.000000
  0.007959 -0.115767  0.047660      2.000000
  0.036357 -0.125217  0.043711      2.000000
  0.064756 -0.134667  0.039762      2.000000
  0.093154 -0.144117  0.035812      2.000000
 -0.105635 -0.077968  0.063456      2.000000
 -0.077237 -0.087418  0.059507      2.000000
 -0.048838 -0.096868  0.055558      2.000000
 -0.021575 -0.074588  0.053872      2.000000
  0.006824 -0.084038  0.049923      2.000000
  0.035222 -0.093488  0.045974      2.000000
  0.063621 -0.102938  0.042025      2.000000
  0.092019 -0.112388  0.038076      2.000000
 -0.106770 -0.046239  0.065720      2.000000
 -0.078372 -0.055688  0.061771      2.000000
 -0.049973 -0.065138  0.057822      2.000000
 -0.022710 -0.042859  0.056136      2.000000
  0.005688 -0.052309  0.052187      2.000000
  0.034087 -0.061759  0.048238      2.000000
  0.062485 -0.071209  0.044289      2.000000
  0.090884 -0.080659  0.040340      2.000000
 -0.107906 -0.014509  0.067983      2.000000
 -0.079507 -0.023959  0.064034      2.000000
 -0.051109 -0.033409  0.060085      2.000000
 -0.035768 -0.016695  0.087599      2.000000
 -0.007369 -0.026144  0.083650      2.000000
  0.021029 -0.035594  0.079701      2.000000
  0.049428 -0.045044  0.075752      2.000000
  0.077826 -0.054494  0.071803      2.000000
 -0.120963  0.011655  0.099447      2.000000
 -0.092565  0.002205  0.095498      2.000000
 -0.064166 -0.007245  0.091549      2.000000
 -0.036903  0.015035  0.089863      2.000000
 -0.008504  0.005585  0.085914      2.000000
  0.019894 -0.003865  0.081965      2.000000
  0.048293 -0.013315  0.078016      2.000000
  0.076691 -0.022765  0.074067      2.000000
 -0.122098  0.043384  0.101710      2.000000
 -0.093700  0.033935  0.097761      2.000000
 -0.065301  0.024485  0.093812      2.000000
 -0.038038  0.046764  0.092127      2.000000
 -0.009639  0.037314  0.088178      2.000000
  0.018759  0.027864  0.084228      2.000000
  0.047158  0.018414  0.080279      2.000000
  0.075556  0.008964  0.076330      2.000000
 -0.123233  0.075114  0.103974      2.000000
 -0.094835  0.065664  0.100025      2.000000
 -0.066436  0.056214  0.096076      2.000000
 -0.039173  0.078493  0.094390      2.000000
 -0.010775  0.069043  0.090441      2.000000
  0.017624  0.059594  0.086492      2.000000
  0.046022  0.050144  0.082543      2.000000
  0.074421  0.040694  0.078594      2.000000
 -0.124369  0.106843  0.106238      2.000000
 -0.095970  0.097393  0.102288      2.000000
 -0.067572  0.087943  0.098339      2.000000
 -0.032362 -0.111882  0.080809      2.000000
 -0.003964 -0.121332  0.076860      2.000000
  0.024435 -0.130782  0.072910      2.000000
  0.052833 -0.140232  0.068961      2.000000
  0.081232 -0.149682  0.065012      2.000000
 -0.117558 -0.083533  0.092656      2.000000
 -0.089159 -0.092983  0.088707      2.000000
 -0.060761 -0.102433  0.084758      2.000000
 -0.033497 -0.080153  0.083072      2.000000
 -0.005099 -0.089603  0.079123      2.000000
  0.023300 -0.099053  0.075174      2.000000
  0.051698 -0.108503  0.071225      2.000000
  0.080097 -0.117953  0.067276      2.000000
 -0.118693 -0.051803  0.094920      2.000000
 -0.090294 -0.061253  0.090971      2.000000
 -0.061896 -0.070703  0.087021      2.000000
 -0.034633 -0.048424  0.085336      2.000000
 -0.006234 -0.057874  0.081387      2.000000
  0.022164 -0.067324  0.077438      2.000000
  0.050563 -0.076774  0.073489      2.000000
  0.078961 -0.086223  0.069539      2.000000
 -0.119828 -0.020074  0.097183      2.000000
 -0.091430 -0.029524  0.093234      2.000000
 -0.063031 -0.038974  0.089285      2.000000
 


--------------------------------------------------------------------------------------------------------




 Dimension of arrays:
   k-points           NKPTS =    197   k-points in BZ     NKDIM =    197   number of bands    NBANDS=     34
   number of dos      NEDOS =    301   number of ions     NIONS =      9
   non local maximal  LDIM  =      4   non local SUM 2l+1 LMDIM =      8
   total plane-waves  NPLWV =  64000
   max r-space proj   IRMAX =   3969   max aug-charges    IRDMAX=   8366
   dimension x,y,z NGX =    40 NGY =   40 NGZ =   40
   dimension x,y,z NGXF=    80 NGYF=   80 NGZF=   80
   support grid    NGXF=    80 NGYF=   80 NGZF=   80
   ions per type =               1   8
   NGX,Y,Z   is equivalent  to a cutoff of  13.15, 13.28, 13.00 a.u.
   NGXF,Y,Z  is equivalent  to a cutoff of  26.31, 26.56, 26.00 a.u.

 SYSTEM =  unknown system                          
 POSCAR =  Li1 O8                                  

 Startparameter for this run:
   NWRITE =      2    write-flag & timer
   PREC   = accura    normal or accurate (medium, high low for compatibility)
   ISTART =      0    job   : 0-new  1-cont  2-samecut
   ICHARG =      2    charge: 1-file 2-atom 10-const
   ISPIN  =      2    spin polarized calculation?
   LNONCOLLINEAR =      F non collinear calculations
   LSORBIT =      F    spin-orbit coupling
   INIWAV =      1    electr: 0-lowe 1-rand  2-diag
   LASPH  =      T    aspherical Exc in radial PAW
   METAGGA=      F    non-selfconsistent MetaGGA calc.

 Electronic Relaxation 1
   ENCUT  =  520.0 eV  38.22 Ry    6.18 a.u.   9.40  9.31  9.51*2*pi/ulx,y,z
   ENINI  =  520.0     initial cutoff
   ENAUG  =  628.9 eV  augmentation charge cutoff
   NELM   =    100;   NELMIN=  2; NELMDL= -5     # of ELM steps 
   EDIFF  = 0.1E-04   stopping-criterion for ELM
   LREAL  =      T    real-space projection
   NLSPLINE    = F    spline interpolate recip. space projectors
   LCOMPAT=      F    compatible to vasp.4.4
   GGA_COMPAT  = T    GGA compatible to vasp.4.4-vasp.4.6
   LMAXPAW     = -100 max onsite density
   LMAXMIX     =    2 max onsite mixed and CHGCAR
   VOSKOWN=      0    Vosko Wilk Nusair interpolation
   ROPT   =   -0.00025  -0.00025
 Ionic relaxation
   EDIFFG = 0.1E-03   stopping-criterion for IOM
   NSW    =      0    number of steps for IOM
   NBLOCK =      1;   KBLOCK =      1    inner block; outer block 
   IBRION =     -1    ionic relax: 0-MD 1-quasi-New 2-CG
   NFREE  =      0    steps in history (QN), initial steepest desc. (CG)
   ISIF   =      2    stress and relaxation
   IWAVPR =     10    prediction:  0-non 1-charg 2-wave 3-comb
   ISYM   =      2    0-nonsym 1-usesym 2-fastsym
   LCORR  =      T    Harris-Foulkes like correction to forces

   POTIM  = 0.5000    time-step for ionic-motion
   TEIN   =    0.0    initial temperature
   TEBEG  =    0.0;   TEEND  =   0.0 temperature during run
   SMASS  =  -3.00    Nose mass-parameter (am)
   estimated Nose-frequenzy (Omega)   =  0.10E-29 period in steps = 0.13E+47 mass=  -0.584E-27a.u.
   SCALEE = 1.0000    scale energy and forces
   NPACO  =    256;   APACO  = 16.0  distance and # of slots for P.C.
   PSTRESS=    0.0 pullay stress

  Mass of Ions in am
   POMASS =   7.01 16.00
  Ionic Valenz
   ZVAL   =   3.00  6.00
  Atomic Wigner-Seitz radii
   RWIGS  =  -1.00 -1.00
  virtual crystal weights 
   VCA    =   1.00  1.00
   NELECT =      51.0000    total number of electrons
   NUPDOWN=      -1.0000    fix difference up-down

 DOS related values:
   EMIN   =  10.00;   EMAX   =-10.00  energy-range for DOS
   EFERMI =   0.00
   ISMEAR =    -5;   SIGMA  =   0.05  broadening in eV -4-tet -1-fermi 0-gaus

 Electronic relaxation 2 (details)
   IALGO  =     68    algorithm
   LDIAG  =      T    sub-space diagonalisation (order eigenvalues)
   LSUBROT=      F    optimize rotation matrix (better conditioning)
   TURBO    =      0    0=normal 1=particle mesh
   IRESTART =      0    0=no restart 2=restart with 2 vectors
   NREBOOT  =      0    no. of reboots
   NMIN     =      0    reboot dimension
   EREF     =   0.00    reference energy to select bands
   IMIX   =      4    mixing-type and parameters
     AMIX     =   0.40;   BMIX     =  1.00
     AMIX_MAG =   1.60;   BMIX_MAG =  1.00
     AMIN     =   0.10
     WC   =   100.;   INIMIX=   1;  MIXPRE=   1;  MAXMIX= -45

 Intra band minimization:
   WEIMIN = 0.0000     energy-eigenvalue tresh-hold
   EBREAK =  0.74E-07  absolut break condition
   DEPER  =   0.30     relativ break condition  

   TIME   =   0.40     timestep for ELM

  volume/ion in A,a.u.               =      11.30        76.23
  Fermi-wavevector in a.u.,A,eV,Ry     =   1.300777  2.458112 23.021345  1.692021
  Thomas-Fermi vector in A             =   2.431954
 
 Write flags
   LWAVE        =      F    write WAVECAR
   LDOWNSAMPLE  =      F    k-point downsampling of WAVECAR
   LCHARG       =      F    write CHGCAR
   LVTOT        =      F    write LOCPOT, total local potential
   LVHAR        =      F    write LOCPOT, Hartree potential only
   LELF         =      F    write electronic localiz. function (ELF)
   LORBIT       =     11    0 simple, 1 ext, 2 COOP (PROOUT), +10 PAW based schemes


 Dipole corrections
   LMONO  =      F    monopole corrections only (constant potential shift)
   LDIPOL =      F    correct potential (dipole corrections)
   IDIPOL =      0    1-x, 2-y, 3-z, 4-all directions 
   EPSILON=  1.0000000 bulk dielectric constant

 Exchange correlation treatment:
   GGA     =    --    GGA type
   LEXCH   =     8    internal setting for exchange type
   VOSKOWN=      0    Vosko Wilk Nusair interpolation
   LHFCALC =     F    Hartree Fock is set to
   LHFONE  =     F    Hartree Fock one center treatment
   AEXX    =    0.0000 exact exchange contribution

 Linear response parameters
   LEPSILON=     F    determine dielectric tensor
   LRPA    =     F    only Hartree local field effects (RPA)
   LNABLA  =     F    use nabla operator in PAW spheres
   LVEL    =     F    velocity operator in full k-point grid
   LINTERFAST=   F  fast interpolation
   KINTER  =     0    interpolate to denser k-point grid
   CSHIFT  =0.1000    complex shift for real part using Kramers Kronig
   OMEGAMAX=  -1.0    maximum frequency
   DEG_THRESHOLD= 0.2000000E-02 threshold for treating states as degnerate
   RTIME   =   -0.100 relaxation time in fs
  (WPLASMAI=    0.000 imaginary part of plasma frequency in eV, 0.658/RTIME)
   DFIELD  = 0.0000000 0.0000000 0.0000000 field for delta impulse in time
 
 Orbital magnetization related:
   ORBITALMAG=     F  switch on orbital magnetization
   LCHIMAG   =     F  perturbation theory with respect to B field
   DQ        =  0.001000  dq finite difference perturbation B field
   LLRAUG    =     F  two centre corrections for induced B field



--------------------------------------------------------------------------------------------------------


 Static calculation
 charge density and potential will be updated during run
 spin polarized calculation
 RMM-DIIS sequential band-by-band and
  variant of blocked Davidson during initial phase
 perform sub-space diagonalisation
    before iterative eigenvector-optimisation
 modified Broyden-mixing scheme, WC =      100.0
 initial mixing is a Kerker type mixing with AMIX =  0.4000 and BMIX =      1.0000
 Hartree-type preconditioning will be used
 using additional bands            8
 real space projection scheme for non local part
 use partial core corrections
 calculate Harris-corrections to forces 
   (improved forces if not selfconsistent)
 use gradient corrections 
 use of overlap-Matrix (Vanderbilt PP)
 Fermi weights with tetrahedron method with Bloechl corrections


--------------------------------------------------------------------------------------------------------


  energy-cutoff  :      520.00
  volume of cell :      101.67
      direct lattice vectors                 reciprocal lattice vectors
     4.678294000  0.030675000  1.916040000     0.227188009 -0.075599135 -0.031592919
     1.696138000  4.453103000  1.541215000    -0.007945854  0.222105004  0.015845164
     0.591615000 -0.340467000  5.069074000    -0.083458053 -0.038953978  0.204398770

  length of vectors
     5.055549919  5.008228641  5.114825247     0.241511352  0.222811217  0.224190803


 
 k-points in units of 2pi/SCALE and weight: Fully automatic kpoint scheme           
   0.00000000  0.00000000  0.00000000       0.003
   0.02839850 -0.00944989 -0.00394911       0.005
   0.05679700 -0.01889978 -0.00789823       0.005
   0.08519550 -0.02834968 -0.01184734       0.005
   0.11359400 -0.03779957 -0.01579646       0.003
  -0.00113512  0.03172929  0.00226359       0.005
   0.02726338  0.02227939 -0.00168552       0.005
   0.05566188  0.01282950 -0.00563463       0.005
   0.08406038  0.00337961 -0.00958375       0.005
   0.11245888 -0.00607028 -0.01353286       0.005
  -0.08633063  0.06007896  0.01411094       0.005
  -0.05793212  0.05062907  0.01016182       0.005
  -0.02953362  0.04117918  0.00621271       0.005
  -0.00227024  0.06345857  0.00452719       0.005
   0.02612826  0.05400868  0.00057807       0.005
   0.05452676  0.04455879 -0.00337104       0.005
   0.08292526  0.03510890 -0.00732015       0.005
   0.11132376  0.02565901 -0.01126927       0.005
  -0.08746575  0.09180825  0.01637453       0.005
  -0.05906725  0.08235836  0.01242542       0.005
  -0.03066875  0.07290846  0.00847630       0.005
  -0.00340537  0.09518786  0.00679078       0.005
   0.02499314  0.08573797  0.00284167       0.005
   0.05339164  0.07628808 -0.00110745       0.005
   0.08179014  0.06683818 -0.00505656       0.005
   0.11018864  0.05738829 -0.00900567       0.005
  -0.08860087  0.12353753  0.01863813       0.005
  -0.06020237  0.11408764  0.01468901       0.005
  -0.03180387  0.10463775  0.01073990       0.005
  -0.01192258 -0.00556485  0.02919982       0.005
   0.01647592 -0.01501475  0.02525071       0.005
   0.04487442 -0.02446464  0.02130159       0.005
   0.07327292 -0.03391453  0.01735248       0.005
   0.10167143 -0.04336442  0.01340336       0.005
  -0.09711808  0.02278482  0.04104717       0.005
  -0.06871958  0.01333493  0.03709805       0.005
  -0.04032108  0.00388504  0.03314894       0.005
  -0.01305770  0.02616443  0.03146342       0.005
   0.01534080  0.01671454  0.02751430       0.005
   0.04373930  0.00726465  0.02356519       0.005
   0.07213780 -0.00218524  0.01961607       0.005
   0.10053630 -0.01163514  0.01566696       0.005
  -0.09825320  0.05451411  0.04331076       0.005
  -0.06985470  0.04506422  0.03936165       0.005
  -0.04145620  0.03561432  0.03541253       0.005
  -0.01419282  0.05789372  0.03372701       0.005
   0.01420568  0.04844383  0.02977790       0.005
   0.04260418  0.03899393  0.02582878       0.005
   0.07100268  0.02954404  0.02187967       0.005
   0.09940118  0.02009415  0.01793055       0.005
  -0.09938833  0.08624339  0.04557436       0.005
  -0.07098983  0.07679350  0.04162524       0.005
  -0.04259132  0.06734361  0.03767613       0.005
  -0.01532794  0.08962300  0.03599061       0.005
   0.01307056  0.08017311  0.03204149       0.005
   0.04146906  0.07072322  0.02809238       0.005
   0.06986756  0.06127333  0.02414326       0.005
   0.09826606  0.05182344  0.02019415       0.005
  -0.10052345  0.11797268  0.04783795       0.005
  -0.07212495  0.10852279  0.04388884       0.005
  -0.04372645  0.09907290  0.03993972       0.005
  -0.00851721 -0.10075271  0.02240904       0.005
   0.01988129 -0.11020260  0.01845992       0.005
   0.04827979 -0.11965250  0.01451081       0.005
   0.07667829 -0.12910239  0.01056169       0.005
   0.10507679 -0.13855228  0.00661258       0.005
  -0.09371272 -0.07240304  0.03425638       0.005
  -0.06531422 -0.08185293  0.03030727       0.005
  -0.03691571 -0.09130282  0.02635815       0.005
  -0.00965234 -0.06902343  0.02467263       0.005
   0.01874617 -0.07847332  0.02072352       0.005
   0.04714467 -0.08792321  0.01677440       0.005
   0.07554317 -0.09737310  0.01282529       0.005
   0.10394167 -0.10682299  0.00887617       0.005
  -0.09484784 -0.04067375  0.03651998       0.005
  -0.06644934 -0.05012364  0.03257086       0.005
  -0.03805084 -0.05957353  0.02862175       0.005
  -0.01078746 -0.03729414  0.02693623       0.005
   0.01761104 -0.04674403  0.02298711       0.005
   0.04600955 -0.05619392  0.01903800       0.005
   0.07440805 -0.06564382  0.01508888       0.005
   0.10280655 -0.07509371  0.01113977       0.005
  -0.09598296 -0.00894446  0.03878357       0.005
  -0.06758446 -0.01839436  0.03483446       0.005
  -0.03918596 -0.02784425  0.03088534       0.005
  -0.02384516 -0.01112971  0.05839965       0.005
   0.00455334 -0.02057960  0.05445053       0.005
   0.03295184 -0.03002949  0.05050142       0.005
   0.06135035 -0.03947938  0.04655230       0.005
   0.08974885 -0.04892928  0.04260319       0.005
  -0.10904066  0.01721997  0.07024699       0.005
  -0.08064216  0.00777008  0.06629788       0.005
  -0.05224366 -0.00167982  0.06234876       0.005
  -0.02498028  0.02059958  0.06066324       0.005
   0.00341822  0.01114969  0.05671413       0.005
   0.03181672  0.00169979  0.05276501       0.005
   0.06021522 -0.00775010  0.04881590       0.005
   0.08861372 -0.01719999  0.04486678       0.005
  -0.11017578  0.04894925  0.07251059       0.005
  -0.08177728  0.03949936  0.06856147       0.005
  -0.05337878  0.03004947  0.06461236       0.005
  -0.02611540  0.05232886  0.06292684       0.005
   0.00228310  0.04287897  0.05897772       0.005
   0.03068160  0.03342908  0.05502861       0.005
   0.05908010  0.02397919  0.05107949       0.005
   0.08747860  0.01452930  0.04713038       0.005
  -0.11131091  0.08067854  0.07477418       0.005
  -0.08291240  0.07122865  0.07082507       0.005
  -0.05451390  0.06177876  0.06687595       0.005
  -0.02725052  0.08405815  0.06519043       0.005
   0.00114798  0.07460826  0.06124132       0.005
   0.02954648  0.06515837  0.05729220       0.005
   0.05794498  0.05570848  0.05334309       0.005
   0.08634348  0.04625858  0.04939397       0.005
  -0.11244603  0.11240783  0.07703778       0.005
  -0.08404753  0.10295793  0.07308866       0.005
  -0.05564902  0.09350804  0.06913955       0.005
  -0.02043979 -0.10631757  0.05160886       0.005
   0.00795871 -0.11576746  0.04765975       0.005
   0.03635721 -0.12521735  0.04371063       0.005
   0.06475571 -0.13466724  0.03976152       0.005
   0.09315421 -0.14411713  0.03581240       0.005
  -0.10563530 -0.07796789  0.06345621       0.005
  -0.07723679 -0.08741778  0.05950709       0.005
  -0.04883829 -0.09686767  0.05555798       0.005
  -0.02157491 -0.07458828  0.05387246       0.005
   0.00682359 -0.08403817  0.04992334       0.005
   0.03522209 -0.09348806  0.04597423       0.005
   0.06362059 -0.10293796  0.04202511       0.005
   0.09201909 -0.11238785  0.03807600       0.005
  -0.10677042 -0.04623860  0.06571980       0.005
  -0.07837192 -0.05568850  0.06177069       0.005
  -0.04997342 -0.06513839  0.05782157       0.005
  -0.02271004 -0.04285899  0.05613605       0.005
   0.00568847 -0.05230889  0.05218694       0.005
   0.03408697 -0.06175878  0.04823782       0.005
   0.06248547 -0.07120867  0.04428871       0.005
   0.09088397 -0.08065856  0.04033959       0.005
  -0.10790554 -0.01450932  0.06798340       0.005
  -0.07950704 -0.02395921  0.06403428       0.005
  -0.05110854 -0.03340910  0.06008517       0.005
  -0.03576774 -0.01669456  0.08759947       0.005
  -0.00736924 -0.02614445  0.08365036       0.005
   0.02102927 -0.03559435  0.07970124       0.005
   0.04942777 -0.04504424  0.07575213       0.005
   0.07782627 -0.05449413  0.07180301       0.005
  -0.12096324  0.01165511  0.09944682       0.005
  -0.09256474  0.00220522  0.09549770       0.005
  -0.06416624 -0.00724467  0.09154859       0.005
  -0.03690286  0.01503472  0.08986307       0.005
  -0.00850436  0.00558483  0.08591395       0.005
   0.01989414 -0.00386506  0.08196484       0.005
   0.04829264 -0.01331495  0.07801572       0.005
   0.07669115 -0.02276484  0.07406661       0.005
  -0.12209836  0.04338440  0.10171041       0.005
  -0.09369986  0.03393451  0.09776130       0.005
  -0.06530136  0.02448462  0.09381218       0.005
  -0.03803798  0.04676401  0.09212666       0.005
  -0.00963948  0.03731412  0.08817755       0.005
   0.01875902  0.02786423  0.08422843       0.005
   0.04715752  0.01841433  0.08027932       0.005
   0.07555602  0.00896444  0.07633020       0.005
  -0.12323348  0.07511369  0.10397401       0.005
  -0.09483498  0.06566379  0.10002489       0.005
  -0.06643648  0.05621390  0.09607578       0.005
  -0.03917310  0.07849330  0.09439026       0.005
  -0.01077460  0.06904340  0.09044114       0.005
   0.01762390  0.05959351  0.08649203       0.005
   0.04602240  0.05014362  0.08254291       0.005
   0.07442090  0.04069373  0.07859380       0.005
  -0.12436861  0.10684297  0.10623760       0.005
  -0.09597010  0.09739308  0.10228849       0.005
  -0.06757160  0.08794319  0.09833937       0.005
  -0.03236237 -0.11188242  0.08080869       0.005
  -0.00396387 -0.12133231  0.07685957       0.005
   0.02443463 -0.13078220  0.07291046       0.005
   0.05283313 -0.14023210  0.06896134       0.005
   0.08123163 -0.14968199  0.06501223       0.005
  -0.11755787 -0.08353275  0.09265603       0.005
  -0.08915937 -0.09298264  0.08870692       0.005
  -0.06076087 -0.10243253  0.08475780       0.005
  -0.03349749 -0.08015313  0.08307228       0.005
  -0.00509899 -0.08960303  0.07912317       0.005
   0.02329951 -0.09905292  0.07517405       0.005
   0.05169801 -0.10850281  0.07122494       0.005
   0.08009651 -0.11795270  0.06727582       0.005
  -0.11869300 -0.05180346  0.09491963       0.005
  -0.09029450 -0.06125335  0.09097051       0.005
  -0.06189599 -0.07070324  0.08702140       0.005
  -0.03463261 -0.04842385  0.08533588       0.005
  -0.00623411 -0.05787374  0.08138676       0.005
   0.02216439 -0.06732363  0.07743765       0.005
   0.05056289 -0.07677352  0.07348853       0.005
   0.07896139 -0.08622342  0.06953942       0.005
  -0.11982812 -0.02007417  0.09718322       0.005
  -0.09142962 -0.02952406  0.09323411       0.005
  -0.06303112 -0.03897396  0.08928499       0.005
 
 k-points in reciprocal lattice and weights: Fully automatic kpoint scheme           
   0.00000000  0.00000000  0.00000000       0.003
   0.12500000  0.00000000 -0.00000000       0.005
   0.25000000  0.00000000  0.00000000       0.005
   0.37500000 -0.00000000 -0.00000000       0.005
   0.50000000  0.00000000  0.00000000       0.003
  -0.00000000  0.14285714 -0.00000000       0.005
   0.12500000  0.14285714 -0.00000000       0.005
   0.25000000  0.14285714  0.00000000       0.005
   0.37500000  0.14285714 -0.00000000       0.005
   0.50000000  0.14285714  0.00000000       0.005
  -0.37500000  0.14285714  0.00000000       0.005
  -0.25000000  0.14285714 -0.00000000       0.005
  -0.12500000  0.14285714  0.00000000       0.005
   0.00000000  0.28571429 -0.00000000       0.005
   0.12500000  0.28571429  0.00000000       0.005
   0.25000000  0.28571429  0.00000000       0.005
   0.37500000  0.28571429 -0.00000000       0.005
   0.50000000  0.28571429  0.00000000       0.005
  -0.37500000  0.28571429 -0.00000000       0.005
  -0.25000000  0.28571429 -0.00000000       0.005
  -0.12500000  0.28571429  0.00000000       0.005
  -0.00000000  0.42857143 -0.00000000       0.005
   0.12500000  0.42857143  0.00000000       0.005
   0.25000000  0.42857143 -0.00000000       0.005
   0.37500000  0.42857143 -0.00000000       0.005
   0.50000000  0.42857143  0.00000000       0.005
  -0.37500000  0.42857143 -0.00000000       0.005
  -0.25000000  0.42857143 -0.00000000       0.005
  -0.12500000  0.42857143  0.00000000       0.005
   0.00000000 -0.00000000  0.14285714       0.005
   0.12500000  0.00000000  0.14285714       0.005
   0.25000000 -0.00000000  0.14285714       0.005
   0.37500000  0.00000000  0.14285714       0.005
   0.50000000  0.00000000  0.14285714       0.005
  -0.37500000 -0.00000000  0.14285714       0.005
  -0.25000000  0.00000000  0.14285714       0.005
  -0.12500000 -0.00000000  0.14285714       0.005
   0.00000000  0.14285714  0.14285714       0.005
   0.12500000  0.14285714  0.14285714       0.005
   0.25000000  0.14285714  0.14285714       0.005
   0.37500000  0.14285714  0.14285714       0.005
   0.50000000  0.14285714  0.14285714       0.005
  -0.37500000  0.14285714  0.14285714       0.005
  -0.25000000  0.14285714  0.14285714       0.005
  -0.12500000  0.14285714  0.14285714       0.005
   0.00000000  0.28571429  0.14285714       0.005
   0.12500000  0.28571429  0.14285714       0.005
   0.25000000  0.28571429  0.14285714       0.005
   0.37500000  0.28571429  0.14285714       0.005
   0.50000000  0.28571429  0.14285714       0.005
  -0.37500000  0.28571429  0.14285714       0.005
  -0.25000000  0.28571429  0.14285714       0.005
  -0.12500000  0.28571429  0.14285714       0.005
  -0.00000000  0.42857143  0.14285714       0.005
   0.12500000  0.42857143  0.14285714       0.005
   0.25000000  0.42857143  0.14285714       0.005
   0.37500000  0.42857143  0.14285714       0.005
   0.50000000  0.42857143  0.14285714       0.005
  -0.37500000  0.42857143  0.14285714       0.005
  -0.25000000  0.42857143  0.14285714       0.005
  -0.12500000  0.42857143  0.14285714       0.005
   0.00000000 -0.42857143  0.14285714       0.005
   0.12500000 -0.42857143  0.14285714       0.005
   0.25000000 -0.42857143  0.14285714       0.005
   0.37500000 -0.42857143  0.14285714       0.005
   0.50000000 -0.42857143  0.14285714       0.005
  -0.37500000 -0.42857143  0.14285714       0.005
  -0.25000000 -0.42857143  0.14285714       0.005
  -0.12500000 -0.42857143  0.14285714       0.005
   0.00000000 -0.28571429  0.14285714       0.005
   0.12500000 -0.28571429  0.14285714       0.005
   0.25000000 -0.28571429  0.14285714       0.005
   0.37500000 -0.28571429  0.14285714       0.005
   0.50000000 -0.28571429  0.14285714       0.005
  -0.37500000 -0.28571429  0.14285714       0.005
  -0.25000000 -0.28571429  0.14285714       0.005
  -0.12500000 -0.28571429  0.14285714       0.005
   0.00000000 -0.14285714  0.14285714       0.005
   0.12500000 -0.14285714  0.14285714       0.005
   0.25000000 -0.14285714  0.14285714       0.005
   0.37500000 -0.14285714  0.14285714       0.005
   0.50000000 -0.14285714  0.14285714       0.005
  -0.37500000 -0.14285714  0.14285714       0.005
  -0.25000000 -0.14285714  0.14285714       0.005
  -0.12500000 -0.14285714  0.14285714       0.005
   0.00000000 -0.00000000  0.28571429       0.005
   0.12500000  0.00000000  0.28571429       0.005
   0.25000000  0.00000000  0.28571429       0.005
   0.37500000 -0.00000000  0.28571429       0.005
   0.50000000  0.00000000  0.28571429       0.005
  -0.37500000 -0.00000000  0.28571429       0.005
  -0.25000000 -0.00000000  0.28571429       0.005
  -0.12500000 -0.00000000  0.28571429       0.005
   0.00000000  0.14285714  0.28571429       0.005
   0.12500000  0.14285714  0.28571429       0.005
   0.25000000  0.14285714  0.28571429       0.005
   0.37500000  0.14285714  0.28571429       0.005
   0.50000000  0.14285714  0.28571429       0.005
  -0.37500000  0.14285714  0.28571429       0.005
  -0.25000000  0.14285714  0.28571429       0.005
  -0.12500000  0.14285714  0.28571429       0.005
   0.00000000  0.28571429  0.28571429       0.005
   0.12500000  0.28571429  0.28571429       0.005
   0.25000000  0.28571429  0.28571429       0.005
   0.37500000  0.28571429  0.28571429       0.005
   0.50000000  0.28571429  0.28571429       0.005
  -0.37500000  0.28571429  0.28571429       0.005
  -0.25000000  0.28571429  0.28571429       0.005
  -0.12500000  0.28571429  0.28571429       0.005
   0.00000000  0.42857143  0.28571429       0.005
   0.12500000  0.42857143  0.28571429       0.005
   0.25000000  0.42857143  0.28571429       0.005
   0.37500000  0.42857143  0.28571429       0.005
   0.50000000  0.42857143  0.28571429       0.005
  -0.37500000  0.42857143  0.28571429       0.005
  -0.25000000  0.42857143  0.28571429       0.005
  -0.12500000  0.42857143  0.28571429       0.005
   0.00000000 -0.42857143  0.28571429       0.005
   0.12500000 -0.42857143  0.28571429       0.005
   0.25000000 -0.42857143  0.28571429       0.005
   0.37500000 -0.42857143  0.28571429       0.005
   0.50000000 -0.42857143  0.28571429       0.005
  -0.37500000 -0.42857143  0.28571429       0.005
  -0.25000000 -0.42857143  0.28571429       0.005
  -0.12500000 -0.42857143  0.28571429       0.005
   0.00000000 -0.28571429  0.28571429       0.005
   0.12500000 -0.28571429  0.28571429       0.005
   0.25000000 -0.28571429  0.28571429       0.005
   0.37500000 -0.28571429  0.28571429       0.005
   0.50000000 -0.28571429  0.28571429       0.005
  -0.37500000 -0.28571429  0.28571429       0.005
  -0.25000000 -0.28571429  0.28571429       0.005
  -0.12500000 -0.28571429  0.28571429       0.005
   0.00000000 -0.14285714  0.28571429       0.005
   0.12500000 -0.14285714  0.28571429       0.005
   0.25000000 -0.14285714  0.28571429       0.005
   0.37500000 -0.14285714  0.28571429       0.005
   0.50000000 -0.14285714  0.28571429       0.005
  -0.37500000 -0.14285714  0.28571429       0.005
  -0.25000000 -0.14285714  0.28571429       0.005
  -0.12500000 -0.14285714  0.28571429       0.005
   0.00000000 -0.00000000  0.42857143       0.005
   0.12500000 -0.00000000  0.42857143       0.005
   0.25000000  0.00000000  0.42857143       0.005
   0.37500000 -0.00000000  0.42857143       0.005
   0.50000000 -0.00000000  0.42857143       0.005
  -0.37500000 -0.00000000  0.42857143       0.005
  -0.25000000  0.00000000  0.42857143       0.005
  -0.12500000  0.00000000  0.42857143       0.005
   0.00000000  0.14285714  0.42857143       0.005
   0.12500000  0.14285714  0.42857143       0.005
   0.25000000  0.14285714  0.42857143       0.005
   0.37500000  0.14285714  0.42857143       0.005
   0.50000000  0.14285714  0.42857143       0.005
  -0.37500000  0.14285714  0.42857143       0.005
  -0.25000000  0.14285714  0.42857143       0.005
  -0.12500000  0.14285714  0.42857143       0.005
   0.00000000  0.28571429  0.42857143       0.005
   0.12500000  0.28571429  0.42857143       0.005
   0.25000000  0.28571429  0.42857143       0.005
   0.37500000  0.28571429  0.42857143       0.005
   0.50000000  0.28571429  0.42857143       0.005
  -0.37500000  0.28571429  0.42857143       0.005
  -0.25000000  0.28571429  0.42857143       0.005
  -0.12500000  0.28571429  0.42857143       0.005
   0.00000000  0.42857143  0.42857143       0.005
   0.12500000  0.42857143  0.42857143       0.005
   0.25000000  0.42857143  0.42857143       0.005
   0.37500000  0.42857143  0.42857143       0.005
   0.50000000  0.42857143  0.42857143       0.005
  -0.37500000  0.42857143  0.42857143       0.005
  -0.25000000  0.42857143  0.42857143       0.005
  -0.12500000  0.42857143  0.42857143       0.005
   0.00000000 -0.42857143  0.42857143       0.005
   0.12500000 -0.42857143  0.42857143       0.005
   0.25000000 -0.42857143  0.42857143       0.005
   0.37500000 -0.42857143  0.42857143       0.005
   0.50000000 -0.42857143  0.42857143       0.005
  -0.37500000 -0.42857143  0.42857143       0.005
  -0.25000000 -0.42857143  0.42857143       0.005
  -0.12500000 -0.42857143  0.42857143       0.005
   0.00000000 -0.28571429  0.42857143       0.005
   0.12500000 -0.28571429  0.42857143       0.005
   0.25000000 -0.28571429  0.42857143       0.005
   0.37500000 -0.28571429  0.42857143       0.005
   0.50000000 -0.28571429  0.42857143       0.005
  -0.37500000 -0.28571429  0.42857143       0.005
  -0.25000000 -0.28571429  0.42857143       0.005
  -0.12500000 -0.28571429  0.42857143       0.005
   0.00000000 -0.14285714  0.42857143       0.005
   0.12500000 -0.14285714  0.42857143       0.005
   0.25000000 -0.14285714  0.42857143       0.005
   0.37500000 -0.14285714  0.42857143       0.005
   0.50000000 -0.14285714  0.42857143       0.005
  -0.37500000 -0.14285714  0.42857143       0.005
  -0.25000000 -0.14285714  0.42857143       0.005
  -0.12500000 -0.14285714  0.42857143       0.005
 
 position of ions in fractional coordinates (direct lattice) 
   0.49553000  0.80370600  0.80370600
   0.84209800  0.33335800  0.82039300
   0.15060000  0.23329700  0.69961700
   0.15060000  0.69961700  0.23329700
   0.84209800  0.82039300  0.33335800
   0.83801700  0.25582200  0.25582200
   0.15371300  0.74122500  0.74122500
   0.14205900  0.15254900  0.15254900
   0.84361800  0.86479500  0.86479500
 
 position of ions in cartesian coordinates  (Angst):
   4.15691584  3.32055061  6.26218423
   4.99036000  1.23099212  6.28590263
   1.51415889  0.80531872  4.19452680
   2.02922006  3.04065629  2.54941560
   5.52830136  3.56562849  4.56771182
   4.50574745  1.07780894  3.29673145
   2.41485432  3.05310377  5.19423172
   1.01358820  0.63173617  1.28058370
   5.92513038  3.58246503  7.33295071
 


--------------------------------------------------------------------------------------------------------


 k-point   1 :   0.0000 0.0000 0.0000  plane waves:    2737
 k-point   2 :   0.1250 0.0000-0.0000  plane waves:    2748
 k-point   3 :   0.2500 0.0000 0.0000  plane waves:    2746
 k-point   4 :   0.3750-0.0000-0.0000  plane waves:    2740
 k-point   5 :   0.5000 0.0000 0.0000  plane waves:    2740
 k-point   6 :  -0.0000 0.1429-0.0000  plane waves:    2747
 k-point   7 :   0.1250 0.1429-0.0000  plane waves:    2742
 k-point   8 :   0.2500 0.1429 0.0000  plane waves:    2741
 k-point   9 :   0.3750 0.1429-0.0000  plane waves:    2742
 k-point  10 :   0.5000 0.1429 0.0000  plane waves:    2742
 k-point  11 :  -0.3750 0.1429 0.0000  plane waves:    2744
 k-point  12 :  -0.2500 0.1429-0.0000  plane waves:    2744
 k-point  13 :  -0.1250 0.1429 0.0000  plane waves:    2759
 k-point  14 :   0.0000 0.2857-0.0000  plane waves:    2750
 k-point  15 :   0.1250 0.2857 0.0000  plane waves:    2740
 k-point  16 :   0.2500 0.2857 0.0000  plane waves:    2736
 k-point  17 :   0.3750 0.2857-0.0000  plane waves:    2728
 k-point  18 :   0.5000 0.2857 0.0000  plane waves:    2732
 k-point  19 :  -0.3750 0.2857-0.0000  plane waves:    2724
 k-point  20 :  -0.2500 0.2857-0.0000  plane waves:    2746
 k-point  21 :  -0.1250 0.2857 0.0000  plane waves:    2751
 k-point  22 :  -0.0000 0.4286-0.0000  plane waves:    2755
 k-point  23 :   0.1250 0.4286 0.0000  plane waves:    2747
 k-point  24 :   0.2500 0.4286-0.0000  plane waves:    2733
 k-point  25 :   0.3750 0.4286-0.0000  plane waves:    2735
 k-point  26 :   0.5000 0.4286 0.0000  plane waves:    2735
 k-point  27 :  -0.3750 0.4286-0.0000  plane waves:    2727
 k-point  28 :  -0.2500 0.4286-0.0000  plane waves:    2724
 k-point  29 :  -0.1250 0.4286 0.0000  plane waves:    2747
 k-point  30 :   0.0000-0.0000 0.1429  plane waves:    2738
 k-point  31 :   0.1250 0.0000 0.1429  plane waves:    2747
 k-point  32 :   0.2500-0.0000 0.1429  plane waves:    2760
 k-point  33 :   0.3750 0.0000 0.1429  plane waves:    2746
 k-point  34 :   0.5000 0.0000 0.1429  plane waves:    2738
 k-point  35 :  -0.3750-0.0000 0.1429  plane waves:    2741
 k-point  36 :  -0.2500 0.0000 0.1429  plane waves:    2732
 k-point  37 :  -0.1250-0.0000 0.1429  plane waves:    2732
 k-point  38 :   0.0000 0.1429 0.1429  plane waves:    2749
 k-point  39 :   0.1250 0.1429 0.1429  plane waves:    2750
 k-point  40 :   0.2500 0.1429 0.1429  plane waves:    2748
 k-point  41 :   0.3750 0.1429 0.1429  plane waves:    2746
 k-point  42 :   0.5000 0.1429 0.1429  plane waves:    2744
 k-point  43 :  -0.3750 0.1429 0.1429  plane waves:    2733
 k-point  44 :  -0.2500 0.1429 0.1429  plane waves:    2740
 k-point  45 :  -0.1250 0.1429 0.1429  plane waves:    2744
 k-point  46 :   0.0000 0.2857 0.1429  plane waves:    2750
 k-point  47 :   0.1250 0.2857 0.1429  plane waves:    2748
 k-point  48 :   0.2500 0.2857 0.1429  plane waves:    2735
 k-point  49 :   0.3750 0.2857 0.1429  plane waves:    2740
 k-point  50 :   0.5000 0.2857 0.1429  plane waves:    2736
 k-point  51 :  -0.3750 0.2857 0.1429  plane waves:    2741
 k-point  52 :  -0.2500 0.2857 0.1429  plane waves:    2734
 k-point  53 :  -0.1250 0.2857 0.1429  plane waves:    2747
 k-point  54 :  -0.0000 0.4286 0.1429  plane waves:    2752
 k-point  55 :   0.1250 0.4286 0.1429  plane waves:    2752
 k-point  56 :   0.2500 0.4286 0.1429  plane waves:    2739
 k-point  57 :   0.3750 0.4286 0.1429  plane waves:    2727
 k-point  58 :   0.5000 0.4286 0.1429  plane waves:    2727
 k-point  59 :  -0.3750 0.4286 0.1429  plane waves:    2733
 k-point  60 :  -0.2500 0.4286 0.1429  plane waves:    2744
 k-point  61 :  -0.1250 0.4286 0.1429  plane waves:    2757
 k-point  62 :   0.0000-0.4286 0.1429  plane waves:    2749
 k-point  63 :   0.1250-0.4286 0.1429  plane waves:    2745
 k-point  64 :   0.2500-0.4286 0.1429  plane waves:    2741
 k-point  65 :   0.3750-0.4286 0.1429  plane waves:    2724
 k-point  66 :   0.5000-0.4286 0.1429  plane waves:    2729
 k-point  67 :  -0.3750-0.4286 0.1429  plane waves:    2743
 k-point  68 :  -0.2500-0.4286 0.1429  plane waves:    2743
 k-point  69 :  -0.1250-0.4286 0.1429  plane waves:    2745
 k-point  70 :   0.0000-0.2857 0.1429  plane waves:    2734
 k-point  71 :   0.1250-0.2857 0.1429  plane waves:    2755
 k-point  72 :   0.2500-0.2857 0.1429  plane waves:    2742
 k-point  73 :   0.3750-0.2857 0.1429  plane waves:    2738
 k-point  74 :   0.5000-0.2857 0.1429  plane waves:    2730
 k-point  75 :  -0.3750-0.2857 0.1429  plane waves:    2732
 k-point  76 :  -0.2500-0.2857 0.1429  plane waves:    2728
 k-point  77 :  -0.1250-0.2857 0.1429  plane waves:    2739
 k-point  78 :   0.0000-0.1429 0.1429  plane waves:    2741
 k-point  79 :   0.1250-0.1429 0.1429  plane waves:    2757
 k-point  80 :   0.2500-0.1429 0.1429  plane waves:    2749
 k-point  81 :   0.3750-0.1429 0.1429  plane waves:    2743
 k-point  82 :   0.5000-0.1429 0.1429  plane waves:    2727
 k-point  83 :  -0.3750-0.1429 0.1429  plane waves:    2719
 k-point  84 :  -0.2500-0.1429 0.1429  plane waves:    2727
 k-point  85 :  -0.1250-0.1429 0.1429  plane waves:    2731
 k-point  86 :   0.0000-0.0000 0.2857  plane waves:    2741
 k-point  87 :   0.1250 0.0000 0.2857  plane waves:    2743
 k-point  88 :   0.2500 0.0000 0.2857  plane waves:    2749
 k-point  89 :   0.3750-0.0000 0.2857  plane waves:    2738
 k-point  90 :   0.5000 0.0000 0.2857  plane waves:    2741
 k-point  91 :  -0.3750-0.0000 0.2857  plane waves:    2740
 k-point  92 :  -0.2500-0.0000 0.2857  plane waves:    2738
 k-point  93 :  -0.1250-0.0000 0.2857  plane waves:    2730
 k-point  94 :   0.0000 0.1429 0.2857  plane waves:    2741
 k-point  95 :   0.1250 0.1429 0.2857  plane waves:    2742
 k-point  96 :   0.2500 0.1429 0.2857  plane waves:    2744
 k-point  97 :   0.3750 0.1429 0.2857  plane waves:    2744
 k-point  98 :   0.5000 0.1429 0.2857  plane waves:    2751
 k-point  99 :  -0.3750 0.1429 0.2857  plane waves:    2744
 k-point 100 :  -0.2500 0.1429 0.2857  plane waves:    2738
 k-point 101 :  -0.1250 0.1429 0.2857  plane waves:    2727
 k-point 102 :   0.0000 0.2857 0.2857  plane waves:    2746
 k-point 103 :   0.1250 0.2857 0.2857  plane waves:    2737
 k-point 104 :   0.2500 0.2857 0.2857  plane waves:    2741
 k-point 105 :   0.3750 0.2857 0.2857  plane waves:    2727
 k-point 106 :   0.5000 0.2857 0.2857  plane waves:    2737
 k-point 107 :  -0.3750 0.2857 0.2857  plane waves:    2739
 k-point 108 :  -0.2500 0.2857 0.2857  plane waves:    2744
 k-point 109 :  -0.1250 0.2857 0.2857  plane waves:    2738
 k-point 110 :   0.0000 0.4286 0.2857  plane waves:    2746
 k-point 111 :   0.1250 0.4286 0.2857  plane waves:    2741
 k-point 112 :   0.2500 0.4286 0.2857  plane waves:    2742
 k-point 113 :   0.3750 0.4286 0.2857  plane waves:    2722
 k-point 114 :   0.5000 0.4286 0.2857  plane waves:    2735
 k-point 115 :  -0.3750 0.4286 0.2857  plane waves:    2735
 k-point 116 :  -0.2500 0.4286 0.2857  plane waves:    2739
 k-point 117 :  -0.1250 0.4286 0.2857  plane waves:    2747
 k-point 118 :   0.0000-0.4286 0.2857  plane waves:    2748
 k-point 119 :   0.1250-0.4286 0.2857  plane waves:    2743
 k-point 120 :   0.2500-0.4286 0.2857  plane waves:    2734
 k-point 121 :   0.3750-0.4286 0.2857  plane waves:    2733
 k-point 122 :   0.5000-0.4286 0.2857  plane waves:    2727
 k-point 123 :  -0.3750-0.4286 0.2857  plane waves:    2726
 k-point 124 :  -0.2500-0.4286 0.2857  plane waves:    2738
 k-point 125 :  -0.1250-0.4286 0.2857  plane waves:    2734
 k-point 126 :   0.0000-0.2857 0.2857  plane waves:    2736
 k-point 127 :   0.1250-0.2857 0.2857  plane waves:    2747
 k-point 128 :   0.2500-0.2857 0.2857  plane waves:    2739
 k-point 129 :   0.3750-0.2857 0.2857  plane waves:    2729
 k-point 130 :   0.5000-0.2857 0.2857  plane waves:    2725
 k-point 131 :  -0.3750-0.2857 0.2857  plane waves:    2724
 k-point 132 :  -0.2500-0.2857 0.2857  plane waves:    2740
 k-point 133 :  -0.1250-0.2857 0.2857  plane waves:    2737
 k-point 134 :   0.0000-0.1429 0.2857  plane waves:    2741
 k-point 135 :   0.1250-0.1429 0.2857  plane waves:    2745
 k-point 136 :   0.2500-0.1429 0.2857  plane waves:    2748
 k-point 137 :   0.3750-0.1429 0.2857  plane waves:    2738
 k-point 138 :   0.5000-0.1429 0.2857  plane waves:    2735
 k-point 139 :  -0.3750-0.1429 0.2857  plane waves:    2729
 k-point 140 :  -0.2500-0.1429 0.2857  plane waves:    2739
 k-point 141 :  -0.1250-0.1429 0.2857  plane waves:    2738
 k-point 142 :   0.0000-0.0000 0.4286  plane waves:    2731
 k-point 143 :   0.1250-0.0000 0.4286  plane waves:    2734
 k-point 144 :   0.2500 0.0000 0.4286  plane waves:    2747
 k-point 145 :   0.3750-0.0000 0.4286  plane waves:    2745
 k-point 146 :   0.5000-0.0000 0.4286  plane waves:    2735
 k-point 147 :  -0.3750-0.0000 0.4286  plane waves:    2744
 k-point 148 :  -0.2500 0.0000 0.4286  plane waves:    2737
 k-point 149 :  -0.1250 0.0000 0.4286  plane waves:    2734
 k-point 150 :   0.0000 0.1429 0.4286  plane waves:    2735
 k-point 151 :   0.1250 0.1429 0.4286  plane waves:    2724
 k-point 152 :   0.2500 0.1429 0.4286  plane waves:    2731
 k-point 153 :   0.3750 0.1429 0.4286  plane waves:    2740
 k-point 154 :   0.5000 0.1429 0.4286  plane waves:    2735
 k-point 155 :  -0.3750 0.1429 0.4286  plane waves:    2736
 k-point 156 :  -0.2500 0.1429 0.4286  plane waves:    2737
 k-point 157 :  -0.1250 0.1429 0.4286  plane waves:    2738
 k-point 158 :   0.0000 0.2857 0.4286  plane waves:    2735
 k-point 159 :   0.1250 0.2857 0.4286  plane waves:    2728
 k-point 160 :   0.2500 0.2857 0.4286  plane waves:    2729
 k-point 161 :   0.3750 0.2857 0.4286  plane waves:    2725
 k-point 162 :   0.5000 0.2857 0.4286  plane waves:    2727
 k-point 163 :  -0.3750 0.2857 0.4286  plane waves:    2732
 k-point 164 :  -0.2500 0.2857 0.4286  plane waves:    2736
 k-point 165 :  -0.1250 0.2857 0.4286  plane waves:    2736
 k-point 166 :   0.0000 0.4286 0.4286  plane waves:    2731
 k-point 167 :   0.1250 0.4286 0.4286  plane waves:    2742
 k-point 168 :   0.2500 0.4286 0.4286  plane waves:    2730
 k-point 169 :   0.3750 0.4286 0.4286  plane waves:    2718
 k-point 170 :   0.5000 0.4286 0.4286  plane waves:    2723
 k-point 171 :  -0.3750 0.4286 0.4286  plane waves:    2728
 k-point 172 :  -0.2500 0.4286 0.4286  plane waves:    2738
 k-point 173 :  -0.1250 0.4286 0.4286  plane waves:    2730
 k-point 174 :   0.0000-0.4286 0.4286  plane waves:    2734
 k-point 175 :   0.1250-0.4286 0.4286  plane waves:    2732
 k-point 176 :   0.2500-0.4286 0.4286  plane waves:    2738
 k-point 177 :   0.3750-0.4286 0.4286  plane waves:    2726
 k-point 178 :   0.5000-0.4286 0.4286  plane waves:    2720
 k-point 179 :  -0.3750-0.4286 0.4286  plane waves:    2726
 k-point 180 :  -0.2500-0.4286 0.4286  plane waves:    2735
 k-point 181 :  -0.1250-0.4286 0.4286  plane waves:    2732
 k-point 182 :   0.0000-0.2857 0.4286  plane waves:    2737
 k-point 183 :   0.1250-0.2857 0.4286  plane waves:    2734
 k-point 184 :   0.2500-0.2857 0.4286  plane waves:    2736
 k-point 185 :   0.3750-0.2857 0.4286  plane waves:    2719
 k-point 186 :   0.5000-0.2857 0.4286  plane waves:    2729
 k-point 187 :  -0.3750-0.2857 0.4286  plane waves:    2729
 k-point 188 :  -0.2500-0.2857 0.4286  plane waves:    2728
 k-point 189 :  -0.1250-0.2857 0.4286  plane waves:    2731
 k-point 190 :   0.0000-0.1429 0.4286  plane waves:    2731
 k-point 191 :   0.1250-0.1429 0.4286  plane waves:    2736
 k-point 192 :   0.2500-0.1429 0.4286  plane waves:    2746
 k-point 193 :   0.3750-0.1429 0.4286  plane waves:    2730
 k-point 194 :   0.5000-0.1429 0.4286  plane waves:    2734
 k-point 195 :  -0.3750-0.1429 0.4286  plane waves:    2736
 k-point 196 :  -0.2500-0.1429 0.4286  plane waves:    2733
 k-point 197 :  -0.1250-0.1429 0.4286  plane waves:    2721

 maximum and minimum number of plane-waves per node :       472      441

 maximum number of plane-waves:      2760
 maximum index in each direction: 
   IXMAX=    9   IYMAX=    9   IZMAX=    9
   IXMIN=   -9   IYMIN=   -9   IZMIN=   -9


 real space projection operators:
  total allocation   :       2026.22 KBytes
  max/ min on nodes  :        380.31        258.91


 parallel 3D FFT for wavefunctions:
    minimum data exchange during FFTs selected (reduces bandwidth)
 parallel 3D FFT for charge:
    minimum data exchange during FFTs selected (reduces bandwidth)


 total amount of memory used by VASP MPI-rank0    89134. kBytes
=======================================================================

   base      :      30000. kBytes
   nonlr-proj:       1055. kBytes
   fftplans  :       1853. kBytes
   grid      :       4560. kBytes
   one-center:         12. kBytes
   wavefun   :      51654. kBytes
 
     INWAV:  cpu time    0.0000: real time    0.0000
 Broyden mixing: mesh for mixing (old mesh)
   NGX = 19   NGY = 19   NGZ = 19
  (NGX  = 80   NGY  = 80   NGZ  = 80)
  gives a total of   6859 points

 initial charge density was supplied:
 charge density of overlapping atoms calculated
 number of electron      51.0000000 magnetization       5.4000000
 keeping initial charge density in first step


--------------------------------------------------------------------------------------------------------


 Maximum index for non-local projection operator          719
 Maximum index for augmentation-charges          770 (set IRDMAX)


--------------------------------------------------------------------------------------------------------


 First call to EWALD:  gamma=   0.380
 Maximum number of real-space cells 3x 3x 3
 Maximum number of reciprocal cells 3x 3x 3

    FEWALD:  cpu time    0.0011: real time    0.0011


--------------------------------------- Iteration      1(   1)  ---------------------------------------


    POTLOK:  cpu time    0.0758: real time    0.0758
    SETDIJ:  cpu time    0.2110: real time    0.2110
     EDDAV:  cpu time   22.7167: real time   22.7186
 BZINTS: Fermi energy:   14.335892;   51.000000 electrons
         Band energy:-0.155422E+03;  BLOECHL correction:   -0.260032
       DOS:  cpu time    0.1452: real time    0.1452
    --------------------------------------------
      LOOP:  cpu time   23.1487: real time   23.1506

 eigenvalue-minimisations  : 26792
 total energy-change (2. order) : 0.3622120E+03  (-0.2806239E+04)
 number of electron      51.0000000 magnetization       5.4000000
 augmentation part       51.0000000 magnetization       5.4000000

 Free energy of the ion-electron system (eV)
  ---------------------------------------------------
  alpha Z        PSCENC =        96.78760381
  Ewald energy   TEWEN  =     -2182.59744366
  -Hartree energ DENC   =     -1260.93297002
  -exchange      EXHF   =         0.00000000
  -V(xc)+E(xc)   XCENC  =       232.49751899
  PAW double counting   =      2851.65822685    -2881.41598340
  entropy T*S    EENTRO =         0.00000000
  eigenvalues    EBANDS =      -155.42172435
  atomic energy  EATOM  =      3661.63673913
  Solvation  Ediel_sol  =         0.00000000
  ---------------------------------------------------
  free energy    TOTEN  =       362.21196737 eV

  energy without entropy =      362.21196737  energy(sigma->0) =      362.21196737


--------------------------------------------------------------------------------------------------------




--------------------------------------- Iteration      1(   2)  ---------------------------------------


     EDDAV:  cpu time   27.4690: real time   27.4711
 BZINTS: Fermi energy:    0.539799;   51.000000 electrons
         Band energy:-0.535545E+03;  BLOECHL correction:   -0.019796
       DOS:  cpu time    0.1560: real time    0.1560
    --------------------------------------------
      LOOP:  cpu time   27.6250: real time   27.6271

 eigenvalue-minimisations  : 34926
 total energy-change (2. order) :-0.3801230E+03  (-0.3665360E+03)
 number of electron      51.0000000 magnetization       5.4000000
 augmentation part       51.0000000 magnetization       5.4000000

 Free energy of the ion-electron system (eV)
  ---------------------------------------------------
  alpha Z        PSCENC =        96.78760381
  Ewald energy   TEWEN  =     -2182.59744366
  -Hartree energ DENC   =     -1260.93297002
  -exchange      EXHF   =         0.00000000
  -V(xc)+E(xc)   XCENC  =       232.49751899
  PAW double counting   =      2851.65822685    -2881.41598340
  entropy T*S    EENTRO =         0.00000000
  eigenvalues    EBANDS =      -535.54475393
  atomic energy  EATOM  =      3661.63673913
  Solvation  Ediel_sol  =         0.00000000
  ---------------------------------------------------
  free energy    TOTEN  =       -17.91106222 eV

  energy without entropy =      -17.91106222  energy(sigma->0) =      -17.91106222


--------------------------------------------------------------------------------------------------------




--------------------------------------- Iteration      1(   3)  ---------------------------------------


     EDDAV:  cpu time   30.3267: real time   30.3292
 BZINTS: Fermi energy:   -0.112393;   51.000000 electrons
         Band energy:-0.560953E+03;  BLOECHL correction:   -0.010279
       DOS:  cpu time    0.1336: real time    0.1336
    --------------------------------------------
      LOOP:  cpu time   30.4603: real time   30.4628

 eigenvalue-minimisations  : 39700
 total energy-change (2. order) :-0.2540832E+02  (-0.2510181E+02)
 number of electron      51.0000000 magnetization       5.4000000
 augmentation part       51.0000000 magnetization       5.4000000

 Free energy of the ion-electron system (eV)
  ---------------------------------------------------
  alpha Z        PSCENC =        96.78760381
  Ewald energy   TEWEN  =     -2182.59744366
[...]
     25      -0.1383      1.00000
     26       0.5676      1.02943
     27       1.3632      0.00000
     28       1.4964      0.00000
     29       1.8744      0.00000
     30       6.4977      0.00000
     31       7.4832      0.00000
     32       8.8404      0.00000
     33       9.2884      0.00000
     34       9.8921      0.00000

 k-point   192 :       0.2500   -0.1429    0.4286
  band No.  band energies     occupation 
      1     -44.3395      1.00000
      2     -25.5049      1.00000
      3     -24.6374      1.00000
      4     -24.2985      1.00000
      5     -23.8640      1.00000
      6     -14.6700      1.00000
      7     -14.0602      1.00000
      8     -13.6336      1.00000
      9     -12.9894      1.00000
     10      -7.8304      1.00000
     11      -7.4958      1.00000
     12      -6.9814      1.00000
     13      -6.8940      1.00000
     14      -6.5693      1.00000
     15      -6.3107      1.00000
     16      -5.9840      1.00000
     17      -5.7279      1.00000
     18      -4.9984      1.00000
     19      -4.1344      1.00000
     20      -3.9258      1.00000
     21      -3.5314      1.00000
     22      -1.2964      1.00000
     23      -0.9349      1.00000
     24      -0.7300      1.00000
     25      -0.1546      1.00000
     26       0.5675      1.03197
     27       1.3506      0.00000
     28       1.4801      0.00000
     29       1.8813      0.00000
     30       6.3507      0.00000
     31       7.8805      0.00000
     32       8.2484      0.00000
     33       9.1640      0.00000
     34      10.7096      0.00000

 k-point   193 :       0.3750   -0.1429    0.4286
  band No.  band energies     occupation 
      1     -44.3395      1.00000
      2     -25.5037      1.00000
      3     -24.6362      1.00000
      4     -24.3015      1.00000
      5     -23.8637      1.00000
      6     -14.6793      1.00000
      7     -14.0944      1.00000
      8     -13.5709      1.00000
      9     -13.0117      1.00000
     10      -7.8172      1.00000
     11      -7.4365      1.00000
     12      -7.0195      1.00000
     13      -6.7953      1.00000
     14      -6.6136      1.00000
     15      -6.3856      1.00000
     16      -5.9698      1.00000
     17      -5.7482      1.00000
     18      -5.0108      1.00000
     19      -4.1296      1.00000
     20      -3.9239      1.00000
     21      -3.5307      1.00000
     22      -1.2599      1.00000
     23      -0.9583      1.00000
     24      -0.7195      1.00000
     25      -0.1677      1.00000
     26       0.5561      1.04559
     27       1.3439      0.00000
     28       1.4771      0.00000
     29       1.8809      0.00000
     30       6.6544      0.00000
     31       7.1447      0.00000
     32       8.6963      0.00000
     33       9.0760      0.00000
     34      10.9739      0.00000

 k-point   194 :       0.5000   -0.1429    0.4286
  band No.  band energies     occupation 
      1     -44.3395      1.00000
      2     -25.5035      1.00000
      3     -24.6360      1.00000
      4     -24.3026      1.00000
      5     -23.8633      1.00000
      6     -14.6923      1.00000
      7     -14.0809      1.00000
      8     -13.5602      1.00000
      9     -13.0236      1.00000
     10      -7.8207      1.00000
     11      -7.4450      1.00000
     12      -7.0554      1.00000
     13      -6.7521      1.00000
     14      -6.5870      1.00000
     15      -6.4039      1.00000
     16      -5.9527      1.00000
     17      -5.7654      1.00000
     18      -5.0020      1.00000
     19      -4.1340      1.00000
     20      -3.9318      1.00000
     21      -3.5261      1.00000
     22      -1.2640      1.00000
     23      -0.9519      1.00000
     24      -0.7014      1.00000
     25      -0.1713      1.00000
     26       0.5368      1.06033
     27       1.3475      0.00000
     28       1.4877      0.00000
     29       1.8736      0.00000
     30       6.4148      0.00000
     31       7.4310      0.00000
     32       8.5546      0.00000
     33       9.2261      0.00000
     34      10.9003      0.00000

 k-point   195 :      -0.3750   -0.1429    0.4286
  band No.  band energies     occupation 
      1     -44.3395      1.00000
      2     -25.5042      1.00000
      3     -24.6367      1.00000
      4     -24.3009      1.00000
      5     -23.8631      1.00000
      6     -14.6946      1.00000
      7     -14.0361      1.00000
      8     -13.6059      1.00000
      9     -13.0205      1.00000
     10      -7.8309      1.00000
     11      -7.5113      1.00000
     12      -7.0481      1.00000
     13      -6.7929      1.00000
     14      -6.5257      1.00000
     15      -6.3553      1.00000
     16      -5.9542      1.00000
     17      -5.7681      1.00000
     18      -4.9765      1.00000
     19      -4.1447      1.00000
     20      -3.9446      1.00000
     21      -3.5201      1.00000
     22      -1.3045      1.00000
     23      -0.9215      1.00000
     24      -0.6897      1.00000
     25      -0.1644      1.00000
     26       0.5242      1.06740
     27       1.3602      0.00000
     28       1.5051      0.00000
     29       1.8645      0.00000
     30       6.1938      0.00000
     31       8.1181      0.00000
     32       8.2595      0.00000
     33       9.0757      0.00000
     34      10.6264      0.00000

 k-point   196 :      -0.2500   -0.1429    0.4286
  band No.  band energies     occupation 
      1     -44.3395      1.00000
      2     -25.5054      1.00000
      3     -24.6381      1.00000
      4     -24.2977      1.00000
      5     -23.8630      1.00000
      6     -14.6622      1.00000
      7     -14.0177      1.00000
      8     -13.6745      1.00000
      9     -13.0076      1.00000
     10      -7.8384      1.00000
     11      -7.5333      1.00000
     12      -7.0495      1.00000
     13      -6.7851      1.00000
     14      -6.5478      1.00000
     15      -6.3050      1.00000
     16      -5.9904      1.00000
     17      -5.7481      1.00000
     18      -4.9493      1.00000
     19      -4.1550      1.00000
     20      -3.9550      1.00000
     21      -3.5165      1.00000
     22      -1.3497      1.00000
     23      -0.9023      1.00000
     24      -0.6969      1.00000
     25      -0.1498      1.00000
     26       0.5283      1.06514
     27       1.3744      0.00000
     28       1.5202      0.00000
     29       1.8587      0.00000
     30       6.4703      0.00000
     31       7.6607      0.00000
     32       8.5576      0.00000
     33       9.1990      0.00000
     34      10.0452      0.00000

 k-point   197 :      -0.1250   -0.1429    0.4286
  band No.  band energies     occupation 
      1     -44.3395      1.00000
      2     -25.5064      1.00000
      3     -24.6392      1.00000
      4     -24.2945      1.00000
      5     -23.8633      1.00000
      6     -14.6176      1.00000
      7     -14.0296      1.00000
      8     -13.7301      1.00000
      9     -12.9895      1.00000
     10      -7.8187      1.00000
     11      -7.5200      1.00000
     12      -7.0766      1.00000
     13      -6.8169      1.00000
     14      -6.5917      1.00000
     15      -6.2294      1.00000
     16      -6.0327      1.00000
     17      -5.7184      1.00000
     18      -4.9369      1.00000
     19      -4.1590      1.00000
     20      -3.9572      1.00000
     21      -3.5173      1.00000
     22      -1.3787      1.00000
     23      -0.9006      1.00000
     24      -0.7160      1.00000
     25      -0.1366      1.00000
     26       0.5443      1.05340
     27       1.3801      0.00000
     28       1.5254      0.00000
     29       1.8588      0.00000
     30       7.1303      0.00000
     31       7.3698      0.00000
     32       8.1374      0.00000
     33       8.9018      0.00000
     34      11.2854      0.00000


--------------------------------------------------------------------------------------------------------


 soft charge-density along one line, spin component           1
         0         1         2         3         4         5         6         7         8         9
 total charge-density along one line
 
 soft charge-density along one line, spin component           2
         0         1         2         3         4         5         6         7         8         9
 total charge-density along one line
 
 pseudopotential strength for first ion, spin component:           1
-39.917   3.062   0.000  -0.000  -0.001
  3.062  -9.430   0.000  -0.001  -0.002
  0.000   0.000   0.184   0.000   0.000
 -0.000  -0.001   0.000   0.184  -0.000
 -0.001  -0.002   0.000  -0.000   0.181
 pseudopotential strength for first ion, spin component:           2
-39.916   3.062   0.000  -0.000  -0.001
  3.062  -9.430   0.000  -0.001  -0.002
  0.000   0.000   0.184   0.000   0.000
 -0.000  -0.001   0.000   0.184  -0.000
 -0.001  -0.002   0.000  -0.000   0.181
 total augmentation occupancy for first ion, spin component:           1
  2.000  -0.011  -0.000   0.001   0.002
 -0.011   0.490  -0.000  -0.000  -0.005
 -0.000  -0.000   0.012  -0.001  -0.001
  0.001  -0.000  -0.001   0.014   0.001
  0.002  -0.005  -0.001   0.001   0.025
 total augmentation occupancy for first ion, spin component:           2
 -0.000  -0.000   0.000   0.000  -0.000
 -0.000  -0.000  -0.000  -0.000   0.000
  0.000  -0.000  -0.000   0.000  -0.000
  0.000  -0.000   0.000  -0.000   0.000
 -0.000   0.000  -0.000   0.000   0.000


------------------------ aborting loop because EDIFF is reached ----------------------------------------


 


 total charge     
 
# of ion       s       p       d       tot
------------------------------------------
    1        2.008   0.036   0.000   2.045
    2        1.610   3.260   0.000   4.871
    3        1.611   3.265   0.000   4.876
    4        1.610   3.265   0.000   4.875
    5        1.610   3.265   0.000   4.875
    6        1.623   3.232   0.000   4.855
    7        1.605   3.271   0.000   4.876
    8        1.616   3.268   0.000   4.885
    9        1.605   3.272   0.000   4.877
--------------------------------------------------
tot         14.899  26.135   0.000  41.034
 


 magnetization (x)
 
# of ion       s       p       d       tot
------------------------------------------
    1       -0.000  -0.000   0.000  -0.000
    2       -0.000  -0.002   0.000  -0.002
    3       -0.000  -0.002   0.000  -0.002
    4       -0.000  -0.001   0.000  -0.001
    5       -0.000  -0.001   0.000  -0.001
    6        0.000   0.001   0.000   0.001
    7        0.000   0.004   0.000   0.004
    8        0.000   0.001   0.000   0.001
    9        0.000   0.004   0.000   0.004
--------------------------------------------------
tot          0.000   0.003   0.000   0.003
 
    CHARGE:  cpu time    0.7890: real time    0.7890
    FORLOC:  cpu time    0.0030: real time    0.0030
    FORNL :  cpu time    4.1200: real time    4.1202
    STRESS:  cpu time   12.2953: real time   12.2958
    FORCOR:  cpu time    0.0675: real time    0.0675
    FORHAR:  cpu time    0.0095: real time    0.0095
    MIXING:  cpu time    0.0035: real time    0.0035
    OFIELD:  cpu time    0.0000: real time    0.0000

  FORCE on cell =-STRESS in cart. coord.  units (eV):
  Direction    XX          YY          ZZ          XY          YZ          ZX
  --------------------------------------------------------------------------------------
  Alpha Z    96.78760    96.78760    96.78760
  Ewald    -481.69658  -795.71323  -905.19139  -166.61538    23.05848   -45.22601
  Hartree   351.63842   476.95156   452.83651    31.92311    -3.84114    18.72390
  E(xc)    -246.20364  -248.50837  -248.94099    -1.04028     0.17252    -0.31590
  Local    -577.85386  -512.40852  -400.19566    79.30117   -11.91733     8.15266
  n-local  -196.71099  -191.13196  -191.29468     1.90748    -0.11670     0.48873
  augment    60.11812    68.82035    70.53887     4.04021    -0.56252     1.32781
  Kinetic   987.82366  1104.25510  1125.76133    55.24133    -7.18980    17.67877
  Fock        0.00000     0.00000     0.00000     0.00000     0.00000     0.00000
  -------------------------------------------------------------------------------------
  Total      -6.09726    -0.94747     0.30160     4.75765    -0.39649     0.82997
  in kB     -96.08578   -14.93098     4.75291    74.97511    -6.24829    13.07939
  external pressure =      -35.42 kB  Pullay stress =        0.00 kB


 VOLUME and BASIS-vectors are now :
 -----------------------------------------------------------------------------
  energy-cutoff  :      520.00
  volume of cell :      101.67
      direct lattice vectors                 reciprocal lattice vectors
     4.678294000  0.030675000  1.916040000     0.227188009 -0.075599135 -0.031592919
     1.696138000  4.453103000  1.541215000    -0.007945854  0.222105004  0.015845164
     0.591615000 -0.340467000  5.069074000    -0.083458053 -0.038953978  0.204398770

  length of vectors
     5.055549919  5.008228641  5.114825247     0.241511352  0.222811217  0.224190803


 FORCES acting on ions
    electron-ion (+dipol)            ewald-force                    non-local-force                 convergence-correction
 -----------------------------------------------------------------------------------------------
   -.195E+02 0.126E+02 0.103E+02   0.193E+02 -.125E+02 -.104E+02   0.235E+00 0.650E-02 0.348E-01   0.147E-03 0.428E-05 0.288E-03
   0.241E+03 -.118E+03 0.327E+02   -.284E+03 0.131E+03 -.288E+02   0.443E+02 -.137E+02 -.408E+01   0.134E-02 -.101E-02 -.800E-03
   -.252E+03 0.186E+02 0.104E+03   0.296E+03 -.285E+02 -.114E+03   -.450E+02 0.107E+02 0.988E+01   -.272E-02 0.156E-02 -.397E-03
   -.209E+03 0.178E+03 -.104E+02   0.248E+03 -.200E+03 0.991E+01   -.407E+02 0.227E+02 0.693E+00   -.131E-02 -.660E-03 0.463E-03
   0.263E+03 -.152E+02 -.338E+02   -.305E+03 0.302E+02 0.349E+02   0.430E+02 -.160E+02 -.120E+01   0.128E-02 -.115E-02 -.582E-03
   0.239E+03 -.151E+03 -.113E+03   -.284E+03 0.170E+03 0.120E+03   0.466E+02 -.197E+02 -.768E+01   0.157E-02 -.186E-03 -.429E-03
   -.216E+03 0.124E+03 0.910E+02   0.253E+03 -.143E+03 -.102E+03   -.387E+02 0.197E+02 0.114E+02   -.291E-02 0.788E-03 -.103E-03
   -.278E+03 0.227E+02 -.662E+02   0.325E+03 -.350E+02 0.673E+02   -.480E+02 0.133E+02 -.981E+00   0.170E-03 0.560E-03 0.503E-03
   0.230E+03 -.702E+02 -.136E+02   -.268E+03 0.876E+02 0.230E+02   0.392E+02 -.182E+02 -.968E+01   0.134E-02 -.493E-04 -.162E-03
 -----------------------------------------------------------------------------------------------
   -.834E+00 0.122E+01 0.163E+01   0.114E-12 0.284E-13 0.284E-13   0.839E+00 -.123E+01 -.162E+01   -.109E-02 -.134E-03 -.122E-02
 
 
 POSITION                                       TOTAL-FORCE (eV/Angst)
 -----------------------------------------------------------------------------------
      4.15692      3.32055      6.26218        -0.019287      0.023934     -0.021741
      4.99036      1.23099      6.28590         1.508215     -0.810894     -0.201630
      1.51416      0.80532      4.19453        -1.233425      0.747255      0.132029
      2.02922      3.04066      2.54942        -1.537087      0.914875      0.164311
      5.52830      3.56563      4.56771         0.967706     -1.040664     -0.109991
      4.50575      1.07781      3.29673         1.589366     -0.877354     -0.039371
      2.41485      3.05310      5.19423        -1.328722      0.838712      0.223712
      1.01359      0.63174      1.28058        -1.118806      1.029715      0.101331
      5.92513      3.58247      7.33295         1.172040     -0.825580     -0.248650
 -----------------------------------------------------------------------------------
    total drift:                                0.003668     -0.005610      0.003679


--------------------------------------------------------------------------------------------------------



  FREE ENERGIE OF THE ION-ELECTRON SYSTEM (eV)
  ---------------------------------------------------
  free  energy   TOTEN  =       -43.91187949 eV

  energy  without entropy=      -43.91187949  energy(sigma->0) =      -43.91187949
 


--------------------------------------------------------------------------------------------------------


    POTLOK:  cpu time    0.2720: real time    0.2720


--------------------------------------------------------------------------------------------------------


     LOOP+:  cpu time  523.8906: real time  523.9291
 -----------------------------------------------------------------------------
|                                                                             |
|           W    W    AA    RRRRR   N    N  II  N    N   GGGG   !!!           |
|           W    W   A  A   R    R  NN   N  II  NN   N  G    G  !!!           |
|           W    W  A    A  R    R  N N  N  II  N N  N  G       !!!           |
|           W WW W  AAAAAA  RRRRR   N  N N  II  N  N N  G  GGG   !            |
|           WW  WW  A    A  R   R   N   NN  II  N   NN  G    G                |
|           W    W  A    A  R    R  N    N  II  N    N   GGGG   !!!           |
|                                                                             |
|     Tetrahedron method does not include variations of the Fermi             |
|     occupations, so forces and stress will be inaccurate. We suggest        |
|     using a different smearing scheme ISMEAR = 1 or 2 for metals in         |
|     relaxations.                                                            |
|                                                                             |
 -----------------------------------------------------------------------------

    4ORBIT:  cpu time    0.0000: real time    0.0000
 


 total charge     
 
# of ion       s       p       d       tot
------------------------------------------
    1        2.008   0.036   0.000   2.045
    2        1.610   3.260   0.000   4.871
    3        1.611   3.265   0.000   4.876
    4        1.610   3.265   0.000   4.875
    5        1.610   3.265   0.000   4.875
    6        1.623   3.232   0.000   4.855
    7        1.605   3.271   0.000   4.876
    8        1.616   3.268   0.000   4.885
    9        1.605   3.272   0.000   4.877
--------------------------------------------------
tot         14.899  26.135   0.000  41.034
 


 magnetization (x)
 
# of ion       s       p       d       tot
------------------------------------------
    1       -0.000  -0.000   0.000  -0.000
    2       -0.000  -0.002   0.000  -0.002
    3       -0.000  -0.002   0.000  -0.002
    4       -0.000  -0.001   0.000  -0.001
    5       -0.000  -0.001   0.000  -0.001
    6        0.000   0.001   0.000   0.001
    7        0.000   0.004   0.000   0.004
    8        0.000   0.001   0.000   0.001
    9        0.000   0.004   0.000   0.004
--------------------------------------------------
tot          0.000   0.003   0.000   0.003
 
 BZINTS: Fermi energy:    0.800285;   51.000000 electrons
         Band energy:-0.542555E+03;  BLOECHL correction:   -0.025778

 total amount of memory used by VASP MPI-rank0    89134. kBytes
=======================================================================

   base      :      30000. kBytes
   nonlr-proj:       1055. kBytes
   fftplans  :       1853. kBytes
   grid      :       4560. kBytes
   one-center:         12. kBytes
   wavefun   :      51654. kBytes
 
  
  
 General timing and accounting informations for this job:
 ========================================================
  
                  Total CPU time used (sec):      530.608
                            User time (sec):      529.913
                          System time (sec):        0.696
                         Elapsed time (sec):      530.896
  
                   Maximum memory used (kb):      219848.
                   Average memory used (kb):           0.
  
                          Minor page faults:        23319
                          Major page faults:            0
                 Voluntary context switches:           69
