       N       E                     dE             d eps       ncg     rms          rms(c)
DAV:   1     0.105970135882E+04    0.10597E+04   -0.68597E+04  5856   0.133E+03
DAV:   2    -0.292862920487E+02   -0.10890E+04   -0.10057E+04  6856   0.288E+02
DAV:   3    -0.166377327450E+03   -0.13709E+03   -0.13532E+03  7950   0.966E+01
DAV:   4    -0.182251879683E+03   -0.15875E+02   -0.15773E+02 10624   0.290E+01
DAV:   5    -0.185395598353E+03   -0.31437E+01   -0.31422E+01  9584   0.850E+00    0.336E+01
DAV:   6    -0.185793860319E+03   -0.39826E+00   -0.92351E+00  7648   0.708E+00    0.185E+01
DAV:   7    -0.187984716928E+03   -0.21909E+01   -0.31582E+00  7560   0.427E+00    0.111E+01
DAV:   8    -0.188862918307E+03   -0.87820E+00   -0.14096E+00  7112   0.306E+00    0.246E+00
DAV:   9    -0.188941371898E+03   -0.78454E-01   -0.20058E-01  8176   0.132E+00    0.111E+00
DAV:  10    -0.188955110649E+03   -0.13739E-01   -0.38837E-02  7728   0.508E-01    0.399E-01
DAV:  11    -0.188959196075E+03   -0.40854E-02   -0.56941E-03  7096   0.240E-01    0.203E-01
DAV:  12    -0.188961231421E+03   -0.20353E-02   -0.21993E-03  8016   0.131E-01    0.106E-01
DAV:  13    -0.188962245475E+03   -0.10141E-02   -0.75968E-04  7032   0.704E-02    0.417E-02
DAV:  14    -0.188962569353E+03   -0.32388E-03   -0.30330E-04  6984   0.433E-02    0.225E-02
DAV:  15    -0.188962652148E+03   -0.82795E-04   -0.91719E-05  6288   0.246E-02    0.116E-02
DAV:  16    -0.188962671744E+03   -0.19597E-04   -0.20523E-05  5648   0.129E-02    0.512E-03
DAV:  17    -0.188962676105E+03   -0.43605E-05   -0.49304E-06  4448   0.716E-03
   1 F= -.18896268E+03 E0= -.18896268E+03  d E =0.000000E+00  mag=    -0.0003
