   14   14    1    2
  0.1208744E+02  0.8926415E-09  0.8444792E-09  0.4767268E-09  0.5000000E-15
  1.000000000000000E-004
  CAR 
 unknown system                          
     80     64     56
 
  0.0000000E+00  0.0000000E+00  0.0000000E+00  0.2915452E-02
    1      -22.156542    -22.156462   1.000000   1.000000
    2      -21.371075    -21.370999   1.000000   1.000000
    3      -20.549473    -20.549394   1.000000   1.000000
    4      -19.061740    -19.061676   1.000000   1.000000
    5      -19.050829    -19.050765   1.000000   1.000000
    6      -18.956933    -18.956863   1.000000   1.000000
    7      -17.409428    -17.409375   1.000000   1.000000
    8      -16.946717    -16.946672   1.000000   1.000000
    9      -16.900872    -16.900830   1.000000   1.000000
   10      -16.895448    -16.895406   1.000000   1.000000
   11      -12.295312    -12.295232   1.000000   1.000000
   12      -10.608070    -10.607986   1.000000   1.000000
   13       -8.521752     -8.521667   1.000000   1.000000
   14       -7.346257     -7.346176   1.000000   1.000000
   15       -7.125324     -7.125244   1.000000   1.000000
   16       -6.905880     -6.905799   1.000000   1.000000
   17       -5.007739     -5.007678   1.000000   1.000000
   18       -4.870547     -4.870485   1.000000   1.000000
   19       -4.391039     -4.390965   1.000000   1.000000
   20       -3.620640     -3.620589   1.000000   1.000000
   21       -3.514609     -3.514548   1.000000   1.000000
   22       -3.330486     -3.330420   1.000000   1.000000
   23       -3.267306     -3.267253   1.000000   1.000000
   24       -3.263628     -3.263572   1.000000   1.000000
   25       -2.678280     -2.678229   1.000000   1.000000
   26       -2.552365     -2.552315   1.000000   1.000000
   27       -1.553714     -1.553680   1.000000   1.000000
   28       -1.265903     -1.265872   1.000000   1.000000
   29       -1.232670     -1.232644   1.000000   1.000000
   30       -0.988270     -0.988239   1.000000   1.000000
   31       -0.935812     -0.935785   1.000000   1.000000
   32       -0.553369     -0.553351   1.000000   1.000000
   33       -0.003141     -0.003120   1.000000   1.000000
   34        0.008787      0.008810   1.000000   1.000000
   35        0.129970      0.129984   1.000000   1.000000
   36        0.249085      0.249100   1.000000   1.000000
   37        0.279420      0.279436   1.000000   1.000000
   38        0.495807      0.495820   1.000000   1.000000
   39        0.500608      0.500612   1.000000   1.000000
   40        0.632568      0.632575   1.000000   1.000000
   41        7.281873      7.281959   0.000000   0.000000
   42        8.548652      8.548743   0.000000   0.000000
   43        8.961789      8.961944   0.000000   0.000000
   44        9.286897      9.287012   0.000000   0.000000
   45        9.457548      9.457684   0.000000   0.000000
   46       10.002563     10.002689   0.000000   0.000000
   47       10.359298     10.359449   0.000000   0.000000
   48       10.660327     10.660381   0.000000   0.000000
   49       10.662131     10.662276   0.000000   0.000000
   50       10.810841     10.810987   0.000000   0.000000
   51       11.540869     11.541004   0.000000   0.000000
   52       11.848174     11.848296   0.000000   0.000000
   53       12.144465     12.144550   0.000000   0.000000
   54       12.220607     12.220754   0.000000   0.000000
   55       13.507263     13.507206   0.000000   0.000000
   56       14.155076     14.272391   0.000000   0.000000
 
  0.1428571E+00  0.5186458E-17  0.4570685E-14  0.2332362E-01
    1      -22.115454    -22.115374   1.000000   1.000000
    2      -21.353914    -21.353837   1.000000   1.000000
    3      -20.565510    -20.565431   1.000000   1.000000
    4      -19.172826    -19.172760   1.000000   1.000000
    5      -19.055132    -19.055068   1.000000   1.000000
    6      -18.969135    -18.969065   1.000000   1.000000
    7      -17.352870    -17.352819   1.000000   1.000000
    8      -16.953058    -16.953014   1.000000   1.000000
    9      -16.918613    -16.918570   1.000000   1.000000
   10      -16.898039    -16.897997   1.000000   1.000000
   11      -12.192100    -12.192019   1.000000   1.000000
   12      -10.536640    -10.536557   1.000000   1.000000
   13       -8.637679     -8.637595   1.000000   1.000000
   14       -7.423926     -7.423845   1.000000   1.000000
   15       -7.026173     -7.026093   1.000000   1.000000
   16       -6.876728     -6.876647   1.000000   1.000000
   17       -4.934096     -4.934035   1.000000   1.000000
   18       -4.799580     -4.799518   1.000000   1.000000
   19       -4.388548     -4.388475   1.000000   1.000000
   20       -3.754153     -3.754095   1.000000   1.000000
   21       -3.492410     -3.492354   1.000000   1.000000
   22       -3.383368     -3.383304   1.000000   1.000000
   23       -3.214396     -3.214342   1.000000   1.000000
   24       -3.188364     -3.188309   1.000000   1.000000
   25       -2.655101     -2.655051   1.000000   1.000000
   26       -2.602527     -2.602477   1.000000   1.000000
   27       -1.567246     -1.567212   1.000000   1.000000
   28       -1.371172     -1.371143   1.000000   1.000000
   29       -1.265681     -1.265651   1.000000   1.000000
   30       -1.101005     -1.100974   1.000000   1.000000
   31       -0.981844     -0.981816   1.000000   1.000000
   32       -0.612072     -0.612054   1.000000   1.000000
   33        0.017433      0.017454   1.000000   1.000000
   34        0.052269      0.052289   1.000000   1.000000
   35        0.158228      0.158243   1.000000   1.000000
   36        0.238576      0.238592   1.000000   1.000000
   37        0.307895      0.307910   1.000000   1.000000
   38        0.444574      0.444588   1.000000   1.000000
   39        0.509666      0.509672   1.000000   1.000000
   40        0.596945      0.596953   1.000000   1.000000
   41        7.545156      7.545243  -0.000000  -0.000000
   42        8.613781      8.613877   0.000000   0.000000
   43        9.094114      9.094265   0.000000   0.000000
   44        9.411811      9.411925   0.000000   0.000000
   45        9.552598      9.552733   0.000000   0.000000
   46       10.015447     10.015580   0.000000   0.000000
   47       10.350609     10.350755   0.000000   0.000000
   48       10.523665     10.523765   0.000000   0.000000
   49       10.716238     10.716359   0.000000   0.000000
   50       10.924345     10.924476   0.000000   0.000000
   51       11.429600     11.429730   0.000000   0.000000
   52       11.866612     11.866728   0.000000   0.000000
   53       12.145695     12.145824   0.000000   0.000000
   54       12.217451     12.217549   0.000000   0.000000
   55       13.379364     13.379297   0.000000   0.000000
   56       14.116497     14.310002   0.000000   0.000000
 
  0.2857143E+00  0.1409794E-16 -0.5114467E-14  0.2332362E-01
    1      -22.016285    -22.016205   1.000000   1.000000
    2      -21.297706    -21.297629   1.000000   1.000000
    3      -20.633050    -20.632972   1.000000   1.000000
    4      -19.407579    -19.407509   1.000000   1.000000
    5      -19.056310    -19.056246   1.000000   1.000000
    6      -18.981691    -18.981622   1.000000   1.000000
    7      -17.262706    -17.262656   1.000000   1.000000
    8      -16.973877    -16.973834   1.000000   1.000000
    9      -16.946529    -16.946485   1.000000   1.000000
   10      -16.902946    -16.902903   1.000000   1.000000
   11      -11.957892    -11.957812   1.000000   1.000000
   12      -10.327339    -10.327257   1.000000   1.000000
   13       -8.937006     -8.936923   1.000000   1.000000
   14       -7.533136     -7.533054   1.000000   1.000000
   15       -6.900187     -6.900107   1.000000   1.000000
   16       -6.776290     -6.776210   1.000000   1.000000
   17       -4.752586     -4.752524   1.000000   1.000000
   18       -4.609210     -4.609148   1.000000   1.000000
   19       -4.377454     -4.377382   1.000000   1.000000
   20       -3.888877     -3.888814   1.000000   1.000000
   21       -3.669507     -3.669447   1.000000   1.000000
   22       -3.486065     -3.486003   1.000000   1.000000
   23       -3.138584     -3.138531   1.000000   1.000000
   24       -3.022955     -3.022901   1.000000   1.000000
   25       -2.806687     -2.806635   1.000000   1.000000
   26       -2.447218     -2.447173   1.000000   1.000000
   27       -1.715198     -1.715164   1.000000   1.000000
   28       -1.528540     -1.528508   1.000000   1.000000
   29       -1.419605     -1.419573   1.000000   1.000000
   30       -1.279836     -1.279805   1.000000   1.000000
   31       -1.074592     -1.074564   1.000000   1.000000
   32       -0.729301     -0.729282   1.000000   1.000000
   33        0.054680      0.054699   1.000000   1.000000
   34        0.102247      0.102267   1.000000   1.000000
   35        0.200274      0.200289   1.000000   1.000000
   36        0.241974      0.241990   1.000000   1.000000
   37        0.309143      0.309159   1.000000   1.000000
   38        0.441346      0.441358   1.000000   1.000000
   39        0.506669      0.506678   1.000000   1.000000
   40        0.559412      0.559420   1.000000   1.000000
   41        8.135235      8.135334   0.000000   0.000000
   42        8.785677      8.785779   0.000000   0.000000
   43        9.390731      9.390871   0.000000   0.000000
   44        9.597423      9.597555   0.000000   0.000000
   45        9.767697      9.767833   0.000000   0.000000
   46       10.096505     10.096643   0.000000   0.000000
   47       10.372544     10.372668   0.000000   0.000000
   48       10.429997     10.430118   0.000000   0.000000
   49       10.805723     10.805845   0.000000   0.000000
   50       11.115096     11.115223   0.000000   0.000000
   51       11.195003     11.195122   0.000000   0.000000
   52       11.814189     11.814282   0.000000   0.000000
   53       12.019929     12.020060   0.000000   0.000000
   54       12.247164     12.247241   0.000000   0.000000
   55       13.167008     13.166965   0.000000   0.000000
   56       13.806160     13.802020   0.000000   0.000000
 
  0.4285714E+00 -0.2239262E-16 -0.5114459E-15  0.2332362E-01
    1      -21.929849    -21.929769   1.000000   1.000000
    2      -21.210056    -21.209978   1.000000   1.000000
    3      -20.749463    -20.749388   1.000000   1.000000
    4      -19.563571    -19.563499   1.000000   1.000000
    5      -19.057151    -19.057087   1.000000   1.000000
    6      -18.990075    -18.990006   1.000000   1.000000
    7      -17.219456    -17.219408   1.000000   1.000000
    8      -17.005034    -17.004991   1.000000   1.000000
    9      -16.941070    -16.941027   1.000000   1.000000
   10      -16.911567    -16.911525   1.000000   1.000000
   11      -11.769502    -11.769421   1.000000   1.000000
   12      -10.038801    -10.038719   1.000000   1.000000
   13       -9.287534     -9.287452   1.000000   1.000000
   14       -7.601186     -7.601104   1.000000   1.000000
   15       -6.829653     -6.829574   1.000000   1.000000
   16       -6.679843     -6.679762   1.000000   1.000000
   17       -4.555398     -4.555333   1.000000   1.000000
   18       -4.455526     -4.455462   1.000000   1.000000
   19       -4.289659     -4.289594   1.000000   1.000000
   20       -4.020235     -4.020170   1.000000   1.000000
   21       -3.839355     -3.839291   1.000000   1.000000
   22       -3.624852     -3.624790   1.000000   1.000000
   23       -3.183677     -3.183621   1.000000   1.000000
   24       -2.999334     -2.999280   1.000000   1.000000
   25       -2.759682     -2.759632   1.000000   1.000000
   26       -2.218422     -2.218382   1.000000   1.000000
   27       -1.930315     -1.930278   1.000000   1.000000
   28       -1.708210     -1.708177   1.000000   1.000000
   29       -1.560556     -1.560523   1.000000   1.000000
   30       -1.306361     -1.306333   1.000000   1.000000
   31       -1.194455     -1.194427   1.000000   1.000000
   32       -0.796513     -0.796493   1.000000   1.000000
   33       -0.009129     -0.009109   1.000000   1.000000
   34        0.146956      0.146976   1.000000   1.000000
   35        0.197813      0.197828   1.000000   1.000000
   36        0.240697      0.240712   1.000000   1.000000
   37        0.367881      0.367895   1.000000   1.000000
   38        0.433204      0.433217   1.000000   1.000000
   39        0.538957      0.538966   1.000000   1.000000
   40        0.575900      0.575909   1.000000   1.000000
   41        8.504318      8.504429   0.000000   0.000000
   42        9.197007      9.197126   0.000000   0.000000
   43        9.566008      9.566147   0.000000   0.000000
   44        9.688974      9.689109   0.000000   0.000000
   45        9.808658      9.808800   0.000000   0.000000
   46       10.193113     10.193256   0.000000   0.000000
   47       10.373378     10.373487   0.000000   0.000000
   48       10.579039     10.579166   0.000000   0.000000
   49       10.886634     10.886723   0.000000   0.000000
   50       10.960050     10.960175   0.000000   0.000000
   51       11.272437     11.272555   0.000000   0.000000
   52       11.694720     11.694799   0.000000   0.000000
   53       11.851609     11.851721   0.000000   0.000000
   54       12.400444     12.400534   0.000000   0.000000
   55       12.939146     12.939142   0.000000   0.000000
   56       13.437027     13.436995   0.000000   0.000000
 
  0.1428571E+00  0.1428571E+00  0.1268892E-16  0.5830904E-02
    1      -22.133494    -22.133414   1.000000   1.000000
    2      -21.455933    -21.455857   1.000000   1.000000
    3      -20.435098    -20.435019   1.000000   1.000000
    4      -19.067982    -19.067917   1.000000   1.000000
    5      -19.051273    -19.051210   1.000000   1.000000
    6      -19.032405    -19.032336   1.000000   1.000000
    7      -17.369214    -17.369162   1.000000   1.000000
    8      -16.964612    -16.964568   1.000000   1.000000
    9      -16.896392    -16.896350   1.000000   1.000000
   10      -16.894783    -16.894741   1.000000   1.000000
   11      -12.231075    -12.230995   1.000000   1.000000
   12      -10.734573    -10.734489   1.000000   1.000000
   13       -8.417666     -8.417582   1.000000   1.000000
   14       -7.381722     -7.381641   1.000000   1.000000
   15       -7.112274     -7.112195   1.000000   1.000000
   16       -6.915589     -6.915508   1.000000   1.000000
   17       -5.018800     -5.018739   1.000000   1.000000
   18       -4.904363     -4.904300   1.000000   1.000000
   19       -4.352302     -4.352228   1.000000   1.000000
   20       -3.571263     -3.571212   1.000000   1.000000
   21       -3.523064     -3.522999   1.000000   1.000000
   22       -3.406992     -3.406932   1.000000   1.000000
   23       -3.260292     -3.260235   1.000000   1.000000
   24       -3.243457     -3.243402   1.000000   1.000000
   25       -2.632909     -2.632859   1.000000   1.000000
   26       -2.557077     -2.557027   1.000000   1.000000
   27       -1.562436     -1.562401   1.000000   1.000000
   28       -1.347535     -1.347504   1.000000   1.000000
   29       -1.157304     -1.157276   1.000000   1.000000
   30       -0.975955     -0.975924   1.000000   1.000000
   31       -0.928533     -0.928505   1.000000   1.000000
   32       -0.570933     -0.570915   1.000000   1.000000
   33       -0.020032     -0.020011   1.000000   1.000000
   34        0.009464      0.009486   1.000000   1.000000
   35        0.113324      0.113339   1.000000   1.000000
   36        0.183204      0.183222   1.000000   1.000000
   37        0.329622      0.329636   1.000000   1.000000
   38        0.496421      0.496429   1.000000   1.000000
   39        0.511851      0.511862   1.000000   1.000000
   40        0.630463      0.630470   1.000000   1.000000
   41        7.372043      7.372128   0.000000   0.000000
   42        8.587139      8.587235   0.000000   0.000000
   43        8.974723      8.974873   0.000000   0.000000
   44        9.193124      9.193233   0.000000   0.000000
   45        9.515152      9.515283   0.000000   0.000000
   46        9.926669      9.926792   0.000000   0.000000
   47       10.343974     10.344126   0.000000   0.000000
   48       10.530439     10.530539   0.000000   0.000000
   49       10.676539     10.676683   0.000000   0.000000
   50       10.977861     10.977975   0.000000   0.000000
   51       11.458730     11.458862   0.000000   0.000000
   52       11.929579     11.929703   0.000000   0.000000
   53       11.969210     11.969309   0.000000   0.000000
   54       12.208629     12.208763   0.000000   0.000000
   55       13.584365     13.584291   0.000000   0.000000
   56       14.357439     14.358385   0.000000   0.000000
 
  0.2857143E+00  0.1428571E+00  0.1004922E-14  0.2332362E-01
    1      -22.070528    -22.070448   1.000000   1.000000
    2      -21.501913    -21.501835   1.000000   1.000000
    3      -20.364081    -20.364004   1.000000   1.000000
    4      -19.267346    -19.267278   1.000000   1.000000
    5      -19.055365    -19.055301   1.000000   1.000000
    6      -19.013657    -19.013590   1.000000   1.000000
    7      -17.292588    -17.292538   1.000000   1.000000
    8      -16.984867    -16.984822   1.000000   1.000000
    9      -16.913137    -16.913095   1.000000   1.000000
   10      -16.894944    -16.894902   1.000000   1.000000
   11      -12.068714    -12.068634   1.000000   1.000000
   12      -10.776450    -10.776367   1.000000   1.000000
   13       -8.442382     -8.442298   1.000000   1.000000
   14       -7.495960     -7.495878   1.000000   1.000000
   15       -7.015886     -7.015806   1.000000   1.000000
   16       -6.876866     -6.876786   1.000000   1.000000
   17       -4.952838     -4.952776   1.000000   1.000000
   18       -4.854414     -4.854352   1.000000   1.000000
   19       -4.316703     -4.316630   1.000000   1.000000
   20       -3.726558     -3.726495   1.000000   1.000000
   21       -3.537045     -3.536986   1.000000   1.000000
   22       -3.406656     -3.406599   1.000000   1.000000
   23       -3.205336     -3.205282   1.000000   1.000000
   24       -3.176825     -3.176771   1.000000   1.000000
   25       -2.656585     -2.656535   1.000000   1.000000
   26       -2.526088     -2.526039   1.000000   1.000000
   27       -1.604262     -1.604228   1.000000   1.000000
   28       -1.459038     -1.459007   1.000000   1.000000
   29       -1.188370     -1.188341   1.000000   1.000000
   30       -1.073696     -1.073666   1.000000   1.000000
   31       -0.969025     -0.968997   1.000000   1.000000
   32       -0.647825     -0.647807   1.000000   1.000000
   33        0.001037      0.001058   1.000000   1.000000
   34        0.039225      0.039246   1.000000   1.000000
   35        0.138494      0.138510   1.000000   1.000000
   36        0.170133      0.170150   1.000000   1.000000
   37        0.359465      0.359478   1.000000   1.000000
   38        0.459679      0.459691   1.000000   1.000000
   39        0.511307      0.511315   1.000000   1.000000
   40        0.595900      0.595907   1.000000   1.000000
   41        7.707588      7.707674   0.000000   0.000000
   42        8.680663      8.680767   0.000000   0.000000
   43        9.079539      9.079672   0.000000   0.000000
   44        9.284446      9.284565   0.000000   0.000000
   45        9.663306      9.663433   0.000000   0.000000
   46        9.927596      9.927723   0.000000   0.000000
   47       10.304595     10.304744   0.000000   0.000000
   48       10.386105     10.386220   0.000000   0.000000
   49       10.724527     10.724664   0.000000   0.000000
   50       11.086881     11.086997   0.000000   0.000000
   51       11.319149     11.319277   0.000000   0.000000
   52       11.838032     11.838142   0.000000   0.000000
   53       11.975363     11.975481   0.000000   0.000000
   54       12.188727     12.188847   0.000000   0.000000
   55       13.536882     13.536816   0.000000   0.000000
   56       14.201654     14.201831   0.000000   0.000000
 
  0.4285714E+00  0.1428571E+00 -0.5048013E-14  0.2332362E-01
    1      -21.962203    -21.962123   1.000000   1.000000
    2      -21.471043    -21.470965   1.000000   1.000000
    3      -20.409950    -20.409874   1.000000   1.000000
    4      -19.514929    -19.514857   1.000000   1.000000
    5      -19.056351    -19.056287   1.000000   1.000000
    6      -19.005596    -19.005528   1.000000   1.000000
    7      -17.217183    -17.217134   1.000000   1.000000
    8      -16.998290    -16.998246   1.000000   1.000000
    9      -16.948200    -16.948157   1.000000   1.000000
   10      -16.898642    -16.898600   1.000000   1.000000
   11      -11.817453    -11.817372   1.000000   1.000000
   12      -10.631979    -10.631897   1.000000   1.000000
   13       -8.693629     -8.693546   1.000000   1.000000
   14       -7.610779     -7.610696   1.000000   1.000000
   15       -6.916358     -6.916278   1.000000   1.000000
   16       -6.745186     -6.745106   1.000000   1.000000
   17       -4.781285     -4.781222   1.000000   1.000000
   18       -4.655097     -4.655034   1.000000   1.000000
   19       -4.282397     -4.282325   1.000000   1.000000
   20       -3.889765     -3.889698   1.000000   1.000000
   21       -3.724535     -3.724475   1.000000   1.000000
   22       -3.462283     -3.462224   1.000000   1.000000
   23       -3.152491     -3.152437   1.000000   1.000000
   24       -3.076262     -3.076208   1.000000   1.000000
   25       -2.712124     -2.712075   1.000000   1.000000
   26       -2.388635     -2.388590   1.000000   1.000000
   27       -1.827478     -1.827443   1.000000   1.000000
   28       -1.530277     -1.530244   1.000000   1.000000
   29       -1.401344     -1.401313   1.000000   1.000000
   30       -1.255849     -1.255820   1.000000   1.000000
   31       -1.050379     -1.050351   1.000000   1.000000
   32       -0.756765     -0.756745   1.000000   1.000000
   33        0.014860      0.014879   1.000000   1.000000
   34        0.099234      0.099254   1.000000   1.000000
   35        0.194418      0.194434   1.000000   1.000000
   36        0.256054      0.256070   1.000000   1.000000
   37        0.301604      0.301618   1.000000   1.000000
   38        0.438129      0.438140   1.000000   1.000000
   39        0.507799      0.507810   1.000000   1.000000
   40        0.572501      0.572509   1.000000   1.000000
   41        8.303218      8.303317   0.000000   0.000000
   42        8.862244      8.862350   0.000000   0.000000
   43        9.353619      9.353745   0.000000   0.000000
   44        9.528124      9.528263   0.000000   0.000000
   45        9.843024      9.843163   0.000000   0.000000
   46       10.105484     10.105600   0.000000   0.000000
   47       10.210242     10.210364   0.000000   0.000000
   48       10.383147     10.383282   0.000000   0.000000
   49       10.801896     10.802018   0.000000   0.000000
   50       11.047415     11.047526   0.000000   0.000000
   51       11.221954     11.222083   0.000000   0.000000
   52       11.750722     11.750837   0.000000   0.000000
   53       11.909332     11.909436   0.000000   0.000000
   54       12.141897     12.141995   0.000000   0.000000
   55       13.283784     13.283764   0.000000   0.000000
   56       13.838188     13.838166   0.000000   0.000000
 
 -0.4285714E+00  0.1428571E+00 -0.3942124E-14  0.2332362E-01
    1      -21.907053    -21.906974   1.000000   1.000000
    2      -21.310907    -21.310829   1.000000   1.000000
    3      -20.633400    -20.633325   1.000000   1.000000
    4      -19.602357    -19.602284   1.000000   1.000000
    5      -19.057095    -19.057031   1.000000   1.000000
    6      -18.997729    -18.997660   1.000000   1.000000
    7      -17.205601    -17.205553   1.000000   1.000000
    8      -17.008753    -17.008710   1.000000   1.000000
    9      -16.947494    -16.947450   1.000000   1.000000
   10      -16.908188    -16.908146   1.000000   1.000000
   11      -11.713446    -11.713364   1.000000   1.000000
   12      -10.231042    -10.230960   1.000000   1.000000
   13       -9.122353     -9.122270   1.000000   1.000000
   14       -7.630345     -7.630262   1.000000   1.000000
   15       -6.838126     -6.838046   1.000000   1.000000
   16       -6.665006     -6.664926   1.000000   1.000000
   17       -4.584714     -4.584650   1.000000   1.000000
   18       -4.458965     -4.458903   1.000000   1.000000
   19       -4.217554     -4.217489   1.000000   1.000000
   20       -4.044137     -4.044071   1.000000   1.000000
   21       -3.872496     -3.872431   1.000000   1.000000
   22       -3.615991     -3.615931   1.000000   1.000000
   23       -3.184961     -3.184905   1.000000   1.000000
   24       -3.021032     -3.020977   1.000000   1.000000
   25       -2.711501     -2.711452   1.000000   1.000000
   26       -2.183013     -2.182974   1.000000   1.000000
   27       -2.009576     -2.009538   1.000000   1.000000
   28       -1.688444     -1.688411   1.000000   1.000000
   29       -1.547258     -1.547225   1.000000   1.000000
   30       -1.330252     -1.330224   1.000000   1.000000
   31       -1.170624     -1.170595   1.000000   1.000000
   32       -0.802771     -0.802750   1.000000   1.000000
   33       -0.029152     -0.029133   1.000000   1.000000
   34        0.153974      0.153994   1.000000   1.000000
   35        0.211015      0.211030   1.000000   1.000000
   36        0.245587      0.245602   1.000000   1.000000
   37        0.358249      0.358264   1.000000   1.000000
   38        0.412664      0.412677   1.000000   1.000000
   39        0.549618      0.549627   1.000000   1.000000
   40        0.580430      0.580439   1.000000   1.000000
   41        8.556437      8.556548   0.000000   0.000000
   42        9.304250      9.304377   0.000000   0.000000
   43        9.523210      9.523346   0.000000   0.000000
   44        9.699650      9.699790   0.000000   0.000000
   45        9.755886      9.756020   0.000000   0.000000
   46       10.123750     10.123886   0.000000   0.000000
   47       10.422140     10.422248   0.000000   0.000000
   48       10.614681     10.614807   0.000000   0.000000
   49       10.771984     10.772075   0.000000   0.000000
   50       10.975194     10.975306   0.000000   0.000000
   51       11.266993     11.267114   0.000000   0.000000
   52       11.676843     11.676949   0.000000   0.000000
   53       11.800540     11.800636   0.000000   0.000000
   54       12.299108     12.299196   0.000000   0.000000
   55       13.016311     13.016329   0.000000   0.000000
   56       13.453009     13.452988   0.000000   0.000000
 
 -0.2857143E+00  0.1428571E+00  0.5684687E-15  0.2332362E-01
    1      -21.945960    -21.945881   1.000000   1.000000
    2      -21.075593    -21.075515   1.000000   1.000000
    3      -20.895389    -20.895314   1.000000   1.000000
    4      -19.535681    -19.535610   1.000000   1.000000
    5      -19.057101    -19.057037   1.000000   1.000000
    6      -18.983572    -18.983503   1.000000   1.000000
    7      -17.229875    -17.229826   1.000000   1.000000
    8      -17.004076    -17.004033   1.000000   1.000000
    9      -16.930125    -16.930082   1.000000   1.000000
   10      -16.918680    -16.918637   1.000000   1.000000
   11      -11.810068    -11.809987   1.000000   1.000000
   12       -9.786070     -9.785987   1.000000   1.000000
   13       -9.521114     -9.521031   1.000000   1.000000
   14       -7.581008     -7.580925   1.000000   1.000000
   15       -6.813629     -6.813550   1.000000   1.000000
   16       -6.699547     -6.699466   1.000000   1.000000
   17       -4.523859     -4.523796   1.000000   1.000000
   18       -4.460079     -4.460011   1.000000   1.000000
   19       -4.328103     -4.328040   1.000000   1.000000
   20       -4.031039     -4.030974   1.000000   1.000000
   21       -3.768255     -3.768191   1.000000   1.000000
   22       -3.685184     -3.685122   1.000000   1.000000
   23       -3.112470     -3.112414   1.000000   1.000000
   24       -3.029344     -3.029289   1.000000   1.000000
   25       -2.801758     -2.801707   1.000000   1.000000
   26       -2.238319     -2.238278   1.000000   1.000000
   27       -1.894329     -1.894292   1.000000   1.000000
   28       -1.670752     -1.670720   1.000000   1.000000
   29       -1.601502     -1.601469   1.000000   1.000000
   30       -1.285132     -1.285102   1.000000   1.000000
   31       -1.218003     -1.217975   1.000000   1.000000
   32       -0.795074     -0.795053   1.000000   1.000000
   33        0.016964      0.016983   1.000000   1.000000
   34        0.135502      0.135521   1.000000   1.000000
   35        0.180686      0.180701   1.000000   1.000000
   36        0.236300      0.236316   1.000000   1.000000
   37        0.393982      0.393996   1.000000   1.000000
   38        0.434402      0.434416   1.000000   1.000000
   39        0.534034      0.534041   1.000000   1.000000
   40        0.569608      0.569618   1.000000   1.000000
   41        8.470081      8.470193   0.000000   0.000000
   42        9.147669      9.147783   0.000000   0.000000
   43        9.546678      9.546816   0.000000   0.000000
   44        9.730428      9.730565   0.000000   0.000000
   45        9.788890      9.789030   0.000000   0.000000
   46       10.126126     10.126274   0.000000   0.000000
   47       10.466061     10.466169   0.000000   0.000000
   48       10.647285     10.647416   0.000000   0.000000
   49       10.922194     10.922318   0.000000   0.000000
   50       10.976193     10.976287   0.000000   0.000000
   51       11.272497     11.272624   0.000000   0.000000
   52       11.620355     11.620428   0.000000   0.000000
   53       11.875191     11.875291   0.000000   0.000000
   54       12.626880     12.626965   0.000000   0.000000
   55       12.847225     12.847247   0.000000   0.000000
   56       13.299696     13.299693   0.000000   0.000000
 