 running on    8 total cores
 distrk:  each k-point on    8 cores,    1 groups
 distr:  one band on    4 cores,    2 groups
 using from now: INCAR     
 vasp.6.1.2 22Jul20 (build Mar 20 2021 11:25:07) complex                        
  
 POSCAR found type information on POSCAR LiP 
 POSCAR found :  2 types and      40 ions
 scaLAPACK will be used
 LDA part: xc-table for Pade appr. of Perdew
 generate k-points for:    4    3    3
 POSCAR, INCAR and KPOINTS ok, starting setup
 FFT: planning ...
 WAVECAR not read
 entering main loop
       N       E                     dE             d eps       ncg     rms          rms(c)
DAV:   1     0.106508600961E+04    0.10651E+04   -0.68678E+04  6832   0.133E+03
DAV:   2    -0.289581936201E+02   -0.10940E+04   -0.10102E+04  8024   0.289E+02
DAV:   3    -0.166113570391E+03   -0.13716E+03   -0.13534E+03  9186   0.969E+01
DAV:   4    -0.182072948214E+03   -0.15959E+02   -0.15859E+02 12312   0.292E+01
DAV:   5    -0.185213196158E+03   -0.31402E+01   -0.31386E+01 11184   0.850E+00    0.339E+01
DAV:   6    -0.185537588665E+03   -0.32439E+00   -0.94248E+00  8928   0.712E+00    0.186E+01
DAV:   7    -0.187719528680E+03   -0.21819E+01   -0.32178E+00  8800   0.431E+00    0.112E+01
DAV:   8    -0.188593961921E+03   -0.87443E+00   -0.14178E+00  8008   0.310E+00    0.250E+00
DAV:   9    -0.188671120271E+03   -0.77158E-01   -0.20488E-01  9584   0.132E+00    0.114E+00
DAV:  10    -0.188684522525E+03   -0.13402E-01   -0.39673E-02  8984   0.513E-01    0.414E-01
DAV:  11    -0.188688506990E+03   -0.39845E-02   -0.58428E-03  8328   0.242E-01    0.208E-01
DAV:  12    -0.188690490562E+03   -0.19836E-02   -0.22047E-03  9272   0.130E-01    0.106E-01
DAV:  13    -0.188691461986E+03   -0.97142E-03   -0.71144E-04  8448   0.685E-02    0.432E-02
DAV:  14    -0.188691783061E+03   -0.32107E-03   -0.29055E-04  8096   0.426E-02    0.235E-02
DAV:  15    -0.188691871924E+03   -0.88863E-04   -0.97276E-05  7184   0.251E-02    0.120E-02
DAV:  16    -0.188691891005E+03   -0.19081E-04   -0.20233E-05  6696   0.128E-02    0.559E-03
DAV:  17    -0.188691895485E+03   -0.44794E-05   -0.50751E-06  5168   0.711E-03
   1 F= -.18869190E+03 E0= -.18869190E+03  d E =0.000000E+00  mag=    -0.0003
