 running on   24 total cores
 distrk:  each k-point on   24 cores,    1 groups
 distr:  one band on    6 cores,    4 groups
 using from now: INCAR     
 vasp.6.1.2 22Jul20 (build Mar 31 2021 18:09:49) complex                        
  
 POSCAR found type information on POSCAR LiP 
 POSCAR found :  2 types and       8 ions
 scaLAPACK will be used
 -----------------------------------------------------------------------------
|                                                                             |
|               ----> ADVICE to this user running VASP <----                  |
|                                                                             |
|     You have a (more or less) 'small supercell' and for smaller cells       |
|     it is recommended to use the reciprocal-space projection scheme!        |
|     The real-space optimization is not efficient for small cells and it     |
|     is also less accurate ...                                               |
|     Therefore, set LREAL=.FALSE. in the INCAR file.                         |
|                                                                             |
 -----------------------------------------------------------------------------

 LDA part: xc-table for Pade appr. of Perdew
 generate k-points for:    9    9    4
 POSCAR, INCAR and KPOINTS ok, starting setup
 FFT: planning ...
 WAVECAR not read
 entering main loop
       N       E                     dE             d eps       ncg     rms          rms(c)
DAV:   1     0.157738074111E+03    0.15774E+03   -0.11809E+04  9120   0.118E+03
DAV:   2     0.177740681522E+01   -0.15596E+03   -0.14723E+03 10000   0.299E+02
DAV:   3    -0.237442510903E+02   -0.25522E+02   -0.25289E+02 16400   0.696E+01
DAV:   4    -0.264348558255E+02   -0.26906E+01   -0.26714E+01 13496   0.307E+01
DAV:   5    -0.266299753893E+02   -0.19512E+00   -0.19511E+00 14488   0.656E+00    0.149E+01
RMM:   6    -0.270939015307E+02   -0.46393E+00   -0.16291E+00 11128   0.630E+00    0.755E+00
RMM:   7    -0.277996839179E+02   -0.70578E+00   -0.49352E-01 12558   0.426E+00    0.284E+00
RMM:   8    -0.278709826033E+02   -0.71299E-01   -0.39026E-01 14314   0.286E+00    0.118E+00
RMM:   9    -0.278797798594E+02   -0.87973E-02   -0.95204E-02 15150   0.168E+00    0.519E-01
RMM:  10    -0.278879206675E+02   -0.81408E-02   -0.42158E-02 15853   0.100E+00    0.268E-01
RMM:  11    -0.278900814757E+02   -0.21608E-02   -0.15550E-02 16142   0.581E-01    0.197E-01
RMM:  12    -0.278908413914E+02   -0.75992E-03   -0.57597E-03 15773   0.440E-01    0.512E-02
RMM:  13    -0.278914182741E+02   -0.57688E-03   -0.32533E-03 16257   0.268E-01    0.187E-02
RMM:  14    -0.278916204598E+02   -0.20219E-03   -0.16122E-03 15940   0.173E-01    0.220E-02
RMM:  15    -0.278917069345E+02   -0.86475E-04   -0.74238E-04 14298   0.115E-01    0.189E-02
RMM:  16    -0.278917510838E+02   -0.44149E-04   -0.38645E-04 14102   0.826E-02    0.251E-02
RMM:  17    -0.278917687504E+02   -0.17667E-04   -0.21475E-04 13761   0.686E-02    0.181E-02
RMM:  18    -0.278917827693E+02   -0.14019E-04   -0.12615E-04 12747   0.511E-02    0.171E-02
RMM:  19    -0.278917902276E+02   -0.74583E-05   -0.84704E-05 11881   0.431E-02
   1 F= -.27891790E+02 E0= -.27891790E+02  d E =0.000000E+00  mag=    -0.0001
