 running on   24 total cores
 distrk:  each k-point on   24 cores,    1 groups
 distr:  one band on    6 cores,    4 groups
 using from now: INCAR     
 vasp.6.1.2 22Jul20 (build Mar 31 2021 18:09:49) complex                        
  
 POSCAR found type information on POSCAR LiO 
 POSCAR found :  2 types and       3 ions
 scaLAPACK will be used
 -----------------------------------------------------------------------------
|                                                                             |
|               ----> ADVICE to this user running VASP <----                  |
|                                                                             |
|     You have a (more or less) 'small supercell' and for smaller cells       |
|     it is recommended to use the reciprocal-space projection scheme!        |
|     The real-space optimization is not efficient for small cells and it     |
|     is also less accurate ...                                               |
|     Therefore, set LREAL=.FALSE. in the INCAR file.                         |
|                                                                             |
 -----------------------------------------------------------------------------

 LDA part: xc-table for Pade appr. of Perdew
 generate k-points for:   12   12   12
 POSCAR, INCAR and KPOINTS ok, starting setup
 FFT: planning ...
 WAVECAR not read
 entering main loop
       N       E                     dE             d eps       ncg     rms          rms(c)
DAV:   1     0.445950125567E+02    0.44595E+02   -0.56340E+03 22884   0.102E+03
DAV:   2    -0.966065719892E+01   -0.54256E+02   -0.52208E+02 27640   0.226E+02
DAV:   3    -0.152756723052E+02   -0.56150E+01   -0.55724E+01 42968   0.533E+01
DAV:   4    -0.153246782452E+02   -0.49006E-01   -0.48995E-01 26480   0.646E+00
DAV:   5    -0.153250217480E+02   -0.34350E-03   -0.34350E-03 31676   0.442E-01    0.116E+01
RMM:   6    -0.142188140895E+02    0.11062E+01   -0.35214E+00 24901   0.124E+01    0.500E+00
RMM:   7    -0.143254839334E+02   -0.10667E+00   -0.12370E-01 27865   0.287E+00    0.207E+00
RMM:   8    -0.143290344317E+02   -0.35505E-02   -0.49742E-02 31245   0.221E+00    0.117E+00
RMM:   9    -0.143420832223E+02   -0.13049E-01   -0.30352E-02 31555   0.195E+00    0.248E-01
RMM:  10    -0.143430468608E+02   -0.96364E-03   -0.84623E-03 36386   0.689E-01    0.143E-01
RMM:  11    -0.143441473347E+02   -0.11005E-02   -0.61338E-03 34451   0.604E-01    0.193E-01
RMM:  12    -0.143438232790E+02    0.32406E-03   -0.15395E-03 35292   0.323E-01    0.821E-02
RMM:  13    -0.143438121351E+02    0.11144E-04   -0.78806E-04 35733   0.225E-01    0.202E-02
RMM:  14    -0.143438449851E+02   -0.32850E-04   -0.24485E-04 34198   0.112E-01    0.288E-02
RMM:  15    -0.143438576009E+02   -0.12616E-04   -0.93525E-05 31468   0.732E-02    0.282E-02
RMM:  16    -0.143438597298E+02   -0.21290E-05   -0.45331E-05 28520   0.524E-02
   1 F= -.14343860E+02 E0= -.14343860E+02  d E =0.000000E+00  mag=    -0.0000
