   16   16    1    2
  0.1091199E+02  0.5056679E-09  0.5441289E-09  0.6345366E-09  0.5000000E-15
  1.000000000000000E-004
  CAR 
 unknown system                          
     76     48     56
 
  0.0000000E+00  0.0000000E+00  0.0000000E+00  0.5555556E-02
    1      -42.065400    -42.065353   1.000000   1.000000
    2      -42.065015    -42.064967   1.000000   1.000000
    3      -41.741020    -41.740972   1.000000   1.000000
    4      -41.735575    -41.735526   1.000000   1.000000
    5      -41.735396    -41.735347   1.000000   1.000000
    6      -41.730024    -41.729975   1.000000   1.000000
    7      -18.445671    -18.445668   1.000000   1.000000
    8      -18.276669    -18.276666   1.000000   1.000000
    9      -16.162361    -16.162349   1.000000   1.000000
   10      -16.150420    -16.150410   1.000000   1.000000
   11      -16.106128    -16.106117   1.000000   1.000000
   12      -16.086026    -16.086015   1.000000   1.000000
   13      -16.070321    -16.070309   1.000000   1.000000
   14      -16.040519    -16.040508   1.000000   1.000000
   15       -6.287847     -6.287848   1.000000   1.000000
   16       -6.139703     -6.139705   1.000000   1.000000
   17       -3.935074     -3.935075   1.000000   1.000000
   18       -3.908141     -3.908140   1.000000   1.000000
   19       -3.748077     -3.748077   1.000000   1.000000
   20       -3.615145     -3.615146   1.000000   1.000000
   21       -3.532510     -3.532509   1.000000   1.000000
   22       -3.433867     -3.433866   1.000000   1.000000
   23       -1.535498     -1.535491   1.000000   1.000000
   24       -1.514738     -1.514733   1.000000   1.000000
   25       -1.387225     -1.387217   1.000000   1.000000
   26       -1.287605     -1.287598   1.000000   1.000000
   27       -1.090920     -1.090912   1.000000   1.000000
   28       -1.058215     -1.058205   1.000000   1.000000
   29       -0.930809     -0.930801   1.000000   1.000000
   30       -0.350791     -0.350781   1.000000   1.000000
   31       -0.341069     -0.341055   1.000000   1.000000
   32       -0.239691     -0.239678   1.000000   1.000000
   33        0.084993      0.085006   1.000000   1.000000
   34        0.187836      0.187849   1.000000   1.000000
   35        0.205019      0.205031   1.000000   1.000000
   36        0.326907      0.326921   1.000000   1.000000
   37        0.463882      0.463901   1.000000   1.000000
   38        0.568671      0.568686   1.000000   1.000000
   39        5.875056      5.875049   0.000000   0.000000
   40        8.483032      8.483074   0.000000   0.000000
   41        8.585248      8.585246   0.000000   0.000000
   42        9.079906      9.079908   0.000000   0.000000
   43        9.533575      9.533532   0.000000   0.000000
   44        9.576024      9.576008   0.000000   0.000000
   45        9.612906      9.612212   0.000000   0.000000
   46       10.098412     10.098576   0.000000   0.000000
   47       10.580502     10.581462   0.000000   0.000000
   48       11.198577     11.198476   0.000000   0.000000
   49       11.214107     11.214368   0.000000   0.000000
   50       11.681077     11.681673   0.000000   0.000000
   51       12.141901     12.150489   0.000000   0.000000
   52       12.220356     12.244320   0.000000   0.000000
   53       12.548279     12.551432   0.000000   0.000000
   54       12.790895     12.788838   0.000000   0.000000
   55       12.859910     12.843314   0.000000   0.000000
   56       13.272872     13.228041   0.000000   0.000000
 
  0.1666667E+00  0.0000000E+00  0.0000000E+00  0.1111111E-01
    1      -42.065342    -42.065295   1.000000   1.000000
    2      -42.065042    -42.064995   1.000000   1.000000
    3      -41.740654    -41.740605   1.000000   1.000000
    4      -41.735819    -41.735770   1.000000   1.000000
    5      -41.735185    -41.735136   1.000000   1.000000
    6      -41.730379    -41.730330   1.000000   1.000000
    7      -18.426281    -18.426278   1.000000   1.000000
    8      -18.278523    -18.278521   1.000000   1.000000
    9      -16.157094    -16.157084   1.000000   1.000000
   10      -16.156852    -16.156840   1.000000   1.000000
   11      -16.110382    -16.110370   1.000000   1.000000
   12      -16.090559    -16.090549   1.000000   1.000000
   13      -16.077199    -16.077187   1.000000   1.000000
   14      -16.062272    -16.062261   1.000000   1.000000
   15       -6.297310     -6.297312   1.000000   1.000000
   16       -6.148171     -6.148172   1.000000   1.000000
   17       -3.828372     -3.828371   1.000000   1.000000
   18       -3.804495     -3.804495   1.000000   1.000000
   19       -3.699363     -3.699363   1.000000   1.000000
   20       -3.589842     -3.589843   1.000000   1.000000
   21       -3.513616     -3.513614   1.000000   1.000000
   22       -3.433485     -3.433484   1.000000   1.000000
   23       -1.595353     -1.595346   1.000000   1.000000
   24       -1.560618     -1.560613   1.000000   1.000000
   25       -1.445369     -1.445362   1.000000   1.000000
   26       -1.355563     -1.355555   1.000000   1.000000
   27       -1.135820     -1.135812   1.000000   1.000000
   28       -0.974143     -0.974133   1.000000   1.000000
   29       -0.866073     -0.866065   1.000000   1.000000
   30       -0.478961     -0.478950   1.000000   1.000000
   31       -0.396945     -0.396935   1.000000   1.000000
   32       -0.379670     -0.379657   1.000000   1.000000
   33        0.146265      0.146278   1.000000   1.000000
   34        0.219586      0.219599   1.000000   1.000000
   35        0.281884      0.281897   1.000000   1.000000
   36        0.345064      0.345077   1.000000   1.000000
   37        0.440021      0.440037   1.000000   1.000000
   38        0.580413      0.580428   1.000000   1.000000
   39        6.134105      6.134098   0.000000   0.000000
   40        8.158891      8.158874   0.000000   0.000000
   41        8.514979      8.514951   0.000000   0.000000
   42        9.021860      9.021552   0.000000   0.000000
   43        9.578887      9.578812   0.000000   0.000000
   44        9.582971      9.583025   0.000000   0.000000
   45        9.697630      9.697561   0.000000   0.000000
   46       10.026655     10.026678   0.000000   0.000000
   47       10.679593     10.679444   0.000000   0.000000
   48       10.956445     10.956367   0.000000   0.000000
   49       11.022117     11.022159   0.000000   0.000000
   50       11.407985     11.407887   0.000000   0.000000
   51       12.078657     12.084107   0.000000   0.000000
   52       12.449832     12.450727   0.000000   0.000000
   53       12.471433     12.467628   0.000000   0.000000
   54       12.550708     12.553339   0.000000   0.000000
   55       12.889916     12.910234   0.000000   0.000000
   56       13.557755     13.504760   0.000000   0.000000
 
  0.3333333E+00  0.0000000E+00  0.0000000E+00  0.1111111E-01
    1      -42.065222    -42.065175   1.000000   1.000000
    2      -42.065051    -42.065004   1.000000   1.000000
    3      -41.739625    -41.739576   1.000000   1.000000
    4      -41.736853    -41.736804   1.000000   1.000000
    5      -41.734132    -41.734083   1.000000   1.000000
    6      -41.731368    -41.731319   1.000000   1.000000
    7      -18.378073    -18.378069   1.000000   1.000000
    8      -18.290989    -18.290986   1.000000   1.000000
    9      -16.170794    -16.170783   1.000000   1.000000
   10      -16.141248    -16.141236   1.000000   1.000000
   11      -16.120913    -16.120902   1.000000   1.000000
   12      -16.110908    -16.110897   1.000000   1.000000
   13      -16.095250    -16.095238   1.000000   1.000000
   14      -16.092258    -16.092247   1.000000   1.000000
   15       -6.295418     -6.295419   1.000000   1.000000
   16       -6.188001     -6.188002   1.000000   1.000000
   17       -3.720894     -3.720893   1.000000   1.000000
   18       -3.656560     -3.656560   1.000000   1.000000
   19       -3.529394     -3.529395   1.000000   1.000000
   20       -3.463732     -3.463731   1.000000   1.000000
   21       -3.439854     -3.439853   1.000000   1.000000
   22       -3.344031     -3.344028   1.000000   1.000000
   23       -1.690199     -1.690193   1.000000   1.000000
   24       -1.656419     -1.656414   1.000000   1.000000
   25       -1.541978     -1.541972   1.000000   1.000000
   26       -1.468344     -1.468337   1.000000   1.000000
   27       -1.273472     -1.273464   1.000000   1.000000
   28       -1.014073     -1.014065   1.000000   1.000000
   29       -0.802369     -0.802360   1.000000   1.000000
   30       -0.732729     -0.732719   1.000000   1.000000
   31       -0.503692     -0.503682   1.000000   1.000000
   32       -0.470952     -0.470940   1.000000   1.000000
   33        0.207013      0.207025   1.000000   1.000000
   34        0.366049      0.366064   1.000000   1.000000
   35        0.372791      0.372806   1.000000   1.000000
   36        0.397728      0.397741   1.000000   1.000000
   37        0.403280      0.403294   1.000000   1.000000
   38        0.591329      0.591345   1.000000   1.000000
   39        6.748853      6.748847   0.000000   0.000000
   40        7.710824      7.710862   0.000000   0.000000
   41        8.561009      8.561105   0.000000   0.000000
   42        8.854340      8.854338   0.000000   0.000000
   43        9.301880      9.301943   0.000000   0.000000
   44        9.364526      9.364670   0.000000   0.000000
   45        9.676479      9.676453   0.000000   0.000000
   46        9.876440      9.876375   0.000000   0.000000
   47       10.643970     10.644028   0.000000   0.000000
   48       10.795176     10.795184   0.000000   0.000000
   49       11.062278     11.062560   0.000000   0.000000
   50       11.209238     11.209191   0.000000   0.000000
   51       11.959224     11.953372   0.000000   0.000000
   52       12.057091     12.053341   0.000000   0.000000
   53       12.362557     12.362613   0.000000   0.000000
   54       12.768160     12.755117   0.000000   0.000000
   55       13.120640     13.079678   0.000000   0.000000
   56       13.564569     13.584518   0.000000   0.000000
 
  0.5000000E+00  0.0000000E+00  0.0000000E+00  0.5555556E-02
    1      -42.065133    -42.065086   1.000000   1.000000
    2      -42.065129    -42.065082   1.000000   1.000000
    3      -41.738277    -41.738228   1.000000   1.000000
    4      -41.738270    -41.738221   1.000000   1.000000
    5      -41.732751    -41.732702   1.000000   1.000000
    6      -41.732744    -41.732695   1.000000   1.000000
    7      -18.325523    -18.325520   1.000000   1.000000
    8      -18.325511    -18.325508   1.000000   1.000000
    9      -16.162502    -16.162491   1.000000   1.000000
   10      -16.162484    -16.162474   1.000000   1.000000
   11      -16.118981    -16.118969   1.000000   1.000000
   12      -16.118969    -16.118957   1.000000   1.000000
   13      -16.103721    -16.103710   1.000000   1.000000
   14      -16.103715    -16.103704   1.000000   1.000000
   15       -6.251844     -6.251845   1.000000   1.000000
   16       -6.251830     -6.251832   1.000000   1.000000
   17       -3.663674     -3.663672   1.000000   1.000000
   18       -3.663668     -3.663666   1.000000   1.000000
   19       -3.470392     -3.470391   1.000000   1.000000
   20       -3.470380     -3.470379   1.000000   1.000000
   21       -3.220997     -3.220995   1.000000   1.000000
   22       -3.220978     -3.220975   1.000000   1.000000
   23       -1.717962     -1.717957   1.000000   1.000000
   24       -1.717953     -1.717948   1.000000   1.000000
   25       -1.554898     -1.554891   1.000000   1.000000
   26       -1.554889     -1.554882   1.000000   1.000000
   27       -1.344122     -1.344114   1.000000   1.000000
   28       -1.344111     -1.344103   1.000000   1.000000
   29       -0.644860     -0.644850   1.000000   1.000000
   30       -0.644854     -0.644844   1.000000   1.000000
   31       -0.592869     -0.592858   1.000000   1.000000
   32       -0.592862     -0.592851   1.000000   1.000000
   33        0.276762      0.276775   1.000000   1.000000
   34        0.276766      0.276779   1.000000   1.000000
   35        0.441860      0.441874   1.000000   1.000000
   36        0.441874      0.441888   1.000000   1.000000
   37        0.527918      0.527934   1.000000   1.000000
   38        0.527930      0.527946   1.000000   1.000000
   39        7.350521      7.350516   0.000000   0.000000
   40        7.350526      7.350522   0.000000   0.000000
   41        8.723652      8.723647   0.000000   0.000000
   42        8.723654      8.723664   0.000000   0.000000
   43        9.003771      9.003795   0.000000   0.000000
   44        9.003789      9.003823   0.000000   0.000000
   45        9.758267      9.758236   0.000000   0.000000
   46        9.758322      9.758292   0.000000   0.000000
   47       10.686496     10.686475   0.000000   0.000000
   48       10.686504     10.686478   0.000000   0.000000
   49       11.190720     11.190794   0.000000   0.000000
   50       11.191069     11.191240   0.000000   0.000000
   51       11.898049     11.898321   0.000000   0.000000
   52       11.899050     11.899079   0.000000   0.000000
   53       12.479144     12.479253   0.000000   0.000000
   54       12.479244     12.480286   0.000000   0.000000
   55       13.325994     13.327641   0.000000   0.000000
   56       13.356852     13.356120   0.000000   0.000000
 
  0.0000000E+00  0.1666667E+00  0.0000000E+00  0.1111111E-01
    1      -42.065358    -42.065311   1.000000   1.000000
    2      -42.065026    -42.064979   1.000000   1.000000
    3      -41.741065    -41.741016   1.000000   1.000000
    4      -41.735535    -41.735486   1.000000   1.000000
    5      -41.735394    -41.735345   1.000000   1.000000
    6      -41.730021    -41.729972   1.000000   1.000000
    7      -18.435409    -18.435406   1.000000   1.000000
    8      -18.281742    -18.281739   1.000000   1.000000
    9      -16.160031    -16.160021   1.000000   1.000000
   10      -16.158195    -16.158182   1.000000   1.000000
   11      -16.111323    -16.111311   1.000000   1.000000
   12      -16.081499    -16.081488   1.000000   1.000000
   13      -16.075071    -16.075058   1.000000   1.000000
   14      -16.042228    -16.042217   1.000000   1.000000
   15       -6.272697     -6.272698   1.000000   1.000000
   16       -6.137886     -6.137888   1.000000   1.000000
   17       -3.933496     -3.933496   1.000000   1.000000
   18       -3.888141     -3.888141   1.000000   1.000000
   19       -3.725689     -3.725688   1.000000   1.000000
   20       -3.632239     -3.632240   1.000000   1.000000
   21       -3.497090     -3.497088   1.000000   1.000000
   22       -3.412298     -3.412297   1.000000   1.000000
   23       -1.583972     -1.583966   1.000000   1.000000
   24       -1.462563     -1.462556   1.000000   1.000000
   25       -1.458498     -1.458492   1.000000   1.000000
   26       -1.260747     -1.260741   1.000000   1.000000
   27       -1.156817     -1.156808   1.000000   1.000000
   28       -0.938222     -0.938214   1.000000   1.000000
   29       -0.897363     -0.897353   1.000000   1.000000
   30       -0.523012     -0.523003   1.000000   1.000000
   31       -0.345667     -0.345654   1.000000   1.000000
   32       -0.272729     -0.272717   1.000000   1.000000
   33        0.107538      0.107551   1.000000   1.000000
   34        0.166809      0.166822   1.000000   1.000000
   35        0.202191      0.202204   1.000000   1.000000
   36        0.329305      0.329318   1.000000   1.000000
   37        0.478931      0.478950   1.000000   1.000000
   38        0.567472      0.567485   1.000000   1.000000
   39        6.106456      6.106449   0.000000   0.000000
   40        8.397998      8.397880   0.000000   0.000000
   41        8.433719      8.433705   0.000000   0.000000
   42        9.063816      9.063607   0.000000   0.000000
   43        9.441893      9.441874   0.000000   0.000000
   44        9.445516      9.445516   0.000000   0.000000
   45       10.027833     10.027516   0.000000   0.000000
   46       10.069107     10.069067   0.000000   0.000000
   47       10.414880     10.414307   0.000000   0.000000
   48       10.922378     10.922412   0.000000   0.000000
   49       11.308544     11.307804   0.000000   0.000000
   50       11.628763     11.628668   0.000000   0.000000
   51       11.982111     11.984445   0.000000   0.000000
   52       12.050469     12.050214   0.000000   0.000000
   53       12.519596     12.522131   0.000000   0.000000
   54       12.986965     12.971091   0.000000   0.000000
   55       13.180499     13.199994   0.000000   0.000000
   56       13.221197     13.429408   0.000000   0.000000
 
  0.1666667E+00  0.1666667E+00  0.0000000E+00  0.2222222E-01
    1      -42.065319    -42.065272   1.000000   1.000000
    2      -42.065030    -42.064983   1.000000   1.000000
    3      -41.740678    -41.740629   1.000000   1.000000
    4      -41.735813    -41.735764   1.000000   1.000000
    5      -41.735158    -41.735109   1.000000   1.000000
    6      -41.730379    -41.730330   1.000000   1.000000
    7      -18.416886    -18.416882   1.000000   1.000000
    8      -18.282467    -18.282464   1.000000   1.000000
    9      -16.163650    -16.163639   1.000000   1.000000
   10      -16.153310    -16.153298   1.000000   1.000000
   11      -16.117827    -16.117816   1.000000   1.000000
   12      -16.089539    -16.089528   1.000000   1.000000
   13      -16.081264    -16.081251   1.000000   1.000000
   14      -16.061625    -16.061614   1.000000   1.000000
   15       -6.282178     -6.282180   1.000000   1.000000
   16       -6.147834     -6.147836   1.000000   1.000000
   17       -3.823721     -3.823720   1.000000   1.000000
   18       -3.772860     -3.772860   1.000000   1.000000
   19       -3.677467     -3.677466   1.000000   1.000000
   20       -3.610207     -3.610208   1.000000   1.000000
   21       -3.491291     -3.491289   1.000000   1.000000
   22       -3.415814     -3.415813   1.000000   1.000000
   23       -1.628575     -1.628569   1.000000   1.000000
   24       -1.497634     -1.497627   1.000000   1.000000
   25       -1.482955     -1.482949   1.000000   1.000000
   26       -1.318066     -1.318059   1.000000   1.000000
   27       -1.193809     -1.193801   1.000000   1.000000
   28       -0.882955     -0.882947   1.000000   1.000000
   29       -0.875403     -0.875394   1.000000   1.000000
   30       -0.632083     -0.632074   1.000000   1.000000
   31       -0.422901     -0.422890   1.000000   1.000000
   32       -0.385058     -0.385045   1.000000   1.000000
   33        0.161851      0.161863   1.000000   1.000000
   34        0.198971      0.198985   1.000000   1.000000
   35        0.255348      0.255361   1.000000   1.000000
   36        0.360588      0.360601   1.000000   1.000000
   37        0.472364      0.472382   1.000000   1.000000
   38        0.564841      0.564856   1.000000   1.000000
   39        6.341139      6.341133   0.000000   0.000000
   40        8.081262      8.081258   0.000000   0.000000
   41        8.405148      8.405151   0.000000   0.000000
   42        9.026760      9.026653   0.000000   0.000000
   43        9.438165      9.438172   0.000000   0.000000
   44        9.603902      9.604006   0.000000   0.000000
   45        9.758772      9.758970   0.000000   0.000000
   46       10.003494     10.003529   0.000000   0.000000
   47       10.610805     10.610946   0.000000   0.000000
   48       10.807969     10.808090   0.000000   0.000000
   49       10.991785     10.991792   0.000000   0.000000
   50       11.528778     11.529280   0.000000   0.000000
   51       11.902603     11.903193   0.000000   0.000000
   52       12.277659     12.278362   0.000000   0.000000
   53       12.626310     12.636289   0.000000   0.000000
   54       12.873112     12.930758   0.000000   0.000000
   55       13.037893     13.094840   0.000000   0.000000
   56       13.307410     13.377379   0.000000   0.000000
 
  0.3333333E+00  0.1666667E+00  0.0000000E+00  0.2222222E-01
    1      -42.065217    -42.065169   1.000000   1.000000
    2      -42.065044    -42.064997   1.000000   1.000000
    3      -41.739674    -41.739626   1.000000   1.000000
    4      -41.736863    -41.736814   1.000000   1.000000
    5      -41.734114    -41.734066   1.000000   1.000000
    6      -41.731369    -41.731321   1.000000   1.000000
    7      -18.371134    -18.371131   1.000000   1.000000
    8      -18.291889    -18.291886   1.000000   1.000000
    9      -16.174512    -16.174501   1.000000   1.000000
   10      -16.139314    -16.139301   1.000000   1.000000
   11      -16.129391    -16.129380   1.000000   1.000000
   12      -16.115598    -16.115587   1.000000   1.000000
   13      -16.097758    -16.097745   1.000000   1.000000
   14      -16.088540    -16.088528   1.000000   1.000000
   15       -6.282759     -6.282760   1.000000   1.000000
   16       -6.187003     -6.187004   1.000000   1.000000
   17       -3.697903     -3.697901   1.000000   1.000000
   18       -3.605940     -3.605939   1.000000   1.000000
   19       -3.552817     -3.552817   1.000000   1.000000
   20       -3.444092     -3.444091   1.000000   1.000000
   21       -3.435642     -3.435641   1.000000   1.000000
   22       -3.357202     -3.357200   1.000000   1.000000
   23       -1.688506     -1.688500   1.000000   1.000000
   24       -1.591915     -1.591910   1.000000   1.000000
   25       -1.524789     -1.524782   1.000000   1.000000
   26       -1.443916     -1.443909   1.000000   1.000000
   27       -1.300137     -1.300129   1.000000   1.000000
   28       -1.065182     -1.065173   1.000000   1.000000
   29       -0.802613     -0.802604   1.000000   1.000000
   30       -0.757110     -0.757100   1.000000   1.000000
   31       -0.577416     -0.577406   1.000000   1.000000
   32       -0.482359     -0.482347   1.000000   1.000000
   33        0.212764      0.212777   1.000000   1.000000
   34        0.327248      0.327263   1.000000   1.000000
   35        0.351475      0.351488   1.000000   1.000000
   36        0.424845      0.424859   1.000000   1.000000
   37        0.432215      0.432229   1.000000   1.000000
   38        0.571830      0.571846   1.000000   1.000000
   39        6.904450      6.904444   0.000000   0.000000
   40        7.707293      7.707331   0.000000   0.000000
   41        8.434949      8.435200   0.000000   0.000000
   42        8.894720      8.894661   0.000000   0.000000
   43        9.221116      9.221145   0.000000   0.000000
   44        9.402340      9.402183   0.000000   0.000000
   45        9.451540      9.451518   0.000000   0.000000
   46        9.808191      9.808179   0.000000   0.000000
   47       10.541320     10.541289   0.000000   0.000000
   48       10.825229     10.825353   0.000000   0.000000
   49       11.171910     11.172258   0.000000   0.000000
   50       11.276292     11.276584   0.000000   0.000000
   51       11.915776     11.916574   0.000000   0.000000
   52       12.251416     12.253268   0.000000   0.000000
   53       12.450487     12.450697   0.000000   0.000000
   54       12.759311     12.785003   0.000000   0.000000
   55       13.095203     13.091018   0.000000   0.000000
   56       13.611874     13.617954   0.000000   0.000000
 
  0.5000000E+00  0.1666667E+00  0.0000000E+00  0.1111111E-01
    1      -42.065121    -42.065074   1.000000   1.000000
    2      -42.065117    -42.065070   1.000000   1.000000
    3      -41.738294    -41.738246   1.000000   1.000000
    4      -41.738288    -41.738239   1.000000   1.000000
    5      -41.732742    -41.732693   1.000000   1.000000
    6      -41.732735    -41.732686   1.000000   1.000000
    7      -18.322322    -18.322319   1.000000   1.000000
    8      -18.322311    -18.322308   1.000000   1.000000
    9      -16.167253    -16.167243   1.000000   1.000000
   10      -16.167238    -16.167228   1.000000   1.000000
   11      -16.119196    -16.119184   1.000000   1.000000
   12      -16.119184    -16.119171   1.000000   1.000000
   13      -16.105756    -16.105745   1.000000   1.000000
   14      -16.105750    -16.105740   1.000000   1.000000
   15       -6.245180     -6.245182   1.000000   1.000000
   16       -6.245167     -6.245169   1.000000   1.000000
   17       -3.627441     -3.627440   1.000000   1.000000
   18       -3.627436     -3.627434   1.000000   1.000000
   19       -3.484758     -3.484757   1.000000   1.000000
   20       -3.484746     -3.484746   1.000000   1.000000
   21       -3.217466     -3.217463   1.000000   1.000000
   22       -3.217447     -3.217444   1.000000   1.000000
   23       -1.676428     -1.676423   1.000000   1.000000
   24       -1.676419     -1.676414   1.000000   1.000000
   25       -1.535031     -1.535025   1.000000   1.000000
   26       -1.535022     -1.535016   1.000000   1.000000
   27       -1.359835     -1.359827   1.000000   1.000000
   28       -1.359823     -1.359815   1.000000   1.000000
   29       -0.699250     -0.699241   1.000000   1.000000
   30       -0.699245     -0.699235   1.000000   1.000000
   31       -0.613256     -0.613245   1.000000   1.000000
   32       -0.613250     -0.613239   1.000000   1.000000
   33        0.287100      0.287114   1.000000   1.000000
   34        0.287104      0.287117   1.000000   1.000000
   35        0.427070      0.427084   1.000000   1.000000
   36        0.427084      0.427098   1.000000   1.000000
   37        0.520150      0.520166   1.000000   1.000000
   38        0.520162      0.520177   1.000000   1.000000
   39        7.434381      7.434375   0.000000   0.000000
   40        7.434389      7.434385   0.000000   0.000000
   41        8.647258      8.647265   0.000000   0.000000
   42        8.647273      8.647291   0.000000   0.000000
   43        8.990970      8.990972   0.000000   0.000000
   44        8.990981      8.990987   0.000000   0.000000
   45        9.575695      9.575690   0.000000   0.000000
   46        9.575761      9.575752   0.000000   0.000000
   47       10.722977     10.722954   0.000000   0.000000
   48       10.723002     10.722994   0.000000   0.000000
   49       11.243075     11.243026   0.000000   0.000000
   50       11.243121     11.243302   0.000000   0.000000
   51       12.131190     12.131514   0.000000   0.000000
   52       12.138083     12.135135   0.000000   0.000000
   53       12.383911     12.383980   0.000000   0.000000
   54       12.384299     12.384194   0.000000   0.000000
   55       13.349631     13.356391   0.000000   0.000000
   56       13.431113     13.419019   0.000000   0.000000
 
  0.0000000E+00  0.3333333E+00  0.0000000E+00  0.1111111E-01
    1      -42.065305    -42.065258   1.000000   1.000000
    2      -42.065049    -42.065002   1.000000   1.000000
    3      -41.741105    -41.741056   1.000000   1.000000
    4      -41.735513    -41.735464   1.000000   1.000000
    5      -41.735409    -41.735360   1.000000   1.000000
    6      -41.730062    -41.730013   1.000000   1.000000
    7      -18.411719    -18.411716   1.000000   1.000000
    8      -18.295159    -18.295155   1.000000   1.000000
    9      -16.182017    -16.182007   1.000000   1.000000
   10      -16.148286    -16.148274   1.000000   1.000000
   11      -16.108703    -16.108692   1.000000   1.000000
   12      -16.086343    -16.086330   1.000000   1.000000
   13      -16.081257    -16.081246   1.000000   1.000000
   14      -16.047168    -16.047157   1.000000   1.000000
   15       -6.232578     -6.232579   1.000000   1.000000
   16       -6.145924     -6.145926   1.000000   1.000000
   17       -3.930346     -3.930346   1.000000   1.000000
   18       -3.855941     -3.855941   1.000000   1.000000
   19       -3.671095     -3.671094   1.000000   1.000000
   20       -3.657117     -3.657118   1.000000   1.000000
   21       -3.411200     -3.411198   1.000000   1.000000
   22       -3.379211     -3.379209   1.000000   1.000000
   23       -1.587319     -1.587313   1.000000   1.000000
   24       -1.489541     -1.489534   1.000000   1.000000
   25       -1.457405     -1.457398   1.000000   1.000000
   26       -1.313208     -1.313202   1.000000   1.000000
   27       -1.123410     -1.123401   1.000000   1.000000
   28       -0.923768     -0.923760   1.000000   1.000000
   29       -0.891789     -0.891781   1.000000   1.000000
   30       -0.721389     -0.721378   1.000000   1.000000
   31       -0.366121     -0.366108   1.000000   1.000000
   32       -0.359069     -0.359058   1.000000   1.000000
   33        0.102094      0.102105   1.000000   1.000000
   34        0.178508      0.178521   1.000000   1.000000
   35        0.207011      0.207024   1.000000   1.000000
   36        0.356612      0.356626   1.000000   1.000000
   37        0.421268      0.421285   1.000000   1.000000
   38        0.622366      0.622381   1.000000   1.000000
   39        6.689969      6.689963   0.000000   0.000000
   40        8.030828      8.030821   0.000000   0.000000
   41        8.202948      8.203010   0.000000   0.000000
   42        8.950573      8.950635   0.000000   0.000000
   43        9.287184      9.287157   0.000000   0.000000
   44        9.705586      9.705575   0.000000   0.000000
   45        9.974432      9.974441   0.000000   0.000000
   46       10.128008     10.127996   0.000000   0.000000
   47       10.277072     10.277079   0.000000   0.000000
   48       10.918636     10.918818   0.000000   0.000000
   49       11.205677     11.205690   0.000000   0.000000
   50       11.554648     11.554649   0.000000   0.000000
   51       11.794172     11.793513   0.000000   0.000000
   52       12.016359     12.016329   0.000000   0.000000
   53       12.394399     12.394533   0.000000   0.000000
   54       13.065326     13.073086   0.000000   0.000000
   55       13.618745     13.601732   0.000000   0.000000
   56       13.837342     13.747017   0.000000   0.000000
 