 running on    8 total cores
 distrk:  each k-point on    8 cores,    1 groups
 distr:  one band on    4 cores,    2 groups
 using from now: INCAR     
 vasp.6.1.2 22Jul20 (build Mar 20 2021 11:25:07) complex                        
  
 POSCAR found type information on POSCAR LiP 
 POSCAR found :  2 types and      40 ions
 scaLAPACK will be used
 LDA part: xc-table for Pade appr. of Perdew
 generate k-points for:    4    3    3
 POSCAR, INCAR and KPOINTS ok, starting setup
 FFT: planning ...
 WAVECAR not read
 entering main loop
       N       E                     dE             d eps       ncg     rms          rms(c)
DAV:   1     0.106710586371E+04    0.10671E+04   -0.68641E+04  6832   0.133E+03
DAV:   2    -0.267412376362E+02   -0.10938E+04   -0.10106E+04  7992   0.289E+02
DAV:   3    -0.164953821598E+03   -0.13821E+03   -0.13637E+03  9190   0.973E+01
DAV:   4    -0.180885059056E+03   -0.15931E+02   -0.15827E+02 12352   0.290E+01
DAV:   5    -0.184015847767E+03   -0.31308E+01   -0.31291E+01 11088   0.853E+00    0.342E+01
DAV:   6    -0.184108538227E+03   -0.92690E-01   -0.96775E+00  8976   0.725E+00    0.188E+01
DAV:   7    -0.186255563937E+03   -0.21470E+01   -0.34234E+00  8680   0.444E+00    0.113E+01
DAV:   8    -0.187126052623E+03   -0.87049E+00   -0.14694E+00  8072   0.317E+00    0.256E+00
DAV:   9    -0.187205725204E+03   -0.79673E-01   -0.22123E-01  9656   0.137E+00    0.121E+00
DAV:  10    -0.187219034640E+03   -0.13309E-01   -0.40668E-02  9024   0.523E-01    0.480E-01
DAV:  11    -0.187223008181E+03   -0.39735E-02   -0.65682E-03  8232   0.254E-01    0.231E-01
DAV:  12    -0.187225039360E+03   -0.20312E-02   -0.24897E-03  9176   0.140E-01    0.106E-01
DAV:  13    -0.187225925443E+03   -0.88608E-03   -0.67583E-04  8576   0.698E-02    0.458E-02
DAV:  14    -0.187226236233E+03   -0.31079E-03   -0.26723E-04  8112   0.421E-02    0.270E-02
DAV:  15    -0.187226343713E+03   -0.10748E-03   -0.11733E-04  7144   0.277E-02    0.131E-02
DAV:  16    -0.187226364423E+03   -0.20710E-04   -0.23011E-05  6912   0.136E-02    0.659E-03
DAV:  17    -0.187226369030E+03   -0.46078E-05   -0.56563E-06  5152   0.765E-03
   1 F= -.18722637E+03 E0= -.18722637E+03  d E =0.000000E+00  mag=    -0.0002
