BEGIN_CFG
 Size
    14
 Supercell
         0.000000      4.083854      8.294641
         2.775377      0.000000      8.294641
         2.775377      4.083854      0.000000
 AtomData:  id type       cartes_x      cartes_y      cartes_z           fx          fy          fz
             1    0       2.207870      3.456120      9.556590     0.002638   -0.002383   -0.001705
             2    0       2.207870      4.711590      7.032700     0.002638    0.002383    0.001705
             3    0       3.595560      2.669660      5.409260     0.002638    0.002383   -0.001705
             4    0       3.595560      5.498040     11.180010     0.002638   -0.002383    0.001705
             5    1       3.433960      2.723100      9.263010    -0.009329   -0.000607    0.003079
             6    1       3.433960      5.444610      7.326270    -0.009329    0.000607   -0.003079
             7    1       4.821650      7.486530     13.410330    -0.009329    0.000607    0.003079
             8    1       4.821650      4.765030     11.473600    -0.009329   -0.000607   -0.003079
             9    1       2.826650      6.125780     12.441960     0.006205    0.000000    0.000000
            10    1       1.438960      4.083850      8.294640     0.006205   -0.000000    0.000000
            11    1       2.364480      4.730930     10.526090     0.003588    0.002492   -0.001436
            12    1       2.364480      3.436770      6.063200     0.003588   -0.002492    0.001436
            13    1       3.752170      5.478700     14.673410     0.003588   -0.002492   -0.001436
            14    1       3.752170      6.772860     10.210520     0.003588    0.002492    0.001436
 Energy
        -98.400110010000
 PlusStress:  xx          yy          zz          yz          xz          xy
        -0.01575    -0.02912    -0.01983     0.00000     0.00000     0.00000
 Feature   EFS_by	VASP
END_CFG

