 running on   12 total cores
 distrk:  each k-point on   12 cores,    1 groups
 distr:  one band on    6 cores,    2 groups
 using from now: INCAR     
 vasp.6.1.2 22Jul20 (build Mar 20 2021 11:25:07) complex                        
  
 POSCAR found type information on POSCAR LiP O 
 POSCAR found :  3 types and      26 ions
 scaLAPACK will be used
 LDA part: xc-table for Pade appr. of Perdew
 generate k-points for:    7    5    4
 POSCAR, INCAR and KPOINTS ok, starting setup
 FFT: planning ...
 WAVECAR not read
 entering main loop
       N       E                     dE             d eps       ncg     rms          rms(c)
DAV:   1     0.111681069366E+04    0.11168E+04   -0.62031E+04 24424   0.152E+03
DAV:   2    -0.626397852894E+02   -0.11795E+04   -0.11094E+04 29400   0.394E+02
DAV:   3    -0.174024547147E+03   -0.11138E+03   -0.11068E+03 31466   0.124E+02
DAV:   4    -0.183724368250E+03   -0.96998E+01   -0.96583E+01 46024   0.296E+01
DAV:   5    -0.185299889064E+03   -0.15755E+01   -0.15750E+01 34224   0.687E+00    0.506E+01
DAV:   6    -0.165248210722E+03    0.20052E+02   -0.89519E+01 30506   0.320E+01    0.252E+01
DAV:   7    -0.167294613807E+03   -0.20464E+01   -0.73353E+00 32072   0.908E+00    0.892E+00
DAV:   8    -0.167579123791E+03   -0.28451E+00   -0.80311E-01 32948   0.359E+00    0.445E+00
DAV:   9    -0.167714664463E+03   -0.13554E+00   -0.14179E-01 33472   0.165E+00    0.175E+00
DAV:  10    -0.167741003326E+03   -0.26339E-01   -0.54345E-02 29856   0.113E+00    0.530E-01
DAV:  11    -0.167751557559E+03   -0.10554E-01   -0.11573E-02 30456   0.449E-01    0.302E-01
DAV:  12    -0.167754228005E+03   -0.26704E-02   -0.20611E-03 31904   0.206E-01    0.156E-01
DAV:  13    -0.167755481696E+03   -0.12537E-02   -0.10552E-03 28312   0.128E-01    0.478E-02
DAV:  14    -0.167755664286E+03   -0.18259E-03   -0.15494E-04 32416   0.598E-02    0.253E-02
DAV:  15    -0.167755722995E+03   -0.58709E-04   -0.58496E-05 25536   0.338E-02    0.158E-02
DAV:  16    -0.167755732689E+03   -0.96940E-05   -0.79854E-06 20656   0.133E-02
   1 F= -.16775573E+03 E0= -.16775573E+03  d E =0.000000E+00  mag=    -0.0015
