Automatically generated mesh
     296
Reciprocal lattice
    0.00000000000000    0.00000000000000    0.00000000000000             1
    0.12500000000000   -0.00000000000000    0.00000000000000             2
    0.25000000000000   -0.00000000000000    0.00000000000000             2
    0.37500000000000    0.00000000000000    0.00000000000000             2
    0.50000000000000   -0.00000000000000    0.00000000000000             2
   -0.00000000000000    0.12500000000000    0.00000000000000             2
    0.12500000000000    0.12500000000000    0.00000000000000             2
    0.25000000000000    0.12500000000000    0.00000000000000             2
    0.37500000000000    0.12500000000000    0.00000000000000             4
    0.50000000000000    0.12500000000000    0.00000000000000             4
   -0.37500000000000    0.12500000000000    0.00000000000000             2
   -0.25000000000000    0.12500000000000   -0.00000000000000             2
   -0.12500000000000    0.12500000000000   -0.00000000000000             2
   -0.00000000000000    0.25000000000000    0.00000000000000             2
    0.12500000000000    0.25000000000000    0.00000000000000             2
    0.25000000000000    0.25000000000000    0.00000000000000             4
    0.37500000000000    0.25000000000000    0.00000000000000             2
    0.50000000000000    0.25000000000000    0.00000000000000             4
   -0.37500000000000    0.25000000000000   -0.00000000000000             2
   -0.25000000000000    0.25000000000000   -0.00000000000000             2
   -0.12500000000000    0.25000000000000    0.00000000000000             2
    0.00000000000000    0.37500000000000   -0.00000000000000             2
    0.12500000000000    0.37500000000000    0.00000000000000             4
    0.25000000000000    0.37500000000000    0.00000000000000             2
    0.37500000000000    0.37500000000000   -0.00000000000000             2
    0.50000000000000    0.37500000000000    0.00000000000000             4
   -0.37500000000000    0.37500000000000   -0.00000000000000             2
   -0.25000000000000    0.37500000000000   -0.00000000000000             2
   -0.12500000000000    0.37500000000000   -0.00000000000000             2
   -0.00000000000000    0.50000000000000    0.00000000000000             2
    0.12500000000000    0.50000000000000    0.00000000000000             4
    0.25000000000000    0.50000000000000    0.00000000000000             4
    0.37500000000000    0.50000000000000   -0.00000000000000             4
    0.50000000000000    0.50000000000000    0.00000000000000             2
    0.00000000000000    0.00000000000000    0.10000000000000             2
    0.12500000000000   -0.00000000000000    0.10000000000000             2
    0.25000000000000   -0.00000000000000    0.10000000000000             2
    0.37500000000000    0.00000000000000    0.10000000000000             2
    0.50000000000000   -0.00000000000000    0.10000000000000             4
   -0.37500000000000   -0.00000000000000    0.10000000000000             2
   -0.25000000000000    0.00000000000000    0.10000000000000             2
   -0.12500000000000    0.00000000000000    0.10000000000000             2
    0.00000000000000    0.12500000000000    0.10000000000000             2
    0.12500000000000    0.12500000000000    0.10000000000000             2
    0.25000000000000    0.12500000000000    0.10000000000000             2
    0.37500000000000    0.12500000000000    0.10000000000000             4
    0.50000000000000    0.12500000000000    0.10000000000000             2
   -0.37500000000000    0.12500000000000    0.10000000000000             2
   -0.25000000000000    0.12500000000000    0.10000000000000             2
   -0.12500000000000    0.12500000000000    0.10000000000000             2
   -0.00000000000000    0.25000000000000    0.10000000000000             2
    0.12500000000000    0.25000000000000    0.10000000000000             2
    0.25000000000000    0.25000000000000    0.10000000000000             4
    0.37500000000000    0.25000000000000    0.10000000000000             2
    0.50000000000000    0.25000000000000    0.10000000000000             2
   -0.37500000000000    0.25000000000000    0.10000000000000             2
   -0.25000000000000    0.25000000000000    0.10000000000000             2
   -0.12500000000000    0.25000000000000    0.10000000000000             2
    0.00000000000000    0.37500000000000    0.10000000000000             2
    0.12500000000000    0.37500000000000    0.10000000000000             4
    0.25000000000000    0.37500000000000    0.10000000000000             2
    0.37500000000000    0.37500000000000    0.10000000000000             2
    0.50000000000000    0.37500000000000    0.10000000000000             2
   -0.37500000000000    0.37500000000000    0.10000000000000             2
   -0.25000000000000    0.37500000000000    0.10000000000000             2
   -0.12500000000000    0.37500000000000    0.10000000000000             2
   -0.00000000000000    0.50000000000000    0.10000000000000             4
    0.12500000000000    0.50000000000000    0.10000000000000             2
    0.25000000000000    0.50000000000000    0.10000000000000             2
    0.37500000000000    0.50000000000000    0.10000000000000             2
    0.50000000000000    0.50000000000000    0.10000000000000             2
   -0.37500000000000    0.50000000000000    0.10000000000000             2
   -0.25000000000000    0.50000000000000    0.10000000000000             2
   -0.12500000000000    0.50000000000000    0.10000000000000             2
   -0.00000000000000   -0.37500000000000    0.10000000000000             2
    0.12500000000000   -0.37500000000000    0.10000000000000             2
    0.25000000000000   -0.37500000000000    0.10000000000000             2
    0.37500000000000   -0.37500000000000    0.10000000000000             2
    0.50000000000000   -0.37500000000000    0.10000000000000             2
   -0.37500000000000   -0.37500000000000    0.10000000000000             2
   -0.25000000000000   -0.37500000000000    0.10000000000000             2
   -0.12500000000000   -0.37500000000000    0.10000000000000             4
   -0.00000000000000   -0.25000000000000    0.10000000000000             2
    0.12500000000000   -0.25000000000000    0.10000000000000             2
    0.25000000000000   -0.25000000000000    0.10000000000000             2
    0.37500000000000   -0.25000000000000    0.10000000000000             2
    0.50000000000000   -0.25000000000000    0.10000000000000             2
   -0.37500000000000   -0.25000000000000    0.10000000000000             2
   -0.25000000000000   -0.25000000000000    0.10000000000000             4
   -0.12500000000000   -0.25000000000000    0.10000000000000             2
    0.00000000000000   -0.12500000000000    0.10000000000000             2
    0.12500000000000   -0.12500000000000    0.10000000000000             2
    0.25000000000000   -0.12500000000000    0.10000000000000             2
    0.37500000000000   -0.12500000000000    0.10000000000000             2
    0.50000000000000   -0.12500000000000    0.10000000000000             2
   -0.37500000000000   -0.12500000000000    0.10000000000000             4
   -0.25000000000000   -0.12500000000000    0.10000000000000             2
   -0.12500000000000   -0.12500000000000    0.10000000000000             2
    0.00000000000000   -0.00000000000000    0.20000000000000             2
    0.12500000000000   -0.00000000000000    0.20000000000000             2
    0.25000000000000    0.00000000000000    0.20000000000000             2
    0.37500000000000   -0.00000000000000    0.20000000000000             2
    0.50000000000000   -0.00000000000000    0.20000000000000             4
   -0.37500000000000    0.00000000000000    0.20000000000000             2
   -0.25000000000000    0.00000000000000    0.20000000000000             2
   -0.12500000000000    0.00000000000000    0.20000000000000             2
   -0.00000000000000    0.12500000000000    0.20000000000000             2
    0.12500000000000    0.12500000000000    0.20000000000000             2
    0.25000000000000    0.12500000000000    0.20000000000000             2
    0.37500000000000    0.12500000000000    0.20000000000000             4
    0.50000000000000    0.12500000000000    0.20000000000000             2
   -0.37500000000000    0.12500000000000    0.20000000000000             2
   -0.25000000000000    0.12500000000000    0.20000000000000             2
   -0.12500000000000    0.12500000000000    0.20000000000000             2
    0.00000000000000    0.25000000000000    0.20000000000000             2
    0.12500000000000    0.25000000000000    0.20000000000000             2
    0.25000000000000    0.25000000000000    0.20000000000000             4
    0.37500000000000    0.25000000000000    0.20000000000000             2
    0.50000000000000    0.25000000000000    0.20000000000000             2
   -0.37500000000000    0.25000000000000    0.20000000000000             2
   -0.25000000000000    0.25000000000000    0.20000000000000             2
   -0.12500000000000    0.25000000000000    0.20000000000000             2
    0.00000000000000    0.37500000000000    0.20000000000000             2
    0.12500000000000    0.37500000000000    0.20000000000000             4
    0.25000000000000    0.37500000000000    0.20000000000000             2
    0.37500000000000    0.37500000000000    0.20000000000000             2
    0.50000000000000    0.37500000000000    0.20000000000000             2
   -0.37500000000000    0.37500000000000    0.20000000000000             2
   -0.25000000000000    0.37500000000000    0.20000000000000             2
   -0.12500000000000    0.37500000000000    0.20000000000000             2
   -0.00000000000000    0.50000000000000    0.20000000000000             4
    0.12500000000000    0.50000000000000    0.20000000000000             2
    0.25000000000000    0.50000000000000    0.20000000000000             2
    0.37500000000000    0.50000000000000    0.20000000000000             2
    0.50000000000000    0.50000000000000    0.20000000000000             2
   -0.37500000000000    0.50000000000000    0.20000000000000             2
   -0.25000000000000    0.50000000000000    0.20000000000000             2
   -0.12500000000000    0.50000000000000    0.20000000000000             2
    0.00000000000000   -0.37500000000000    0.20000000000000             2
    0.12500000000000   -0.37500000000000    0.20000000000000             2
    0.25000000000000   -0.37500000000000    0.20000000000000             2
    0.37500000000000   -0.37500000000000    0.20000000000000             2
    0.50000000000000   -0.37500000000000    0.20000000000000             2
   -0.37500000000000   -0.37500000000000    0.20000000000000             2
   -0.25000000000000   -0.37500000000000    0.20000000000000             2
   -0.12500000000000   -0.37500000000000    0.20000000000000             4
    0.00000000000000   -0.25000000000000    0.20000000000000             2
    0.12500000000000   -0.25000000000000    0.20000000000000             2
    0.25000000000000   -0.25000000000000    0.20000000000000             2
    0.37500000000000   -0.25000000000000    0.20000000000000             2
    0.50000000000000   -0.25000000000000    0.20000000000000             2
   -0.37500000000000   -0.25000000000000    0.20000000000000             2
   -0.25000000000000   -0.25000000000000    0.20000000000000             4
   -0.12500000000000   -0.25000000000000    0.20000000000000             2
    0.00000000000000   -0.12500000000000    0.20000000000000             2
    0.12500000000000   -0.12500000000000    0.20000000000000             2
    0.25000000000000   -0.12500000000000    0.20000000000000             2
    0.37500000000000   -0.12500000000000    0.20000000000000             2
    0.50000000000000   -0.12500000000000    0.20000000000000             2
   -0.37500000000000   -0.12500000000000    0.20000000000000             4
   -0.25000000000000   -0.12500000000000    0.20000000000000             2
   -0.12500000000000   -0.12500000000000    0.20000000000000             2
    0.00000000000000   -0.00000000000000    0.30000000000000             2
    0.12500000000000    0.00000000000000    0.30000000000000             2
    0.25000000000000   -0.00000000000000    0.30000000000000             2
    0.37500000000000    0.00000000000000    0.30000000000000             2
   -0.37500000000000    0.00000000000000    0.30000000000000             2
   -0.25000000000000    0.00000000000000    0.30000000000000             2
   -0.12500000000000    0.00000000000000    0.30000000000000             2
    0.00000000000000    0.12500000000000    0.30000000000000             2
    0.12500000000000    0.12500000000000    0.30000000000000             2
    0.25000000000000    0.12500000000000    0.30000000000000             2
    0.50000000000000    0.12500000000000    0.30000000000000             2
   -0.37500000000000    0.12500000000000    0.30000000000000             2
   -0.25000000000000    0.12500000000000    0.30000000000000             2
   -0.12500000000000    0.12500000000000    0.30000000000000             2
   -0.00000000000000    0.25000000000000    0.30000000000000             2
    0.12500000000000    0.25000000000000    0.30000000000000             2
    0.37500000000000    0.25000000000000    0.30000000000000             2
    0.50000000000000    0.25000000000000    0.30000000000000             2
   -0.37500000000000    0.25000000000000    0.30000000000000             2
   -0.25000000000000    0.25000000000000    0.30000000000000             2
   -0.12500000000000    0.25000000000000    0.30000000000000             2
    0.00000000000000    0.37500000000000    0.30000000000000             2
    0.25000000000000    0.37500000000000    0.30000000000000             2
    0.37500000000000    0.37500000000000    0.30000000000000             2
    0.50000000000000    0.37500000000000    0.30000000000000             2
   -0.37500000000000    0.37500000000000    0.30000000000000             2
   -0.25000000000000    0.37500000000000    0.30000000000000             2
   -0.12500000000000    0.37500000000000    0.30000000000000             2
    0.12500000000000    0.50000000000000    0.30000000000000             2
    0.25000000000000    0.50000000000000    0.30000000000000             2
    0.37500000000000    0.50000000000000    0.30000000000000             2
    0.50000000000000    0.50000000000000    0.30000000000000             2
   -0.37500000000000    0.50000000000000    0.30000000000000             2
   -0.25000000000000    0.50000000000000    0.30000000000000             2
   -0.12500000000000    0.50000000000000    0.30000000000000             2
    0.00000000000000   -0.37500000000000    0.30000000000000             2
    0.12500000000000   -0.37500000000000    0.30000000000000             2
    0.25000000000000   -0.37500000000000    0.30000000000000             2
    0.37500000000000   -0.37500000000000    0.30000000000000             2
    0.50000000000000   -0.37500000000000    0.30000000000000             2
   -0.37500000000000   -0.37500000000000    0.30000000000000             2
   -0.25000000000000   -0.37500000000000    0.30000000000000             2
   -0.00000000000000   -0.25000000000000    0.30000000000000             2
    0.12500000000000   -0.25000000000000    0.30000000000000             2
    0.25000000000000   -0.25000000000000    0.30000000000000             2
    0.37500000000000   -0.25000000000000    0.30000000000000             2
    0.50000000000000   -0.25000000000000    0.30000000000000             2
   -0.37500000000000   -0.25000000000000    0.30000000000000             2
   -0.12500000000000   -0.25000000000000    0.30000000000000             2
    0.00000000000000   -0.12500000000000    0.30000000000000             2
    0.12500000000000   -0.12500000000000    0.30000000000000             2
    0.25000000000000   -0.12500000000000    0.30000000000000             2
    0.37500000000000   -0.12500000000000    0.30000000000000             2
    0.50000000000000   -0.12500000000000    0.30000000000000             2
   -0.25000000000000   -0.12500000000000    0.30000000000000             2
   -0.12500000000000   -0.12500000000000    0.30000000000000             2
    0.00000000000000   -0.00000000000000    0.40000000000000             2
    0.12500000000000    0.00000000000000    0.40000000000000             2
    0.25000000000000   -0.00000000000000    0.40000000000000             2
    0.37500000000000    0.00000000000000    0.40000000000000             2
   -0.37500000000000    0.00000000000000    0.40000000000000             2
   -0.25000000000000    0.00000000000000    0.40000000000000             2
   -0.12500000000000   -0.00000000000000    0.40000000000000             2
    0.00000000000000    0.12500000000000    0.40000000000000             2
    0.12500000000000    0.12500000000000    0.40000000000000             2
    0.25000000000000    0.12500000000000    0.40000000000000             2
    0.50000000000000    0.12500000000000    0.40000000000000             2
   -0.37500000000000    0.12500000000000    0.40000000000000             2
   -0.25000000000000    0.12500000000000    0.40000000000000             2
   -0.12500000000000    0.12500000000000    0.40000000000000             2
   -0.00000000000000    0.25000000000000    0.40000000000000             2
    0.12500000000000    0.25000000000000    0.40000000000000             2
    0.37500000000000    0.25000000000000    0.40000000000000             2
    0.50000000000000    0.25000000000000    0.40000000000000             2
   -0.37500000000000    0.25000000000000    0.40000000000000             2
   -0.25000000000000    0.25000000000000    0.40000000000000             2
   -0.12500000000000    0.25000000000000    0.40000000000000             2
    0.00000000000000    0.37500000000000    0.40000000000000             2
    0.25000000000000    0.37500000000000    0.40000000000000             2
    0.37500000000000    0.37500000000000    0.40000000000000             2
    0.50000000000000    0.37500000000000    0.40000000000000             2
   -0.37500000000000    0.37500000000000    0.40000000000000             2
   -0.25000000000000    0.37500000000000    0.40000000000000             2
   -0.12500000000000    0.37500000000000    0.40000000000000             2
    0.12500000000000    0.50000000000000    0.40000000000000             2
    0.25000000000000    0.50000000000000    0.40000000000000             2
    0.37500000000000    0.50000000000000    0.40000000000000             2
    0.50000000000000    0.50000000000000    0.40000000000000             2
   -0.37500000000000    0.50000000000000    0.40000000000000             2
   -0.25000000000000    0.50000000000000    0.40000000000000             2
   -0.12500000000000    0.50000000000000    0.40000000000000             2
    0.00000000000000   -0.37500000000000    0.40000000000000             2
    0.12500000000000   -0.37500000000000    0.40000000000000             2
    0.25000000000000   -0.37500000000000    0.40000000000000             2
    0.37500000000000   -0.37500000000000    0.40000000000000             2
    0.50000000000000   -0.37500000000000    0.40000000000000             2
   -0.37500000000000   -0.37500000000000    0.40000000000000             2
   -0.25000000000000   -0.37500000000000    0.40000000000000             2
    0.00000000000000   -0.25000000000000    0.40000000000000             2
    0.12500000000000   -0.25000000000000    0.40000000000000             2
    0.25000000000000   -0.25000000000000    0.40000000000000             2
    0.37500000000000   -0.25000000000000    0.40000000000000             2
    0.50000000000000   -0.25000000000000    0.40000000000000             2
   -0.37500000000000   -0.25000000000000    0.40000000000000             2
   -0.12500000000000   -0.25000000000000    0.40000000000000             2
    0.00000000000000   -0.12500000000000    0.40000000000000             2
    0.12500000000000   -0.12500000000000    0.40000000000000             2
    0.25000000000000   -0.12500000000000    0.40000000000000             2
    0.37500000000000   -0.12500000000000    0.40000000000000             2
    0.50000000000000   -0.12500000000000    0.40000000000000             2
   -0.25000000000000   -0.12500000000000    0.40000000000000             2
   -0.12500000000000   -0.12500000000000    0.40000000000000             2
    0.12500000000000    0.12500000000000    0.50000000000000             2
    0.25000000000000    0.12500000000000    0.50000000000000             2
    0.50000000000000    0.12500000000000    0.50000000000000             2
   -0.37500000000000    0.12500000000000    0.50000000000000             2
   -0.25000000000000    0.12500000000000    0.50000000000000             2
   -0.12500000000000    0.12500000000000    0.50000000000000             2
    0.12500000000000    0.25000000000000    0.50000000000000             2
    0.37500000000000    0.25000000000000    0.50000000000000             2
    0.50000000000000    0.25000000000000    0.50000000000000             2
   -0.37500000000000    0.25000000000000    0.50000000000000             2
   -0.25000000000000    0.25000000000000    0.50000000000000             2
   -0.12500000000000    0.25000000000000    0.50000000000000             2
    0.25000000000000    0.37500000000000    0.50000000000000             2
    0.37500000000000    0.37500000000000    0.50000000000000             2
    0.50000000000000    0.37500000000000    0.50000000000000             2
   -0.37500000000000    0.37500000000000    0.50000000000000             2
   -0.25000000000000    0.37500000000000    0.50000000000000             2
   -0.12500000000000    0.37500000000000    0.50000000000000             2
    0.12500000000000    0.50000000000000    0.50000000000000             2
    0.25000000000000    0.50000000000000    0.50000000000000             2
    0.37500000000000    0.50000000000000    0.50000000000000             2
    0.50000000000000    0.50000000000000    0.50000000000000             1
Tetrahedra
      1918    0.00026041666667
         2         1         2         7        35
         2         1         6         7        35
         2         6         7        35        43
         2         2         7        35        36
         2         7        35        36        44
         2         7        35        43        44
         2         2         3         8        36
         2         2         7         8        36
         2         7         8        36        44
         2         3         8        36        37
         2         8        36        37        45
         2         8        36        44        45
         2         3         4         9        37
         2         3         8         9        37
         2         8         9        37        45
         2         4         9        37        38
         2         9        37        38        46
         2         9        37        45        46
         2         4         5        10        38
         2         4         9        10        38
         2         9        10        38        46
         2         5        10        38        39
         2        10        38        39        47
         2        10        38        46        47
         2         4         5        11        39
         2         5        10        11        39
         2        10        11        39        47
         2         4        11        39        40
         2        11        39        40        48
         2        11        39        47        48
         2         3         4        12        40
         2         4        11        12        40
         2        11        12        40        48
         2         3        12        40        41
         2        12        40        41        49
         2        12        40        48        49
         2         2         3        13        41
         2         3        12        13        41
         2        12        13        41        49
         2         2        13        41        42
         2        13        41        42        50
         2        13        41        49        50
         2         1         2         6        42
         2         2         6        13        42
         2         6        13        42        50
         2         1         6        35        42
         2         6        35        42        43
         2         6        42        43        50
         2         6         7        15        43
         2         6        14        15        43
         2        14        15        43        51
         2         7        15        43        44
         2        15        43        44        52
         2        15        43        51        52
         2         7         8        16        44
         2         7        15        16        44
         2        15        16        44        52
         2         8        16        44        45
         2        16        44        45        53
         2        16        44        52        53
         2         8         9        17        45
         2         8        16        17        45
         2        16        17        45        53
         2         9        17        45        46
         2        17        45        46        54
         2        17        45        53        54
         4         9        10        18        46
         2         9        17        18        46
         2        17        18        46        54
         2        10        18        46        47
         2        18        46        47        55
         2        18        46        54        55
         2        10        11        19        47
         2        10        18        19        47
         2        18        19        47        55
         2        11        19        47        48
         2        19        47        48        56
         2        19        47        55        56
         2        11        12        20        48
         2        11        19        20        48
         2        19        20        48        56
         2        12        20        48        49
         2        20        48        49        57
         2        20        48        56        57
         2        12        13        21        49
         2        12        20        21        49
         2        20        21        49        57
         2        13        21        49        50
         2        21        49        50        58
         2        21        49        57        58
         2         6        13        14        50
         2        13        14        21        50
         2        14        21        50        58
         2         6        14        43        50
         2        14        43        50        51
         2        14        50        51        58
         2        14        15        23        51
         2        14        22        23        51
         2        22        23        51        59
         2        15        23        51        52
         2        23        51        52        60
         2        23        51        59        60
         2        15        16        24        52
         2        15        23        24        52
         2        23        24        52        60
         2        16        24        52        53
         2        24        52        53        61
         2        24        52        60        61
         2        16        17        25        53
         2        16        24        25        53
         2        24        25        53        61
         2        17        25        53        54
         2        25        53        54        62
         2        25        53        61        62
         2        17        18        26        54
         2        17        25        26        54
         2        25        26        54        62
         2        18        26        54        55
         2        26        54        55        63
         2        26        54        62        63
         2        18        19        27        55
         2        18        26        27        55
         2        26        27        55        63
         2        19        27        55        56
         2        27        55        56        64
         2        27        55        63        64
         2        19        20        28        56
         2        19        27        28        56
         2        27        28        56        64
         2        20        28        56        57
         2        28        56        57        65
         2        28        56        64        65
         2        20        21        29        57
         2        20        28        29        57
         2        28        29        57        65
         2        21        29        57        58
         2        29        57        58        66
         2        29        57        65        66
         2        14        21        22        58
         2        21        22        29        58
         2        22        29        58        66
         2        14        22        51        58
         2        22        51        58        59
         2        22        58        59        66
         2        22        23        31        59
         2        22        30        31        59
         2        30        31        59        67
         2        23        31        59        60
         2        31        59        60        68
         2        31        59        67        68
         2        23        24        32        60