 running on    8 total cores
 distrk:  each k-point on    8 cores,    1 groups
 distr:  one band on    1 cores,    8 groups
 using from now: INCAR     
 vasp.6.1.2 22Jul20 (build Mar 20 2021 11:25:07) complex                        
  
 POSCAR found type information on POSCAR P N 
 POSCAR found :  2 types and      16 ions
 scaLAPACK will be used
 -----------------------------------------------------------------------------
|                                                                             |
|           W    W    AA    RRRRR   N    N  II  N    N   GGGG   !!!           |
|           W    W   A  A   R    R  NN   N  II  NN   N  G    G  !!!           |
|           W    W  A    A  R    R  N N  N  II  N N  N  G       !!!           |
|           W WW W  AAAAAA  RRRRR   N  N N  II  N  N N  G  GGG   !            |
|           WW  WW  A    A  R   R   N   NN  II  N   NN  G    G                |
|           W    W  A    A  R    R  N    N  II  N    N   GGGG   !!!           |
|                                                                             |
|     The value NCORE = 6 specified in the INCAR file was overwritten,        |
|     because it was not compatible with the 8 processes available:           |
|     NCORE = 1                                                               |
|     was used instead, please check that this makes sense for your           |
|     machine.                                                                |
|                                                                             |
 -----------------------------------------------------------------------------

 -----------------------------------------------------------------------------
|                                                                             |
|           W    W    AA    RRRRR   N    N  II  N    N   GGGG   !!!           |
|           W    W   A  A   R    R  NN   N  II  NN   N  G    G  !!!           |
|           W    W  A    A  R    R  N N  N  II  N N  N  G       !!!           |
|           W WW W  AAAAAA  RRRRR   N  N N  II  N  N N  G  GGG   !            |
|           WW  WW  A    A  R   R   N   NN  II  N   NN  G    G                |
|           W    W  A    A  R    R  N    N  II  N    N   GGGG   !!!           |
|                                                                             |
|     For optimal performance we recommend to set                             |
|       NCORE = 4 - approx SQRT(number of cores).                             |
|     NCORE specifies how many cores store one orbital (NPAR=cpu/NCORE).      |
|     This setting can greatly improve the performance of VASP for DFT.       |
|     The default, NCORE=1 might be grossly inefficient on modern             |
|     multi-core architectures or massively parallel machines. Do your        |
|     own testing!!!!                                                         |
|     Unfortunately you need to use the default for GW and RPA                |
|     calculations (for HF NCORE is supported but not extensively tested      |
|     yet).                                                                   |
|                                                                             |
 -----------------------------------------------------------------------------

 LDA part: xc-table for Pade appr. of Perdew
 generate k-points for:    7    7    4
 POSCAR, INCAR and KPOINTS ok, starting setup
 FFT: planning ...
 WAVECAR not read
 entering main loop
       N       E                     dE             d eps       ncg     rms          rms(c)
DAV:   1     0.459750480952E+03    0.45975E+03   -0.39997E+04 13440   0.131E+03
DAV:   2    -0.101320249649E+03   -0.56107E+03   -0.53562E+03 17056   0.299E+02
DAV:   3    -0.137436309296E+03   -0.36116E+02   -0.35807E+02 16880   0.804E+01
DAV:   4    -0.138092693895E+03   -0.65638E+00   -0.65351E+00 17480   0.114E+01
DAV:   5    -0.138109706019E+03   -0.17012E-01   -0.16993E-01 16544   0.173E+00    0.466E+01
DAV:   6    -0.118294038800E+03    0.19816E+02   -0.64123E+01 15824   0.309E+01    0.233E+01
DAV:   7    -0.120465575971E+03   -0.21715E+01   -0.10306E+01 16328   0.113E+01    0.750E+00
DAV:   8    -0.120461040280E+03    0.45357E-02   -0.57272E-01 16056   0.343E+00    0.455E+00
DAV:   9    -0.120463513167E+03   -0.24729E-02   -0.65151E-02 16168   0.128E+00    0.220E+00
DAV:  10    -0.120461985655E+03    0.15275E-02   -0.26261E-02 16512   0.816E-01    0.465E-01
DAV:  11    -0.120464721886E+03   -0.27362E-02   -0.52525E-03 15584   0.382E-01    0.251E-01
DAV:  12    -0.120465228564E+03   -0.50668E-03   -0.47142E-04 16944   0.123E-01    0.144E-01
DAV:  13    -0.120465525908E+03   -0.29734E-03   -0.28317E-04 16224   0.800E-02    0.584E-02
DAV:  14    -0.120465588580E+03   -0.62672E-04   -0.37123E-05 14000   0.309E-02    0.185E-02
DAV:  15    -0.120465604375E+03   -0.15795E-04   -0.13582E-05 11024   0.180E-02    0.944E-03
DAV:  16    -0.120465608268E+03   -0.38924E-05   -0.45716E-06 10608   0.975E-03
   1 F= -.12046561E+03 E0= -.12046561E+03  d E =0.000000E+00  mag=    -0.0005
