 running on   12 total cores
 distrk:  each k-point on   12 cores,    1 groups
 distr:  one band on    6 cores,    2 groups
 using from now: INCAR     
 vasp.6.1.2 22Jul20 (build Mar 20 2021 11:25:07) complex                        
  
 POSCAR found type information on POSCAR LiP 
 POSCAR found :  2 types and       8 ions
 scaLAPACK will be used
 -----------------------------------------------------------------------------
|                                                                             |
|               ----> ADVICE to this user running VASP <----                  |
|                                                                             |
|     You have a (more or less) 'small supercell' and for smaller cells       |
|     it is recommended to use the reciprocal-space projection scheme!        |
|     The real-space optimization is not efficient for small cells and it     |
|     is also less accurate ...                                               |
|     Therefore, set LREAL=.FALSE. in the INCAR file.                         |
|                                                                             |
 -----------------------------------------------------------------------------

 LDA part: xc-table for Pade appr. of Perdew
 generate k-points for:    8    9    4
 POSCAR, INCAR and KPOINTS ok, starting setup
 FFT: planning ...
 WAVECAR not read
 entering main loop
       N       E                     dE             d eps       ncg     rms          rms(c)
DAV:   1     0.154961673758E+03    0.15496E+03   -0.12092E+04  9768   0.128E+03
DAV:   2     0.165159415998E+01   -0.15331E+03   -0.14531E+03 10772   0.313E+02
DAV:   3    -0.231920823419E+02   -0.24844E+02   -0.24683E+02 17004   0.735E+01
DAV:   4    -0.262349699059E+02   -0.30429E+01   -0.30209E+01 15160   0.350E+01
DAV:   5    -0.265187900073E+02   -0.28382E+00   -0.28379E+00 15816   0.805E+00    0.148E+01
RMM:   6    -0.269727356242E+02   -0.45395E+00   -0.18656E+00 12106   0.688E+00    0.748E+00
RMM:   7    -0.276744701805E+02   -0.70173E+00   -0.60015E-01 13576   0.475E+00    0.274E+00
RMM:   8    -0.277552262690E+02   -0.80756E-01   -0.50335E-01 15701   0.323E+00    0.120E+00
RMM:   9    -0.277652539373E+02   -0.10028E-01   -0.11433E-01 16439   0.197E+00    0.564E-01
RMM:  10    -0.277742631334E+02   -0.90092E-02   -0.56561E-02 17165   0.118E+00    0.278E-01
RMM:  11    -0.277771650961E+02   -0.29020E-02   -0.22227E-02 17500   0.695E-01    0.216E-01
RMM:  12    -0.277782315554E+02   -0.10665E-02   -0.87258E-03 17216   0.512E-01    0.550E-02
RMM:  13    -0.277789357601E+02   -0.70420E-03   -0.45848E-03 17457   0.323E-01    0.234E-02
RMM:  14    -0.277792397807E+02   -0.30402E-03   -0.25787E-03 16571   0.222E-01    0.262E-02
RMM:  15    -0.277793770797E+02   -0.13730E-03   -0.12343E-03 15168   0.154E-01    0.205E-02
RMM:  16    -0.277794533219E+02   -0.76242E-04   -0.70227E-04 15093   0.114E-01    0.259E-02
RMM:  17    -0.277794944394E+02   -0.41118E-04   -0.41335E-04 14743   0.940E-02    0.255E-02
RMM:  18    -0.277795250923E+02   -0.30653E-04   -0.26930E-04 13188   0.725E-02    0.307E-02
RMM:  19    -0.277795463570E+02   -0.21265E-04   -0.19185E-04 13496   0.621E-02    0.382E-02
RMM:  20    -0.277795599772E+02   -0.13620E-04   -0.12808E-04 12363   0.527E-02    0.423E-02
RMM:  21    -0.277795620343E+02   -0.20571E-05   -0.80515E-05 11471   0.467E-02
   1 F= -.27779562E+02 E0= -.27779562E+02  d E =0.000000E+00  mag=     0.0001
