   26   26    1    2
  0.1166738E+02  0.5285134E-09  0.7263919E-09  0.8708665E-09  0.5000000E-15
  1.000000000000000E-004
  CAR 
 unknown system                          
    128     71     86
 
  0.0000000E+00  0.0000000E+00  0.0000000E+00  0.7142857E-02
    1      -42.124089    -42.124185   1.000000   1.000000
    2      -42.123528    -42.123624   1.000000   1.000000
    3      -42.006930    -42.007028   1.000000   1.000000
    4      -42.006451    -42.006548   1.000000   1.000000
    5      -41.948291    -41.948394   1.000000   1.000000
    6      -41.935965    -41.936069   1.000000   1.000000
    7      -41.918984    -41.919081   1.000000   1.000000
    8      -41.918879    -41.918976   1.000000   1.000000
    9      -20.013127    -20.013120   1.000000   1.000000
   10      -19.955168    -19.955162   1.000000   1.000000
   11      -18.809081    -18.809075   1.000000   1.000000
   12      -18.781356    -18.781351   1.000000   1.000000
   13      -17.581000    -17.581009   1.000000   1.000000
   14      -17.515117    -17.515127   1.000000   1.000000
   15      -17.004897    -17.004913   1.000000   1.000000
   16      -16.976652    -16.976669   1.000000   1.000000
   17      -16.814866    -16.814882   1.000000   1.000000
   18      -16.804304    -16.804319   1.000000   1.000000
   19      -16.739179    -16.739196   1.000000   1.000000
   20      -16.723865    -16.723883   1.000000   1.000000
   21      -16.670386    -16.670402   1.000000   1.000000
   22      -16.666953    -16.666969   1.000000   1.000000
   23       -8.637652     -8.637634   1.000000   1.000000
   24       -8.627898     -8.627880   1.000000   1.000000
   25       -6.240450     -6.240397   1.000000   1.000000
   26       -5.858119     -5.858079   1.000000   1.000000
   27       -5.174263     -5.174225   1.000000   1.000000
   28       -5.055396     -5.055363   1.000000   1.000000
   29       -4.666118     -4.666084   1.000000   1.000000
   30       -4.462278     -4.462245   1.000000   1.000000
   31       -4.345151     -4.345124   1.000000   1.000000
   32       -4.334707     -4.334682   1.000000   1.000000
   33       -3.946462     -3.946431   1.000000   1.000000
   34       -3.891401     -3.891366   1.000000   1.000000
   35       -3.831900     -3.831871   1.000000   1.000000
   36       -3.651172     -3.651144   1.000000   1.000000
   37       -3.260706     -3.260677   1.000000   1.000000
   38       -2.960957     -2.960933   1.000000   1.000000
   39       -2.489089     -2.489079   1.000000   1.000000
   40       -2.234473     -2.234473   1.000000   1.000000
   41       -2.216833     -2.216832   1.000000   1.000000
   42       -1.949775     -1.949765   1.000000   1.000000
   43       -1.913041     -1.913022   1.000000   1.000000
   44       -1.751858     -1.751853   1.000000   1.000000
   45       -1.638305     -1.638305   1.000000   1.000000
   46       -1.581921     -1.581922   1.000000   1.000000
   47       -1.513051     -1.513048   1.000000   1.000000
   48       -1.310484     -1.310483   1.000000   1.000000
   49       -1.190812     -1.190813   1.000000   1.000000
   50       -1.170199     -1.170197   1.000000   1.000000
   51       -1.146456     -1.146459   1.000000   1.000000
   52       -0.865768     -0.865772   1.000000   1.000000
   53       -0.752227     -0.752233   1.000000   1.000000
   54       -0.547762     -0.547766   1.000000   1.000000
   55       -0.402271     -0.402284   1.000000   1.000000
   56       -0.398639     -0.398654   1.000000   1.000000
   57       -0.260506     -0.260514   1.000000   1.000000
   58       -0.231894     -0.231885   1.000000   1.000000
   59       -0.212158     -0.212158   1.000000   1.000000
   60       -0.084169     -0.084170   1.000000   1.000000
   61       -0.014779     -0.014786   1.000000   1.000000
   62        0.059005      0.058989   1.000000   1.000000
   63        0.266581      0.266564   1.000000   1.000000
   64        0.276852      0.276840   1.000000   1.000000
   65        5.795826      5.795872   0.000001   0.000001
   66        7.932339      7.932364   0.000000   0.000000
   67        8.173260      8.173274   0.000000   0.000000
   68        8.359505      8.359548   0.000000   0.000000
   69        8.578053      8.578086   0.000000   0.000000
   70        8.715140      8.715186   0.000000   0.000000
   71        8.782946      8.782997   0.000000   0.000000
   72        9.133001      9.133037   0.000000   0.000000
   73        9.295336      9.295370   0.000000   0.000000
   74        9.418427      9.418472   0.000000   0.000000
   75        9.617499      9.617557   0.000000   0.000000
   76        9.925827      9.925893   0.000000   0.000000
   77       10.118420     10.118450   0.000000   0.000000
   78       10.127808     10.127824   0.000000   0.000000
   79       10.476442     10.476506   0.000000   0.000000
   80       10.515112     10.515129   0.000000   0.000000
   81       10.601124     10.601170   0.000000   0.000000
   82       10.706250     10.706296   0.000000   0.000000
   83       10.985697     10.985740   0.000000   0.000000
   84       11.058361     11.058380   0.000000   0.000000
   85       11.211224     11.211359   0.000000   0.000000
   86       11.352035     11.351417   0.000000   0.000000
 
  0.1428571E+00 -0.3260191E-16 -0.3492827E-14  0.1428571E-01
    1      -42.124070    -42.124166   1.000000   1.000000
    2      -42.123525    -42.123621   1.000000   1.000000
    3      -42.006882    -42.006980   1.000000   1.000000
    4      -42.006428    -42.006525   1.000000   1.000000
    5      -41.948234    -41.948337   1.000000   1.000000
    6      -41.936057    -41.936161   1.000000   1.000000
    7      -41.919003    -41.919100   1.000000   1.000000
    8      -41.918860    -41.918956   1.000000   1.000000
    9      -20.008030    -20.008023   1.000000   1.000000
   10      -19.955640    -19.955634   1.000000   1.000000
   11      -18.807799    -18.807794   1.000000   1.000000
   12      -18.782467    -18.782461   1.000000   1.000000
   13      -17.574951    -17.574960   1.000000   1.000000
   14      -17.515826    -17.515836   1.000000   1.000000
   15      -17.002632    -17.002648   1.000000   1.000000
   16      -16.976168    -16.976184   1.000000   1.000000
   17      -16.821909    -16.821924   1.000000   1.000000
   18      -16.810029    -16.810044   1.000000   1.000000
   19      -16.740975    -16.740992   1.000000   1.000000
   20      -16.726351    -16.726368   1.000000   1.000000
   21      -16.674238    -16.674254   1.000000   1.000000
   22      -16.670715    -16.670730   1.000000   1.000000
   23       -8.647896     -8.647878   1.000000   1.000000
   24       -8.629104     -8.629086   1.000000   1.000000
   25       -6.222331     -6.222280   1.000000   1.000000
   26       -5.857762     -5.857723   1.000000   1.000000
   27       -5.164235     -5.164198   1.000000   1.000000
   28       -5.045360     -5.045327   1.000000   1.000000
   29       -4.649450     -4.649415   1.000000   1.000000
   30       -4.456169     -4.456135   1.000000   1.000000
   31       -4.327684     -4.327658   1.000000   1.000000
   32       -4.295771     -4.295745   1.000000   1.000000
   33       -3.913107     -3.913073   1.000000   1.000000
   34       -3.880952     -3.880918   1.000000   1.000000
   35       -3.781039     -3.781010   1.000000   1.000000
   36       -3.633686     -3.633657   1.000000   1.000000
   37       -3.249281     -3.249251   1.000000   1.000000
   38       -2.928598     -2.928574   1.000000   1.000000
   39       -2.461285     -2.461276   1.000000   1.000000
   40       -2.273239     -2.273237   1.000000   1.000000
   41       -2.205945     -2.205943   1.000000   1.000000
   42       -2.011255     -2.011241   1.000000   1.000000
   43       -1.927352     -1.927336   1.000000   1.000000
   44       -1.732897     -1.732891   1.000000   1.000000
   45       -1.674288     -1.674285   1.000000   1.000000
   46       -1.555658     -1.555660   1.000000   1.000000
   47       -1.502820     -1.502817   1.000000   1.000000
   48       -1.336168     -1.336168   1.000000   1.000000
   49       -1.275464     -1.275464   1.000000   1.000000
   50       -1.227964     -1.227964   1.000000   1.000000
   51       -1.188953     -1.188950   1.000000   1.000000
   52       -0.903015     -0.903019   1.000000   1.000000
   53       -0.727609     -0.727615   1.000000   1.000000
   54       -0.565164     -0.565168   1.000000   1.000000
   55       -0.425599     -0.425614   1.000000   1.000000
   56       -0.404787     -0.404800   1.000000   1.000000
   57       -0.291352     -0.291363   1.000000   1.000000
   58       -0.268873     -0.268869   1.000000   1.000000
   59       -0.171607     -0.171608   1.000000   1.000000
   60       -0.089238     -0.089241   1.000000   1.000000
   61       -0.000892     -0.000898   1.000000   1.000000
   62        0.064145      0.064128   1.000000   1.000000
   63        0.259474      0.259457   1.000000   1.000000
   64        0.287603      0.287590   1.000000   1.000000
   65        5.993458      5.993502  -0.000000  -0.000000
   66        7.864140      7.864163   0.000000   0.000000
   67        8.193335      8.193353   0.000000   0.000000
   68        8.347817      8.347860   0.000000   0.000000
   69        8.517085      8.517123   0.000000   0.000000
   70        8.681474      8.681518   0.000000   0.000000
   71        8.888406      8.888446   0.000000   0.000000
   72        9.193182      9.193214   0.000000   0.000000
   73        9.239264      9.239305   0.000000   0.000000
   74        9.503978      9.504024   0.000000   0.000000
   75        9.628119      9.628175   0.000000   0.000000
   76        9.864074      9.864120   0.000000   0.000000
   77        9.988955      9.988997   0.000000   0.000000
   78       10.122898     10.122915   0.000000   0.000000
   79       10.259185     10.259218   0.000000   0.000000
   80       10.408368     10.408416   0.000000   0.000000
   81       10.483963     10.483988   0.000000   0.000000
   82       10.623571     10.623619   0.000000   0.000000
   83       10.726292     10.726326   0.000000   0.000000
   84       11.036067     11.036110   0.000000   0.000000
   85       11.259397     11.260424   0.000000   0.000000
   86       11.417619     11.422313   0.000000   0.000000
 
  0.2857143E+00 -0.5656227E-16 -0.6973277E-14  0.1428571E-01
    1      -42.124046    -42.124142   1.000000   1.000000
    2      -42.123521    -42.123617   1.000000   1.000000
    3      -42.006806    -42.006903   1.000000   1.000000
    4      -42.006369    -42.006467   1.000000   1.000000
    5      -41.948110    -41.948214   1.000000   1.000000
    6      -41.936280    -41.936384   1.000000   1.000000
    7      -41.919050    -41.919147   1.000000   1.000000
    8      -41.918824    -41.918921   1.000000   1.000000
    9      -19.995082    -19.995075   1.000000   1.000000
   10      -19.958106    -19.958100   1.000000   1.000000
   11      -18.804853    -18.804848   1.000000   1.000000
   12      -18.785218    -18.785213   1.000000   1.000000
   13      -17.559660    -17.559670   1.000000   1.000000
   14      -17.519023    -17.519033   1.000000   1.000000
   15      -16.996978    -16.996994   1.000000   1.000000
   16      -16.975145    -16.975162   1.000000   1.000000
   17      -16.837682    -16.837696   1.000000   1.000000
   18      -16.823806    -16.823820   1.000000   1.000000
   19      -16.744499    -16.744516   1.000000   1.000000
   20      -16.732614    -16.732631   1.000000   1.000000
   21      -16.683628    -16.683644   1.000000   1.000000
   22      -16.678138    -16.678153   1.000000   1.000000
   23       -8.664953     -8.664935   1.000000   1.000000
   24       -8.637875     -8.637857   1.000000   1.000000
   25       -6.181087     -6.181041   1.000000   1.000000
   26       -5.857139     -5.857100   1.000000   1.000000
   27       -5.136336     -5.136303   1.000000   1.000000
   28       -5.031490     -5.031459   1.000000   1.000000
   29       -4.611788     -4.611752   1.000000   1.000000
   30       -4.446167     -4.446132   1.000000   1.000000
   31       -4.258430     -4.258404   1.000000   1.000000
   32       -4.219824     -4.219797   1.000000   1.000000
   33       -3.938617     -3.938577   1.000000   1.000000
   34       -3.746158     -3.746126   1.000000   1.000000
   35       -3.669403     -3.669372   1.000000   1.000000
   36       -3.576171     -3.576141   1.000000   1.000000
   37       -3.216785     -3.216754   1.000000   1.000000
   38       -2.861756     -2.861733   1.000000   1.000000
   39       -2.425686     -2.425679   1.000000   1.000000
   40       -2.295576     -2.295568   1.000000   1.000000
   41       -2.217656     -2.217651   1.000000   1.000000
   42       -2.088557     -2.088543   1.000000   1.000000
   43       -1.951677     -1.951665   1.000000   1.000000
   44       -1.787399     -1.787391   1.000000   1.000000
   45       -1.696904     -1.696898   1.000000   1.000000
   46       -1.593313     -1.593310   1.000000   1.000000
   47       -1.581393     -1.581392   1.000000   1.000000
   48       -1.438607     -1.438604   1.000000   1.000000
   49       -1.355868     -1.355863   1.000000   1.000000
   50       -1.308445     -1.308442   1.000000   1.000000
   51       -1.248583     -1.248580   1.000000   1.000000
   52       -0.986813     -0.986817   1.000000   1.000000
   53       -0.692055     -0.692060   1.000000   1.000000
   54       -0.600528     -0.600534   1.000000   1.000000
   55       -0.487214     -0.487228   1.000000   1.000000
   56       -0.427994     -0.428006   1.000000   1.000000
   57       -0.339118     -0.339128   1.000000   1.000000
   58       -0.299833     -0.299836   1.000000   1.000000
   59       -0.154170     -0.154177   1.000000   1.000000
   60       -0.095440     -0.095447   1.000000   1.000000
   61        0.039683      0.039673   1.000000   1.000000
   62        0.076666      0.076650   1.000000   1.000000
   63        0.259941      0.259925   1.000000   1.000000
   64        0.297974      0.297960   1.000000   1.000000
   65        6.501449      6.501487   0.000000   0.000000
   66        7.803954      7.803978   0.000000   0.000000
   67        8.193351      8.193377   0.000000   0.000000
   68        8.285922      8.285954   0.000000   0.000000
   69        8.516369      8.516408   0.000000   0.000000
   70        8.716154      8.716190   0.000000   0.000000
   71        8.967694      8.967729   0.000000   0.000000
   72        9.058729      9.058753   0.000000   0.000000
   73        9.254494      9.254548   0.000000   0.000000
   74        9.432203      9.432230   0.000000   0.000000
   75        9.535345      9.535386   0.000000   0.000000
   76        9.668582      9.668626   0.000000   0.000000
   77        9.751603      9.751635   0.000000   0.000000
   78       10.042364     10.042410   0.000000   0.000000
   79       10.100104     10.100133   0.000000   0.000000
   80       10.239202     10.239251   0.000000   0.000000
   81       10.331340     10.331385   0.000000   0.000000
   82       10.359236     10.359267   0.000000   0.000000
   83       10.711950     10.711993   0.000000   0.000000
   84       10.907842     10.907884   0.000000   0.000000
   85       11.271537     11.271574   0.000000   0.000000
   86       11.428213     11.429084   0.000000   0.000000
 
  0.4285714E+00 -0.1142186E-15  0.3717158E-14  0.1428571E-01
    1      -42.124048    -42.124144   1.000000   1.000000
    2      -42.123525    -42.123621   1.000000   1.000000
    3      -42.006759    -42.006856   1.000000   1.000000
    4      -42.006336    -42.006433   1.000000   1.000000
    5      -41.948036    -41.948139   1.000000   1.000000
    6      -41.936455    -41.936558   1.000000   1.000000
    7      -41.919106    -41.919203   1.000000   1.000000
    8      -41.918807    -41.918904   1.000000   1.000000
    9      -19.980518    -19.980511   1.000000   1.000000
   10      -19.964276    -19.964270   1.000000   1.000000
   11      -18.802197    -18.802192   1.000000   1.000000
   12      -18.787765    -18.787760   1.000000   1.000000
   13      -17.541915    -17.541925   1.000000   1.000000
   14      -17.526881    -17.526891   1.000000   1.000000
   15      -16.991626    -16.991642   1.000000   1.000000
   16      -16.974531    -16.974548   1.000000   1.000000
   17      -16.850589    -16.850602   1.000000   1.000000
   18      -16.835720    -16.835735   1.000000   1.000000
   19      -16.745694    -16.745710   1.000000   1.000000
   20      -16.739700    -16.739717   1.000000   1.000000
   21      -16.692018    -16.692033   1.000000   1.000000
   22      -16.682843    -16.682858   1.000000   1.000000
   23       -8.676487     -8.676469   1.000000   1.000000
   24       -8.647192     -8.647174   1.000000   1.000000
   25       -6.146729     -6.146687   1.000000   1.000000
   26       -5.858121     -5.858081   1.000000   1.000000
   27       -5.107524     -5.107493   1.000000   1.000000
   28       -5.029283     -5.029252   1.000000   1.000000
   29       -4.581544     -4.581507   1.000000   1.000000
   30       -4.440656     -4.440621   1.000000   1.000000
   31       -4.174685     -4.174659   1.000000   1.000000
   32       -4.158683     -4.158655   1.000000   1.000000
   33       -3.972963     -3.972921   1.000000   1.000000
   34       -3.643266     -3.643232   1.000000   1.000000
   35       -3.585561     -3.585527   1.000000   1.000000
   36       -3.479808     -3.479779   1.000000   1.000000
   37       -3.180607     -3.180575   1.000000   1.000000
   38       -2.817831     -2.817810   1.000000   1.000000
   39       -2.441245     -2.441237   1.000000   1.000000
   40       -2.253038     -2.253034   1.000000   1.000000
   41       -2.198019     -2.198006   1.000000   1.000000
   42       -2.155720     -2.155705   1.000000   1.000000
   43       -1.987530     -1.987523   1.000000   1.000000
   44       -1.855844     -1.855834   1.000000   1.000000
   45       -1.787988     -1.787980   1.000000   1.000000
   46       -1.744048     -1.744039   1.000000   1.000000
   47       -1.637167     -1.637164   1.000000   1.000000
   48       -1.487301     -1.487297   1.000000   1.000000
   49       -1.371286     -1.371274   1.000000   1.000000
   50       -1.346722     -1.346714   1.000000   1.000000
   51       -1.222867     -1.222870   1.000000   1.000000
   52       -1.087302     -1.087306   1.000000   1.000000
   53       -0.690461     -0.690465   1.000000   1.000000
   54       -0.608341     -0.608349   1.000000   1.000000
   55       -0.544593     -0.544607   1.000000   1.000000
   56       -0.452418     -0.452430   1.000000   1.000000
   57       -0.351174     -0.351184   1.000000   1.000000
   58       -0.331015     -0.331022   1.000000   1.000000
   59       -0.160729     -0.160735   1.000000   1.000000
   60       -0.082218     -0.082229   1.000000   1.000000
   61        0.067747      0.067731   1.000000   1.000000
   62        0.081066      0.081049   1.000000   1.000000
   63        0.277357      0.277341   1.000000   1.000000
   64        0.295980      0.295966   1.000000   1.000000
   65        7.091763      7.091795   0.000000   0.000000
   66        7.725263      7.725299   0.000000   0.000000
   67        8.178861      8.178880   0.000000   0.000000
   68        8.385238      8.385269   0.000000   0.000000
   69        8.507244      8.507266   0.000000   0.000000
   70        8.712162      8.712190   0.000000   0.000000
   71        8.846399      8.846420   0.000000   0.000000
   72        8.897248      8.897277   0.000000   0.000000
   73        9.075230      9.075281   0.000000   0.000000
   74        9.164173      9.164200   0.000000   0.000000
   75        9.401370      9.401417   0.000000   0.000000
   76        9.448465      9.448512   0.000000   0.000000
   77        9.827848      9.827884   0.000000   0.000000
   78       10.043612     10.043645   0.000000   0.000000
   79       10.096850     10.096897   0.000000   0.000000
   80       10.148394     10.148434   0.000000   0.000000
   81       10.182894     10.182953   0.000000   0.000000
   82       10.407762     10.407784   0.000000   0.000000
   83       10.699003     10.699053   0.000000   0.000000
   84       10.794978     10.795016   0.000000   0.000000
   85       11.264062     11.264105   0.000000   0.000000
   86       11.517786     11.518135   0.000000   0.000000
 
  0.2068338E-20  0.2000000E+00 -0.5206920E-15  0.1428571E-01
    1      -42.124032    -42.124127   1.000000   1.000000
    2      -42.123576    -42.123672   1.000000   1.000000
    3      -42.006924    -42.007021   1.000000   1.000000
    4      -42.006438    -42.006535   1.000000   1.000000
    5      -41.948252    -41.948356   1.000000   1.000000
    6      -41.936039    -41.936143   1.000000   1.000000
    7      -41.918980    -41.919076   1.000000   1.000000
    8      -41.918838    -41.918935   1.000000   1.000000
    9      -20.004685    -20.004678   1.000000   1.000000
   10      -19.958932    -19.958926   1.000000   1.000000
   11      -18.809985    -18.809979   1.000000   1.000000
   12      -18.796102    -18.796097   1.000000   1.000000
   13      -17.564667    -17.564677   1.000000   1.000000
   14      -17.522654    -17.522664   1.000000   1.000000
   15      -17.012048    -17.012063   1.000000   1.000000
   16      -16.962952    -16.962969   1.000000   1.000000
   17      -16.815541    -16.815557   1.000000   1.000000
   18      -16.806554    -16.806569   1.000000   1.000000
   19      -16.737565    -16.737582   1.000000   1.000000
   20      -16.724586    -16.724604   1.000000   1.000000
   21      -16.670774    -16.670790   1.000000   1.000000
   22      -16.665395    -16.665411   1.000000   1.000000
   23       -8.658066     -8.658047   1.000000   1.000000
   24       -8.635923     -8.635905   1.000000   1.000000
   25       -6.228448     -6.228396   1.000000   1.000000
   26       -5.835645     -5.835606   1.000000   1.000000
   27       -5.177873     -5.177834   1.000000   1.000000
   28       -5.045943     -5.045910   1.000000   1.000000
   29       -4.648205     -4.648170   1.000000   1.000000
   30       -4.432731     -4.432698   1.000000   1.000000
   31       -4.359367     -4.359340   1.000000   1.000000
   32       -4.346705     -4.346680   1.000000   1.000000
   33       -3.963023     -3.962988   1.000000   1.000000
   34       -3.934391     -3.934361   1.000000   1.000000
   35       -3.818519     -3.818491   1.000000   1.000000
   36       -3.638620     -3.638590   1.000000   1.000000
   37       -3.207870     -3.207841   1.000000   1.000000
   38       -2.994000     -2.993975   1.000000   1.000000
   39       -2.374367     -2.374358   1.000000   1.000000
   40       -2.243443     -2.243440   1.000000   1.000000
   41       -2.217981     -2.217978   1.000000   1.000000
   42       -2.104204     -2.104197   1.000000   1.000000
   43       -1.980367     -1.980347   1.000000   1.000000
   44       -1.724626     -1.724621   1.000000   1.000000
   45       -1.635806     -1.635801   1.000000   1.000000
   46       -1.505906     -1.505907   1.000000   1.000000
   47       -1.378656     -1.378653   1.000000   1.000000
   48       -1.349039     -1.349041   1.000000   1.000000
   49       -1.192644     -1.192646   1.000000   1.000000
   50       -1.186199     -1.186199   1.000000   1.000000
   51       -1.157170     -1.157172   1.000000   1.000000
   52       -0.949733     -0.949738   1.000000   1.000000
   53       -0.770193     -0.770198   1.000000   1.000000
   54       -0.543349     -0.543355   1.000000   1.000000
   55       -0.438249     -0.438260   1.000000   1.000000
   56       -0.393571     -0.393582   1.000000   1.000000
   57       -0.275490     -0.275497   1.000000   1.000000
   58       -0.232186     -0.232184   1.000000   1.000000
   59       -0.179350     -0.179348   1.000000   1.000000
   60       -0.110711     -0.110713   1.000000   1.000000
   61        0.003915      0.003907   1.000000   1.000000
   62        0.073291      0.073275   1.000000   1.000000
   63        0.246106      0.246092   1.000000   1.000000
   64        0.276923      0.276908   1.000000   1.000000
   65        6.032046      6.032089  -0.000000  -0.000000
   66        7.712389      7.712400   0.000000   0.000000
   67        8.104209      8.104241   0.000000   0.000000
   68        8.397583      8.397620   0.000000   0.000000
   69        8.505132      8.505172   0.000000   0.000000
   70        8.689705      8.689752   0.000000   0.000000
   71        8.872262      8.872307   0.000000   0.000000
   72        9.046280      9.046317   0.000000   0.000000
   73        9.386052      9.386095   0.000000   0.000000
   74        9.445519      9.445558   0.000000   0.000000
   75        9.577977      9.578030   0.000000   0.000000
   76        9.848865      9.848918   0.000000   0.000000
   77       10.025753     10.025790   0.000000   0.000000
   78       10.245210     10.245251   0.000000   0.000000
   79       10.343958     10.343976   0.000000   0.000000
   80       10.596942     10.596975   0.000000   0.000000
   81       10.766850     10.766914   0.000000   0.000000
   82       10.788809     10.788841   0.000000   0.000000
   83       10.842081     10.842142   0.000000   0.000000
   84       11.162589     11.163054   0.000000   0.000000
   85       11.294542     11.294157   0.000000   0.000000
   86       11.454978     11.470533   0.000000   0.000000
 
  0.1428571E+00  0.2000000E+00 -0.4030866E-14  0.1428571E-01
    1      -42.124006    -42.124102   1.000000   1.000000
    2      -42.123568    -42.123663   1.000000   1.000000
    3      -42.006878    -42.006975   1.000000   1.000000
    4      -42.006404    -42.006501   1.000000   1.000000
    5      -41.948144    -41.948247   1.000000   1.000000
    6      -41.936202    -41.936306   1.000000   1.000000
    7      -41.918988    -41.919085   1.000000   1.000000
    8      -41.918786    -41.918883   1.000000   1.000000
    9      -19.995389    -19.995382   1.000000   1.000000
   10      -19.961212    -19.961206   1.000000   1.000000
   11      -18.823050    -18.823044   1.000000   1.000000
   12      -18.789728    -18.789723   1.000000   1.000000
   13      -17.551281    -17.551290   1.000000   1.000000
   14      -17.527606    -17.527616   1.000000   1.000000
   15      -17.008894    -17.008910   1.000000   1.000000
   16      -16.959811    -16.959828   1.000000   1.000000
   17      -16.826484    -16.826499   1.000000   1.000000
   18      -16.809187    -16.809203   1.000000   1.000000
   19      -16.736947    -16.736964   1.000000   1.000000
   20      -16.729323    -16.729341   1.000000   1.000000
   21      -16.674992    -16.675007   1.000000   1.000000
   22      -16.668358    -16.668373   1.000000   1.000000
   23       -8.680085     -8.680066   1.000000   1.000000
   24       -8.639825     -8.639807   1.000000   1.000000
   25       -6.208124     -6.208075   1.000000   1.000000
   26       -5.817097     -5.817058   1.000000   1.000000
   27       -5.166717     -5.166680   1.000000   1.000000
   28       -5.033442     -5.033410   1.000000   1.000000
   29       -4.629563     -4.629527   1.000000   1.000000
   30       -4.418372     -4.418339   1.000000   1.000000
   31       -4.347031     -4.347001   1.000000   1.000000
   32       -4.330550     -4.330525   1.000000   1.000000
   33       -3.985313     -3.985277   1.000000   1.000000
   34       -3.859177     -3.859146   1.000000   1.000000
   35       -3.753140     -3.753111   1.000000   1.000000
   36       -3.642174     -3.642142   1.000000   1.000000
   37       -3.164113     -3.164085   1.000000   1.000000
   38       -2.956992     -2.956968   1.000000   1.000000
   39       -2.341184     -2.341178   1.000000   1.000000
   40       -2.273842     -2.273836   1.000000   1.000000
   41       -2.191803     -2.191797   1.000000   1.000000
   42       -2.131684     -2.131678   1.000000   1.000000
   43       -2.030579     -2.030560   1.000000   1.000000
   44       -1.754725     -1.754721   1.000000   1.000000
   45       -1.616012     -1.616004   1.000000   1.000000
   46       -1.526586     -1.526586   1.000000   1.000000
   47       -1.378625     -1.378625   1.000000   1.000000
   48       -1.363449     -1.363447   1.000000   1.000000
   49       -1.273514     -1.273516   1.000000   1.000000
   50       -1.249938     -1.249937   1.000000   1.000000
   51       -1.187377     -1.187376   1.000000   1.000000
   52       -1.024746     -1.024751   1.000000   1.000000
   53       -0.738081     -0.738084   1.000000   1.000000
   54       -0.565771     -0.565779   1.000000   1.000000
   55       -0.480406     -0.480419   1.000000   1.000000
   56       -0.397155     -0.397163   1.000000   1.000000
   57       -0.300584     -0.300591   1.000000   1.000000
   58       -0.269104     -0.269107   1.000000   1.000000
   59       -0.152459     -0.152463   1.000000   1.000000
   60       -0.097944     -0.097943   1.000000   1.000000
   61        0.035046      0.035038   1.000000   1.000000
   62        0.056842      0.056826   1.000000   1.000000
   63        0.233097      0.233082   1.000000   1.000000
   64        0.290600      0.290585   1.000000   1.000000
   65        6.356050      6.356087   0.000000   0.000000
   66        7.625290      7.625300   0.000000   0.000000
   67        7.914658      7.914690   0.000000   0.000000
   68        8.453138      8.453175   0.000000   0.000000
   69        8.539225      8.539269   0.000000   0.000000
   70        8.656040      8.656085   0.000000   0.000000
   71        8.923602      8.923642   0.000000   0.000000
   72        9.044662      9.044697   0.000000   0.000000
   73        9.439946      9.439994   0.000000   0.000000
   74        9.591153      9.591197   0.000000   0.000000
   75        9.656994      9.657043   0.000000   0.000000
   76        9.703388      9.703431   0.000000   0.000000
   77        9.862768      9.862806   0.000000   0.000000