       N       E                     dE             d eps       ncg     rms          rms(c)
DAV:   1     0.111024570435E+04    0.11102E+04   -0.61661E+04 24424   0.152E+03
DAV:   2    -0.623733174550E+02   -0.11726E+04   -0.11026E+04 29432   0.392E+02
DAV:   3    -0.174171929519E+03   -0.11180E+03   -0.11108E+03 31490   0.124E+02
DAV:   4    -0.183819371914E+03   -0.96474E+01   -0.96071E+01 45688   0.296E+01
DAV:   5    -0.185423816297E+03   -0.16044E+01   -0.16039E+01 34880   0.696E+00    0.489E+01
DAV:   6    -0.165641241666E+03    0.19783E+02   -0.89926E+01 30542   0.319E+01    0.239E+01
DAV:   7    -0.167712146286E+03   -0.20709E+01   -0.73514E+00 31880   0.909E+00    0.865E+00
DAV:   8    -0.168003543960E+03   -0.29140E+00   -0.76374E-01 32408   0.350E+00    0.435E+00
DAV:   9    -0.168142632560E+03   -0.13909E+00   -0.13616E-01 33392   0.161E+00    0.163E+00
DAV:  10    -0.168169011531E+03   -0.26379E-01   -0.52354E-02 30392   0.110E+00    0.494E-01
DAV:  11    -0.168179615223E+03   -0.10604E-01   -0.11101E-02 30328   0.434E-01    0.297E-01
DAV:  12    -0.168182395705E+03   -0.27805E-02   -0.20779E-03 32400   0.204E-01    0.152E-01
DAV:  13    -0.168183698674E+03   -0.13030E-02   -0.10869E-03 28344   0.125E-01    0.466E-02
DAV:  14    -0.168183876823E+03   -0.17815E-03   -0.14210E-04 31856   0.593E-02    0.210E-02
DAV:  15    -0.168183934708E+03   -0.57885E-04   -0.63415E-05 25648   0.355E-02    0.134E-02
DAV:  16    -0.168183941863E+03   -0.71553E-05   -0.86029E-06 21104   0.146E-02
   1 F= -.16818394E+03 E0= -.16818394E+03  d E =0.000000E+00  mag=    -0.0012
