 running on    8 total cores
 distrk:  each k-point on    8 cores,    1 groups
 distr:  one band on    1 cores,    8 groups
 using from now: INCAR     
 vasp.6.1.2 22Jul20 (build Mar 20 2021 11:25:07) complex                        
  
 POSCAR found type information on POSCAR LiP 
 POSCAR found :  2 types and      16 ions
 scaLAPACK will be used
 -----------------------------------------------------------------------------
|                                                                             |
|           W    W    AA    RRRRR   N    N  II  N    N   GGGG   !!!           |
|           W    W   A  A   R    R  NN   N  II  NN   N  G    G  !!!           |
|           W    W  A    A  R    R  N N  N  II  N N  N  G       !!!           |
|           W WW W  AAAAAA  RRRRR   N  N N  II  N  N N  G  GGG   !            |
|           WW  WW  A    A  R   R   N   NN  II  N   NN  G    G                |
|           W    W  A    A  R    R  N    N  II  N    N   GGGG   !!!           |
|                                                                             |
|     The value NCORE = 6 specified in the INCAR file was overwritten,        |
|     because it was not compatible with the 8 processes available:           |
|     NCORE = 1                                                               |
|     was used instead, please check that this makes sense for your           |
|     machine.                                                                |
|                                                                             |
 -----------------------------------------------------------------------------

 -----------------------------------------------------------------------------
|                                                                             |
|           W    W    AA    RRRRR   N    N  II  N    N   GGGG   !!!           |
|           W    W   A  A   R    R  NN   N  II  NN   N  G    G  !!!           |
|           W    W  A    A  R    R  N N  N  II  N N  N  G       !!!           |
|           W WW W  AAAAAA  RRRRR   N  N N  II  N  N N  G  GGG   !            |
|           WW  WW  A    A  R   R   N   NN  II  N   NN  G    G                |
|           W    W  A    A  R    R  N    N  II  N    N   GGGG   !!!           |
|                                                                             |
|     For optimal performance we recommend to set                             |
|       NCORE = 4 - approx SQRT(number of cores).                             |
|     NCORE specifies how many cores store one orbital (NPAR=cpu/NCORE).      |
|     This setting can greatly improve the performance of VASP for DFT.       |
|     The default, NCORE=1 might be grossly inefficient on modern             |
|     multi-core architectures or massively parallel machines. Do your        |
|     own testing!!!!                                                         |
|     Unfortunately you need to use the default for GW and RPA                |
|     calculations (for HF NCORE is supported but not extensively tested      |
|     yet).                                                                   |
|                                                                             |
 -----------------------------------------------------------------------------

 LDA part: xc-table for Pade appr. of Perdew
 generate k-points for:    6    7    4
 POSCAR, INCAR and KPOINTS ok, starting setup
 FFT: planning ...
 WAVECAR not read
 entering main loop
       N       E                     dE             d eps       ncg     rms          rms(c)
DAV:   1     0.394814846884E+03    0.39481E+03   -0.25725E+04 16512   0.131E+03
DAV:   2    -0.338370304744E+01   -0.39820E+03   -0.36402E+03 18384   0.314E+02
DAV:   3    -0.552566546705E+02   -0.51873E+02   -0.51181E+02 23544   0.882E+01
DAV:   4    -0.627383604903E+02   -0.74817E+01   -0.74008E+01 29376   0.326E+01
DAV:   5    -0.634499323846E+02   -0.71157E+00   -0.71127E+00 23040   0.740E+00    0.212E+01
DAV:   6    -0.646962313200E+02   -0.12463E+01   -0.28176E+00 22104   0.653E+00    0.113E+01
DAV:   7    -0.659651160102E+02   -0.12689E+01   -0.75577E-01 20296   0.415E+00    0.599E+00
DAV:   8    -0.661988732657E+02   -0.23376E+00   -0.62313E-01 21592   0.293E+00    0.128E+00
DAV:   9    -0.662293181081E+02   -0.30445E-01   -0.84868E-02 24320   0.114E+00    0.532E-01
DAV:  10    -0.662327652608E+02   -0.34472E-02   -0.74694E-03 21736   0.391E-01    0.237E-01
DAV:  11    -0.662342457328E+02   -0.14805E-02   -0.20269E-03 20560   0.208E-01    0.111E-01
DAV:  12    -0.662345418802E+02   -0.29615E-03   -0.61915E-04 21184   0.104E-01    0.416E-02
DAV:  13    -0.662345879267E+02   -0.46046E-04   -0.10462E-04 19112   0.523E-02    0.202E-02
DAV:  14    -0.662346043978E+02   -0.16471E-04   -0.35428E-05 17056   0.309E-02    0.701E-03
DAV:  15    -0.662346062434E+02   -0.18456E-05   -0.46118E-06 12392   0.129E-02
   1 F= -.66234606E+02 E0= -.66234606E+02  d E =0.000000E+00  mag=    -0.0002
