   16   16    1    2
  0.1407206E+02  0.4786346E-09  0.5395692E-09  0.9889266E-09  0.5000000E-15
  1.000000000000000E-004
  CAR 
 unknown system                          
     64     60     48
 
  0.0000000E+00  0.0000000E+00  0.0000000E+00  0.5102041E-02
    1      -40.536404    -40.535314   1.000000   1.000000
    2      -40.534210    -40.533117   1.000000   1.000000
    3      -40.520119    -40.519025   1.000000   1.000000
    4      -40.520091    -40.518996   1.000000   1.000000
    5      -40.509421    -40.508368   1.000000   1.000000
    6      -40.507069    -40.506011   1.000000   1.000000
    7      -40.505143    -40.504090   1.000000   1.000000
    8      -40.504867    -40.503812   1.000000   1.000000
    9       -8.701601     -8.701945   1.000000   1.000000
   10       -8.372054     -8.372420   1.000000   1.000000
   11       -5.865332     -5.865703   1.000000   1.000000
   12       -5.439805     -5.440241   1.000000   1.000000
   13       -5.231027     -5.231457   1.000000   1.000000
   14       -5.097817     -5.098259   1.000000   1.000000
   15       -1.448128     -1.448476   1.000000   1.000000
   16       -1.138971     -1.139456   1.000000   1.000000
   17       -0.468465     -0.468763   1.000000   1.000000
   18        0.282951      0.282630   1.000000   1.000000
   19        0.319622      0.319497   1.000000   1.000000
   20        0.393533      0.393444   1.000000   1.000000
   21        1.132288      1.132243   1.000000   1.000000
   22        1.532609      1.532397   1.000000   1.000000
   23        1.712714      1.712649   1.000000   1.000000
   24        2.081843      2.081597   1.000000   1.000000
   25        2.568234      2.568129   1.000000   1.000000
   26        3.060606      3.060511   1.000000   1.000000
   27        3.296009      3.295758   1.000000   1.000000
   28        3.621156      3.620932   1.000000   1.000000
   29        3.992977      3.992927   1.000000   1.000000
   30        4.270945      4.270713   1.000000   1.000000
   31        4.386705      4.386398   1.000000   1.000000
   32        5.287472      5.287178   1.000000   1.000000
   33        6.402315      6.402174   0.000000   0.000000
   34        6.634912      6.634880   0.000000   0.000000
   35        7.178885      7.178939   0.000000   0.000000
   36        7.311597      7.311661   0.000000   0.000000
   37        7.811705      7.811813   0.000000   0.000000
   38        8.491061      8.491117   0.000000   0.000000
   39        8.528627      8.529067   0.000000   0.000000
   40        8.666144      8.666561   0.000000   0.000000
   41        9.337228      9.337531   0.000000   0.000000
   42        9.527227      9.527366   0.000000   0.000000
   43        9.972898      9.973509   0.000000   0.000000
   44       10.159110     10.161655   0.000000   0.000000
   45       10.510371     10.505746   0.000000   0.000000
   46       10.537590     10.532115   0.000000   0.000000
   47       10.990710     11.020561   0.000000   0.000000
   48       11.101746     11.062623   0.000000   0.000000
 
  0.1428571E+00  0.0000000E+00  0.0000000E+00  0.1020408E-01
    1      -40.535962    -40.534872   1.000000   1.000000
    2      -40.533937    -40.532844   1.000000   1.000000
    3      -40.520510    -40.519416   1.000000   1.000000
    4      -40.520463    -40.519370   1.000000   1.000000
    5      -40.509185    -40.508131   1.000000   1.000000
    6      -40.506885    -40.505826   1.000000   1.000000
    7      -40.505332    -40.504278   1.000000   1.000000
    8      -40.504914    -40.503859   1.000000   1.000000
    9       -8.618187     -8.618533   1.000000   1.000000
   10       -8.293109     -8.293476   1.000000   1.000000
   11       -6.200388     -6.200783   1.000000   1.000000
   12       -6.036921     -6.037339   1.000000   1.000000
   13       -4.821602     -4.822022   1.000000   1.000000
   14       -4.608089     -4.608518   1.000000   1.000000
   15       -1.861286     -1.861680   1.000000   1.000000
   16       -1.233562     -1.234004   1.000000   1.000000
   17       -0.403646     -0.403910   1.000000   1.000000
   18        0.305457      0.305369   1.000000   1.000000
   19        0.392483      0.392352   1.000000   1.000000
   20        0.612480      0.612145   1.000000   1.000000
   21        0.938952      0.938872   1.000000   1.000000
   22        1.670863      1.670694   1.000000   1.000000
   23        1.778982      1.778820   1.000000   1.000000
   24        1.922792      1.922662   1.000000   1.000000
   25        2.832540      2.832385   1.000000   1.000000
   26        3.185452      3.185332   1.000000   1.000000
   27        3.210816      3.210584   1.000000   1.000000
   28        3.568225      3.568012   1.000000   1.000000
   29        3.792194      3.792094   1.000000   1.000000
   30        3.954429      3.954402   1.000000   1.000000
   31        4.154138      4.153789   1.000000   1.000000
   32        5.332352      5.332054   1.000000   1.000000
   33        6.797907      6.797737  -0.000000  -0.000000
   34        7.141858      7.141873   0.000000   0.000000
   35        7.250311      7.250276   0.000000   0.000000
   36        7.281208      7.281312   0.000000   0.000000
   37        8.123879      8.123955   0.000000   0.000000
   38        8.287749      8.287848   0.000000   0.000000
   39        8.293946      8.294051   0.000000   0.000000
   40        9.179304      9.179707   0.000000   0.000000
   41        9.430621      9.430940   0.000000   0.000000
   42        9.807192      9.807511   0.000000   0.000000
   43        9.880068      9.880156   0.000000   0.000000
   44       10.106095     10.106310   0.000000   0.000000
   45       10.320294     10.320608   0.000000   0.000000
   46       10.511803     10.510474   0.000000   0.000000
   47       11.036129     11.038218   0.000000   0.000000
   48       11.545106     11.524924   0.000000   0.000000
 
  0.2857143E+00  0.0000000E+00  0.0000000E+00  0.1020408E-01
    1      -40.534811    -40.533719   1.000000   1.000000
    2      -40.533373    -40.532280   1.000000   1.000000
    3      -40.521436    -40.520345   1.000000   1.000000
    4      -40.521416    -40.520324   1.000000   1.000000
    5      -40.508543    -40.507489   1.000000   1.000000
    6      -40.506452    -40.505393   1.000000   1.000000
    7      -40.505849    -40.504795   1.000000   1.000000
    8      -40.505126    -40.504069   1.000000   1.000000
    9       -8.371292     -8.371646   1.000000   1.000000
   10       -8.061044     -8.061418   1.000000   1.000000
   11       -6.816054     -6.816450   1.000000   1.000000
   12       -6.654561     -6.654966   1.000000   1.000000
   13       -4.319611     -4.320007   1.000000   1.000000
   14       -3.920048     -3.920474   1.000000   1.000000
   15       -2.492775     -2.493173   1.000000   1.000000
   16       -1.831172     -1.831590   1.000000   1.000000
   17        0.021352      0.021116   1.000000   1.000000
   18        0.232242      0.232145   1.000000   1.000000
   19        0.599877      0.599710   1.000000   1.000000
   20        0.827753      0.827631   1.000000   1.000000
   21        1.104641      1.104322   1.000000   1.000000
   22        1.183971      1.183825   1.000000   1.000000
   23        1.874348      1.874210   1.000000   1.000000
   24        2.001682      2.001470   1.000000   1.000000
   25        2.540950      2.540891   1.000000   1.000000
   26        2.981901      2.981887   1.000000   1.000000
   27        3.304243      3.304109   1.000000   1.000000
   28        3.493134      3.492936   1.000000   1.000000
   29        3.830149      3.829929   1.000000   1.000000
   30        3.897470      3.897195   1.000000   1.000000
   31        4.082495      4.082353   1.000000   1.000000
   32        5.352674      5.352367   1.000000   1.000000
   33        7.134663      7.134688   0.000000   0.000000
   34        7.204244      7.204364   0.000000   0.000000
   35        7.447489      7.447385   0.000000   0.000000
   36        8.019277      8.019361   0.000000   0.000000
   37        8.153346      8.153222   0.000000   0.000000
   38        8.734529      8.734482   0.000000   0.000000
   39        8.855545      8.855570   0.000000   0.000000
   40        9.181282      9.181620   0.000000   0.000000
   41        9.586747      9.586942   0.000000   0.000000
   42        9.626946      9.627336   0.000000   0.000000
   43       10.366489     10.366871   0.000000   0.000000
   44       10.371414     10.371745   0.000000   0.000000
   45       10.635557     10.635866   0.000000   0.000000
   46       11.036036     11.036504   0.000000   0.000000
   47       11.250598     11.257104   0.000000   0.000000
   48       11.367651     11.366396   0.000000   0.000000
 
  0.4285714E+00  0.0000000E+00  0.0000000E+00  0.1020408E-01
    1      -40.533608    -40.532515   1.000000   1.000000
    2      -40.533055    -40.531961   1.000000   1.000000
    3      -40.522283    -40.521194   1.000000   1.000000
    4      -40.522276    -40.521187   1.000000   1.000000
    5      -40.507642    -40.506588   1.000000   1.000000
    6      -40.506665    -40.505611   1.000000   1.000000
    7      -40.505939    -40.504880   1.000000   1.000000
    8      -40.505502    -40.504443   1.000000   1.000000
    9       -7.971746     -7.972112   1.000000   1.000000
   10       -7.690913     -7.691295   1.000000   1.000000
   11       -7.440465     -7.440846   1.000000   1.000000
   12       -7.209748     -7.210144   1.000000   1.000000
   13       -3.758595     -3.758981   1.000000   1.000000
   14       -3.229106     -3.229526   1.000000   1.000000
   15       -3.143704     -3.144093   1.000000   1.000000
   16       -2.528030     -2.528446   1.000000   1.000000
   17        0.317464      0.317341   1.000000   1.000000
   18        0.397716      0.397527   1.000000   1.000000
   19        0.801902      0.801709   1.000000   1.000000
   20        0.835874      0.835684   1.000000   1.000000
   21        0.974900      0.974720   1.000000   1.000000
   22        1.409639      1.409463   1.000000   1.000000
   23        1.544804      1.544542   1.000000   1.000000
   24        1.895000      1.894769   1.000000   1.000000
   25        2.262173      2.262204   1.000000   1.000000
   26        2.383416      2.383471   1.000000   1.000000
   27        3.319407      3.319319   1.000000   1.000000
   28        3.475668      3.475479   1.000000   1.000000
   29        3.937325      3.937152   1.000000   1.000000
   30        4.184066      4.183848   1.000000   1.000000
   31        4.652850      4.652522   1.000000   1.000000
   32        5.167793      5.167469   1.000000   1.000000
   33        7.288727      7.288730   0.000000   0.000000
   34        7.313736      7.313660   0.000000   0.000000
   35        7.699785      7.699840   0.000000   0.000000
   36        7.902630      7.902647   0.000000   0.000000
   37        8.444390      8.444565   0.000000   0.000000
   38        8.945976      8.946141   0.000000   0.000000
   39        9.214205      9.214448   0.000000   0.000000
   40        9.722511      9.722463   0.000000   0.000000
   41        9.770419      9.770353   0.000000   0.000000
   42       10.115562     10.115684   0.000000   0.000000
   43       10.278642     10.279030   0.000000   0.000000
   44       10.604401     10.604345   0.000000   0.000000
   45       10.877294     10.877281   0.000000   0.000000
   46       11.160881     11.157212   0.000000   0.000000
   47       11.706127     11.702256   0.000000   0.000000
   48       11.881607     11.881253   0.000000   0.000000
 
  0.0000000E+00  0.1428571E+00 -0.2131593E-15  0.1020408E-01
    1      -40.535842    -40.534751   1.000000   1.000000
    2      -40.534033    -40.532940   1.000000   1.000000
    3      -40.520666    -40.519573   1.000000   1.000000
    4      -40.520622    -40.519529   1.000000   1.000000
    5      -40.509221    -40.508167   1.000000   1.000000
    6      -40.507375    -40.506318   1.000000   1.000000
    7      -40.504889    -40.503834   1.000000   1.000000
    8      -40.504708    -40.503653   1.000000   1.000000
    9       -8.661572     -8.661916   1.000000   1.000000
   10       -8.385871     -8.386236   1.000000   1.000000
   11       -5.797103     -5.797476   1.000000   1.000000
   12       -5.475342     -5.475769   1.000000   1.000000
   13       -5.278973     -5.279391   1.000000   1.000000
   14       -5.201997     -5.202439   1.000000   1.000000
   15       -1.362494     -1.362859   1.000000   1.000000
   16       -1.029799     -1.030292   1.000000   1.000000
   17       -0.466627     -0.466920   1.000000   1.000000
   18       -0.017892     -0.018170   1.000000   1.000000
   19        0.315943      0.315831   1.000000   1.000000
   20        0.577567      0.577460   1.000000   1.000000
   21        1.040999      1.040905   1.000000   1.000000
   22        1.517254      1.517083   1.000000   1.000000
   23        1.765575      1.765452   1.000000   1.000000
   24        2.031368      2.031163   1.000000   1.000000
   25        2.423597      2.423471   1.000000   1.000000
   26        3.189823      3.189599   1.000000   1.000000
   27        3.210633      3.210547   1.000000   1.000000
   28        3.829288      3.829075   1.000000   1.000000
   29        4.151742      4.151676   1.000000   1.000000
   30        4.283956      4.283733   1.000000   1.000000
   31        4.435464      4.435127   1.000000   1.000000
   32        5.093263      5.093003   1.000000   1.000000
   33        6.686767      6.686766  -0.000000  -0.000000
   34        6.750944      6.750779   0.000000   0.000000
   35        7.264716      7.264767   0.000000   0.000000
   36        7.587732      7.587774   0.000000   0.000000
   37        7.688710      7.688800   0.000000   0.000000
   38        8.142683      8.142593   0.000000   0.000000
   39        8.551563      8.551973   0.000000   0.000000
   40        8.610176      8.610626   0.000000   0.000000
   41        9.674058      9.674224   0.000000   0.000000
   42        9.728680      9.729084   0.000000   0.000000
   43        9.865105      9.865444   0.000000   0.000000
   44        9.916094      9.916184   0.000000   0.000000
   45       10.246341     10.246437   0.000000   0.000000
   46       10.734576     10.734913   0.000000   0.000000
   47       10.796784     10.797462   0.000000   0.000000
   48       10.879146     10.879342   0.000000   0.000000
 
  0.1428571E+00  0.1428571E+00 -0.2131593E-15  0.2040816E-01
    1      -40.535526    -40.534435   1.000000   1.000000
    2      -40.533728    -40.532635   1.000000   1.000000
    3      -40.521553    -40.520462   1.000000   1.000000
    4      -40.520245    -40.519151   1.000000   1.000000
    5      -40.509017    -40.507963   1.000000   1.000000
    6      -40.507270    -40.506213   1.000000   1.000000
    7      -40.505221    -40.504166   1.000000   1.000000
    8      -40.504693    -40.503636   1.000000   1.000000
    9       -8.578516     -8.578865   1.000000   1.000000
   10       -8.307756     -8.308125   1.000000   1.000000
   11       -6.155936     -6.156331   1.000000   1.000000
   12       -6.073483     -6.073902   1.000000   1.000000
   13       -4.882096     -4.882500   1.000000   1.000000
   14       -4.670953     -4.671381   1.000000   1.000000
   15       -1.779157     -1.779552   1.000000   1.000000
   16       -1.270667     -1.271108   1.000000   1.000000
   17       -0.326097     -0.326352   1.000000   1.000000
   18        0.072119      0.072005   1.000000   1.000000
   19        0.380116      0.379880   1.000000   1.000000
   20        0.801905      0.801711   1.000000   1.000000
   21        0.935329      0.935220   1.000000   1.000000
   22        1.565070      1.564875   1.000000   1.000000
   23        1.671572      1.671446   1.000000   1.000000
   24        1.997999      1.997848   1.000000   1.000000
   25        2.687704      2.687598   1.000000   1.000000
   26        3.107309      3.107110   1.000000   1.000000
   27        3.324021      3.323903   1.000000   1.000000
   28        3.819972      3.819734   1.000000   1.000000
   29        3.944626      3.944514   1.000000   1.000000
   30        4.128247      4.128060   1.000000   1.000000
   31        4.151032      4.150784   1.000000   1.000000
   32        5.330021      5.329719   1.000000   1.000000
   33        6.855455      6.855320  -0.000000  -0.000000
   34        7.117029      7.117054   0.000000   0.000000
   35        7.223220      7.223149   0.000000   0.000000
   36        7.542120      7.542149   0.000000   0.000000
   37        7.763828      7.763942   0.000000   0.000000
   38        8.146760      8.146835   0.000000   0.000000
   39        8.615492      8.615828   0.000000   0.000000
   40        9.230622      9.230807   0.000000   0.000000
   41        9.334962      9.335287   0.000000   0.000000
   42        9.862132      9.862437   0.000000   0.000000
   43       10.068887     10.069156   0.000000   0.000000
   44       10.156034     10.156418   0.000000   0.000000
   45       10.456061     10.456322   0.000000   0.000000
   46       10.682155     10.682387   0.000000   0.000000
   47       10.914273     10.914359   0.000000   0.000000
   48       11.140658     11.162618   0.000000   0.000000
 
  0.2857143E+00  0.1428571E+00 -0.2131593E-15  0.2040816E-01
    1      -40.534696    -40.533604   1.000000   1.000000
    2      -40.533155    -40.532061   1.000000   1.000000
    3      -40.522398    -40.521308   1.000000   1.000000
    4      -40.520660    -40.519566   1.000000   1.000000
    5      -40.508399    -40.507344   1.000000   1.000000
    6      -40.507035    -40.505978   1.000000   1.000000
    7      -40.505725    -40.504670   1.000000   1.000000
    8      -40.505067    -40.504010   1.000000   1.000000
    9       -8.332977     -8.333332   1.000000   1.000000
   10       -8.078669     -8.079043   1.000000   1.000000
   11       -6.772653     -6.773052   1.000000   1.000000
   12       -6.686948     -6.687352   1.000000   1.000000
   13       -4.346493     -4.346879   1.000000   1.000000
   14       -4.008447     -4.008868   1.000000   1.000000
   15       -2.430420     -2.430817   1.000000   1.000000
   16       -1.936687     -1.937099   1.000000   1.000000
   17       -0.100169     -0.100263   1.000000   1.000000
   18        0.247309      0.247109   1.000000   1.000000
   19        0.581321      0.581118   1.000000   1.000000
   20        0.884671      0.884502   1.000000   1.000000
   21        1.011333      1.011177   1.000000   1.000000
   22        1.240630      1.240358   1.000000   1.000000
   23        1.823179      1.823056   1.000000   1.000000
   24        2.077775      2.077564   1.000000   1.000000
   25        2.681097      2.681038   1.000000   1.000000
   26        3.034359      3.034307   1.000000   1.000000
   27        3.450050      3.449922   1.000000   1.000000
   28        3.602646      3.602371   1.000000   1.000000
   29        3.795904      3.795726   1.000000   1.000000
   30        3.950027      3.949820   1.000000   1.000000
   31        4.153559      4.153376   1.000000   1.000000
   32        5.448756      5.448416   1.000000   1.000000
   33        7.149740      7.149729   0.000000   0.000000
   34        7.238513      7.238528   0.000000   0.000000
   35        7.683333      7.683347   0.000000   0.000000
   36        7.851959      7.851918   0.000000   0.000000
   37        8.103386      8.103426   0.000000   0.000000
   38        8.479310      8.479415   0.000000   0.000000
   39        9.001690      9.001787   0.000000   0.000000
   40        9.421516      9.421736   0.000000   0.000000
   41        9.536791      9.536704   0.000000   0.000000
   42        9.799785      9.800109   0.000000   0.000000
   43       10.346255     10.346557   0.000000   0.000000
   44       10.459256     10.459547   0.000000   0.000000
   45       10.670877     10.671283   0.000000   0.000000
   46       10.843564     10.843676   0.000000   0.000000
   47       11.142248     11.142269   0.000000   0.000000
   48       11.636902     11.539470   0.000000   0.000000
 
  0.4285714E+00  0.1428571E+00 -0.2131593E-15  0.2040816E-01
    1      -40.533663    -40.532570   1.000000   1.000000
    2      -40.533010    -40.531916   1.000000   1.000000
    3      -40.522482    -40.521392   1.000000   1.000000
    4      -40.521661    -40.520570   1.000000   1.000000
    5      -40.507515    -40.506461   1.000000   1.000000
    6      -40.506910    -40.505855   1.000000   1.000000
    7      -40.506060    -40.505003   1.000000   1.000000
    8      -40.505697    -40.504639   1.000000   1.000000
    9       -7.937793     -7.938160   1.000000   1.000000
   10       -7.721066     -7.721453   1.000000   1.000000
   11       -7.390453     -7.390837   1.000000   1.000000
   12       -7.227959     -7.228355   1.000000   1.000000
   13       -3.757217     -3.757598   1.000000   1.000000
   14       -3.352181     -3.352597   1.000000   1.000000
   15       -3.094401     -3.094784   1.000000   1.000000
   16       -2.642907     -2.643316   1.000000   1.000000
   17        0.045919      0.045830   1.000000   1.000000
   18        0.367683      0.367557   1.000000   1.000000
   19        0.625554      0.625396   1.000000   1.000000
   20        0.793920      0.793724   1.000000   1.000000
   21        1.075253      1.075028   1.000000   1.000000
   22        1.614762      1.614535   1.000000   1.000000
   23        1.684508      1.684237   1.000000   1.000000
   24        1.907378      1.907162   1.000000   1.000000
   25        2.562457      2.562441   1.000000   1.000000
   26        2.766083      2.766099   1.000000   1.000000
   27        3.269375      3.269279   1.000000   1.000000
   28        3.465194      3.465012   1.000000   1.000000
   29        3.863074      3.862909   1.000000   1.000000
   30        3.989799      3.989615   1.000000   1.000000
   31        4.746332      4.746005   1.000000   1.000000
   32        5.276055      5.275702   1.000000   1.000000
   33        7.405527      7.405456   0.000000   0.000000
   34        7.463371      7.463404   0.000000   0.000000
   35        8.019288      8.019366   0.000000   0.000000
   36        8.212181      8.211989   0.000000   0.000000
   37        8.481792      8.481921   0.000000   0.000000
   38        8.957683      8.957824   0.000000   0.000000
   39        9.336714      9.336660   0.000000   0.000000
   40        9.452894      9.453053   0.000000   0.000000
   41        9.663545      9.663528   0.000000   0.000000
   42        9.771084      9.771187   0.000000   0.000000
   43       10.201147     10.201195   0.000000   0.000000
   44       10.368642     10.369552   0.000000   0.000000
   45       10.745872     10.745658   0.000000   0.000000
   46       10.861188     10.861287   0.000000   0.000000
   47       11.291038     11.297323   0.000000   0.000000
   48       11.499705     11.517125   0.000000   0.000000
 
  0.0000000E+00  0.2857143E+00 -0.4171462E-15  0.1020408E-01
    1      -40.534419    -40.533327   1.000000   1.000000
    2      -40.533470    -40.532377   1.000000   1.000000
    3      -40.522096    -40.521006   1.000000   1.000000
    4      -40.521837    -40.520745   1.000000   1.000000
    5      -40.508410    -40.507353   1.000000   1.000000
    6      -40.508264    -40.507208   1.000000   1.000000
    7      -40.504612    -40.503556   1.000000   1.000000
    8      -40.504193    -40.503136   1.000000   1.000000
    9       -8.563257     -8.563607   1.000000   1.000000
   10       -8.414842     -8.415210   1.000000   1.000000
   11       -5.733268     -5.733653   1.000000   1.000000
   12       -5.581623     -5.582024   1.000000   1.000000
   13       -5.441915     -5.442325   1.000000   1.000000
   14       -5.222986     -5.223424   1.000000   1.000000
   15       -1.322728     -1.323124   1.000000   1.000000
   16       -0.795535     -0.796047   1.000000   1.000000
   17       -0.512402     -0.512670   1.000000   1.000000
   18       -0.316230     -0.316490   1.000000   1.000000
   19        0.379466      0.379371   1.000000   1.000000
   20        0.680356      0.680333   1.000000   1.000000
   21        1.032273      1.032079   1.000000   1.000000
   22        1.356905      1.356775   1.000000   1.000000
   23        1.957449      1.957225   1.000000   1.000000
   24        1.979190      1.978980   1.000000   1.000000
   25        2.155664      2.155564   1.000000   1.000000
   26        3.107528      3.107330   1.000000   1.000000
   27        3.618223      3.618133   1.000000   1.000000
   28        3.744176      3.744015   1.000000   1.000000
   29        4.262864      4.262655   1.000000   1.000000
   30        4.411670      4.411334   1.000000   1.000000
   31        4.592037      4.591874   1.000000   1.000000
   32        5.121387      5.121127   1.000000   1.000000
   33        6.742290      6.742363   0.000000   0.000000
   34        7.034113      7.034029   0.000000   0.000000
   35        7.383127      7.383182   0.000000   0.000000
   36        7.495305      7.495061   0.000000   0.000000
   37        7.917159      7.917257   0.000000   0.000000
   38        8.265693      8.265825   0.000000   0.000000
   39        8.732853      8.733317   0.000000   0.000000
   40        8.808908      8.809286   0.000000   0.000000
   41        9.542474      9.542689   0.000000   0.000000
   42        9.647328      9.647559   0.000000   0.000000
   43        9.920821      9.921286   0.000000   0.000000
   44       10.019499     10.019616   0.000000   0.000000
   45       10.225986     10.226317   0.000000   0.000000
   46       10.585724     10.583281   0.000000   0.000000
   47       11.002746     11.037415   0.000000   0.000000
   48       11.295733     11.206590   0.000000   0.000000
 
  0.1428571E+00  0.2857143E+00 -0.4171462E-15  0.2040816E-01
    1      -40.534474    -40.533383   1.000000   1.000000
    2      -40.533130    -40.532036   1.000000   1.000000
    3      -40.522800    -40.521711   1.000000   1.000000
    4      -40.520995    -40.519902   1.000000   1.000000
    5      -40.508338    -40.507282   1.000000   1.000000
    6      -40.508143    -40.507088   1.000000   1.000000
    7      -40.505004    -40.503949   1.000000   1.000000
    8      -40.504338    -40.503280   1.000000   1.000000
    9       -8.481318     -8.481671   1.000000   1.000000
   10       -8.337832     -8.338204   1.000000   1.000000
   11       -6.221814     -6.222217   1.000000   1.000000
   12       -6.010670     -6.011083   1.000000   1.000000
   13       -5.089968     -5.090347   1.000000   1.000000
   14       -4.677606     -4.678031   1.000000   1.000000
   15       -1.638222     -1.638619   1.000000   1.000000
   16       -1.437494     -1.437915   1.000000   1.000000
   17       -0.294836     -0.295057   1.000000   1.000000
   18       -0.025974     -0.026064   1.000000   1.000000
   19        0.342160      0.341840   1.000000   1.000000
   20        0.848337      0.848203   1.000000   1.000000
   21        1.197632      1.197471   1.000000   1.000000
   22        1.268757      1.268575   1.000000   1.000000
   23        1.519889      1.519785   1.000000   1.000000
   24        2.122289      2.122093   1.000000   1.000000
   25        2.629439      2.629308   1.000000   1.000000
   26        3.079432      3.079278   1.000000   1.000000
   27        3.671452      3.671340   1.000000   1.000000
   28        3.856133      3.855844   1.000000   1.000000
   29        3.999208      3.998940   1.000000   1.000000
   30        4.276901      4.276746   1.000000   1.000000
   31        4.583165      4.582978   1.000000   1.000000
   32        5.211045      5.210787   1.000000   1.000000
   33        7.079026      7.078891   0.000000   0.000000
   34        7.142016      7.142035   0.000000   0.000000
   35        7.378251      7.378133   0.000000   0.000000
   36        7.624830      7.624823   0.000000   0.000000
   37        7.775380      7.775435   0.000000   0.000000
   38        8.404745      8.404958   0.000000   0.000000
   39        8.723480      8.723825   0.000000   0.000000
   40        9.052947      9.053035   0.000000   0.000000
   41        9.417238      9.417695   0.000000   0.000000
   42        9.779487      9.779703   0.000000   0.000000
   43        9.974776      9.974542   0.000000   0.000000
   44       10.228644     10.229274   0.000000   0.000000
   45       10.341544     10.341548   0.000000   0.000000
   46       10.843619     10.853594   0.000000   0.000000
   47       11.021148     11.024596   0.000000   0.000000
   48       11.389333     11.267511   0.000000   0.000000
 
  0.2857143E+00  0.2857143E+00 -0.4171462E-15  0.2040816E-01
    1      -40.534260    -40.533168   1.000000   1.000000
    2      -40.532806    -40.531712   1.000000   1.000000
    3      -40.522877    -40.521788   1.000000   1.000000
    4      -40.520559    -40.519465   1.000000   1.000000
    5      -40.508004    -40.506948   1.000000   1.000000
    6      -40.507836    -40.506781   1.000000   1.000000
    7      -40.505807    -40.504752   1.000000   1.000000
    8      -40.504983    -40.503925   1.000000   1.000000
    9       -8.240062     -8.240423   1.000000   1.000000
   10       -8.111943     -8.112318   1.000000   1.000000
   11       -6.783165     -6.783570   1.000000   1.000000
   12       -6.664014     -6.664415   1.000000   1.000000
   13       -4.502440     -4.502806   1.000000   1.000000
   14       -4.059032     -4.059451   1.000000   1.000000
   15       -2.317229     -2.317615   1.000000   1.000000
   16       -2.170890     -2.171296   1.000000   1.000000
   17       -0.309632     -0.309677   1.000000   1.000000
   18        0.181783      0.181603   1.000000   1.000000
   19        0.588578      0.588413   1.000000   1.000000
   20        0.829296      0.829156   1.000000   1.000000
   21        0.991946      0.991656   1.000000   1.000000