   16   16    1    2
  0.1381284E+02  0.5548251E-09  0.5043864E-09  0.9240513E-09  0.5000000E-15
  1.000000000000000E-004
  CAR 
 unknown system                          
     80     86     54
 
  0.0000000E+00  0.0000000E+00  0.0000000E+00  0.5952381E-02
    1      -16.703426    -16.703165   1.000000   1.000000
    2      -15.863997    -15.863750   1.000000   1.000000
    3      -15.059620    -15.059379   1.000000   1.000000
    4      -13.119515    -13.119345   1.000000   1.000000
    5      -12.949971    -12.949802   1.000000   1.000000
    6      -12.626941    -12.626758   1.000000   1.000000
    7      -12.572776    -12.572657   1.000000   1.000000
    8      -12.224929    -12.224783   1.000000   1.000000
    9      -12.174458    -12.174300   1.000000   1.000000
   10      -11.593194    -11.593076   1.000000   1.000000
   11       -9.448086     -9.447850   1.000000   1.000000
   12       -9.165790     -9.165482   1.000000   1.000000
   13       -8.797381     -8.797100   1.000000   1.000000
   14       -6.236634     -6.236365   1.000000   1.000000
   15       -6.204714     -6.204429   1.000000   1.000000
   16       -5.444718     -5.444424   1.000000   1.000000
   17       -4.735293     -4.735025   1.000000   1.000000
   18       -4.348041     -4.347758   1.000000   1.000000
   19       -3.923876     -3.923591   1.000000   1.000000
   20       -3.617417     -3.617065   1.000000   1.000000
   21       -3.054351     -3.054077   1.000000   1.000000
   22       -2.917822     -2.917525   1.000000   1.000000
   23       -2.819731     -2.819481   1.000000   1.000000
   24       -2.345070     -2.344827   1.000000   1.000000
   25       -0.534269     -0.533970   1.000000   1.000000
   26       -0.255328     -0.255071   1.000000   1.000000
   27       -0.007528     -0.007269   1.000000   1.000000
   28        0.265986      0.266236   1.000000   1.000000
   29        0.301643      0.301910   1.000000   1.000000
   30        0.493119      0.493368   1.000000   1.000000
   31        0.548567      0.548807   1.000000   1.000000
   32        0.826508      0.826721   1.000000   1.000000
   33        1.110312      1.110519   1.000000   1.000000
   34        1.315455      1.315676   1.000000   1.000000
   35        1.488831      1.489042   1.000000   1.000000
   36        1.954637      1.954777   1.000000   1.000000
   37        2.136922      2.137070   1.000000   1.000000
   38        2.523510      2.523668   1.000000   1.000000
   39        2.761414      2.761497   1.000000   1.000000
   40        3.149211      3.149291   1.000000   1.000000
   41        5.342336      5.342776   0.000004   0.000000
   42        6.398292      6.398719   0.000000   0.000000
   43        7.089133      7.089583   0.000000   0.000000
   44        7.516157      7.516699   0.000000   0.000000
   45        8.066128      8.066704   0.000000   0.000000
   46        8.069795      8.070301   0.000000   0.000000
   47        8.343187      8.343643   0.000000   0.000000
   48        8.616326      8.616584   0.000000   0.000000
   49        8.688400      8.688907   0.000000   0.000000
   50        8.790745      8.791283   0.000000   0.000000
   51        9.312786      9.313213   0.000000   0.000000
   52       10.127961     10.128467   0.000000   0.000000
   53       10.466790     10.467499   0.000000   0.000000
   54       10.554259     10.548896   0.000000   0.000000
 
  0.1666667E+00 -0.2327045E-17 -0.1904367E-16  0.1190476E-01
    1      -16.660378    -16.660119   1.000000   1.000000
    2      -15.873411    -15.873163   1.000000   1.000000
    3      -15.027736    -15.027496   1.000000   1.000000
    4      -13.321731    -13.321533   1.000000   1.000000
    5      -13.030261    -13.030083   1.000000   1.000000
    6      -12.740556    -12.740393   1.000000   1.000000
    7      -12.563514    -12.563396   1.000000   1.000000
    8      -12.257354    -12.257202   1.000000   1.000000
    9      -11.850629    -11.850495   1.000000   1.000000
   10      -11.599168    -11.599048   1.000000   1.000000
   11       -9.889734     -9.889450   1.000000   1.000000
   12       -8.803989     -8.803700   1.000000   1.000000
   13       -8.419309     -8.419058   1.000000   1.000000
   14       -6.494924     -6.494652   1.000000   1.000000
   15       -5.976436     -5.976158   1.000000   1.000000
   16       -5.468580     -5.468292   1.000000   1.000000
   17       -4.743231     -4.742955   1.000000   1.000000
   18       -4.509398     -4.509115   1.000000   1.000000
   19       -3.818161     -3.817850   1.000000   1.000000
   20       -3.521769     -3.521463   1.000000   1.000000
   21       -3.161319     -3.161015   1.000000   1.000000
   22       -2.976280     -2.976014   1.000000   1.000000
   23       -2.778122     -2.777864   1.000000   1.000000
   24       -2.388493     -2.388249   1.000000   1.000000
   25       -0.769291     -0.768978   1.000000   1.000000
   26       -0.294671     -0.294404   1.000000   1.000000
   27       -0.237827     -0.237577   1.000000   1.000000
   28        0.295100      0.295377   1.000000   1.000000
   29        0.388913      0.389149   1.000000   1.000000
   30        0.509134      0.509378   1.000000   1.000000
   31        0.699458      0.699704   1.000000   1.000000
   32        0.829041      0.829263   1.000000   1.000000
   33        1.125970      1.126163   1.000000   1.000000
   34        1.331769      1.332006   1.000000   1.000000
   35        1.537007      1.537204   1.000000   1.000000
   36        1.944972      1.945125   1.000000   1.000000
   37        2.081589      2.081747   1.000000   1.000000
   38        2.461321      2.461479   1.000000   1.000000
   39        2.663051      2.663153   1.000000   1.000000
   40        3.054204      3.054299   1.000000   1.000000
   41        5.657198      5.657633  -0.000002   0.000000
   42        6.633858      6.634253   0.000000   0.000000
   43        7.002254      7.002779   0.000000   0.000000
   44        7.359464      7.360040   0.000000   0.000000
   45        7.911835      7.912336   0.000000   0.000000
   46        8.274803      8.275303   0.000000   0.000000
   47        8.342002      8.342498   0.000000   0.000000
   48        8.626756      8.627086   0.000000   0.000000
   49        8.823863      8.824316   0.000000   0.000000
   50        9.347903      9.348377   0.000000   0.000000
   51        9.557887      9.558259   0.000000   0.000000
   52        9.761486      9.761901   0.000000   0.000000
   53       10.232247     10.232697   0.000000   0.000000
   54       10.565713     10.580399   0.000000   0.000000
 
  0.3333333E+00  0.1108868E-16 -0.2284352E-16  0.1190476E-01
    1      -16.561700    -16.561444   1.000000   1.000000
    2      -15.899296    -15.899047   1.000000   1.000000
    3      -14.970304    -14.970068   1.000000   1.000000
    4      -13.641978    -13.641760   1.000000   1.000000
    5      -13.187414    -13.187226   1.000000   1.000000
    6      -12.778173    -12.778012   1.000000   1.000000
    7      -12.556443    -12.556324   1.000000   1.000000
    8      -12.188762    -12.188611   1.000000   1.000000
    9      -11.694340    -11.694227   1.000000   1.000000
   10      -11.644166    -11.644040   1.000000   1.000000
   11      -10.003780    -10.003484   1.000000   1.000000
   12       -8.441445     -8.441178   1.000000   1.000000
   13       -8.047895     -8.047651   1.000000   1.000000
   14       -6.494541     -6.494268   1.000000   1.000000
   15       -5.791844     -5.791574   1.000000   1.000000
   16       -5.595821     -5.595545   1.000000   1.000000
   17       -4.807283     -4.807002   1.000000   1.000000
   18       -4.716442     -4.716157   1.000000   1.000000
   19       -3.749935     -3.749616   1.000000   1.000000
   20       -3.318954     -3.318668   1.000000   1.000000
   21       -3.258016     -3.257725   1.000000   1.000000
   22       -3.029274     -3.029002   1.000000   1.000000
   23       -2.821769     -2.821509   1.000000   1.000000
   24       -2.569147     -2.568889   1.000000   1.000000
   25       -0.913081     -0.912782   1.000000   1.000000
   26       -0.652823     -0.652522   1.000000   1.000000
   27       -0.583779     -0.583501   1.000000   1.000000
   28        0.205096      0.205367   1.000000   1.000000
   29        0.502834      0.503090   1.000000   1.000000
   30        0.674834      0.675052   1.000000   1.000000
   31        0.877821      0.878055   1.000000   1.000000
   32        0.970545      0.970757   1.000000   1.000000
   33        1.119900      1.120103   1.000000   1.000000
   34        1.458646      1.458875   1.000000   1.000000
   35        1.564522      1.564706   1.000000   1.000000
   36        1.897500      1.897671   1.000000   1.000000
   37        2.000658      2.000844   1.000000   1.000000
   38        2.289485      2.289645   1.000000   1.000000
   39        2.513595      2.513729   1.000000   1.000000
   40        2.983185      2.983279   1.000000   1.000000
   41        6.029194      6.029666   0.000000   0.000000
   42        6.564659      6.565251   0.000000   0.000000
   43        7.272087      7.272551   0.000000   0.000000
   44        7.438738      7.439152   0.000000   0.000000
   45        8.099525      8.100064   0.000000   0.000000
   46        8.335011      8.335544   0.000000   0.000000
   47        8.754939      8.755457   0.000000   0.000000
   48        8.958265      8.958698   0.000000   0.000000
   49        9.074402      9.074734   0.000000   0.000000
   50        9.224156      9.224569   0.000000   0.000000
   51        9.737001      9.737488   0.000000   0.000000
   52        9.803227      9.803721   0.000000   0.000000
   53        9.971042      9.971474   0.000000   0.000000
   54       10.256211     10.249807   0.000000   0.000000
 
  0.5000000E+00 -0.5842436E-17 -0.5463164E-16  0.5952381E-02
    1      -16.503151    -16.502897   1.000000   1.000000
    2      -15.918679    -15.918429   1.000000   1.000000
    3      -14.946604    -14.946371   1.000000   1.000000
    4      -13.767461    -13.767238   1.000000   1.000000
    5      -13.259195    -13.259002   1.000000   1.000000
    6      -12.790338    -12.790174   1.000000   1.000000
    7      -12.554754    -12.554634   1.000000   1.000000
    8      -12.095883    -12.095734   1.000000   1.000000
    9      -11.770096    -11.769965   1.000000   1.000000
   10      -11.682189    -11.682074   1.000000   1.000000
   11       -9.884618     -9.884333   1.000000   1.000000
   12       -8.276175     -8.275927   1.000000   1.000000
   13       -8.050511     -8.050258   1.000000   1.000000
   14       -6.220895     -6.220620   1.000000   1.000000
   15       -5.809030     -5.808746   1.000000   1.000000
   16       -5.674335     -5.674087   1.000000   1.000000
   17       -4.933053     -4.932800   1.000000   1.000000
   18       -4.758880     -4.758567   1.000000   1.000000
   19       -3.577829     -3.577525   1.000000   1.000000
   20       -3.546181     -3.545895   1.000000   1.000000
   21       -3.119340     -3.119053   1.000000   1.000000
   22       -2.960236     -2.959967   1.000000   1.000000
   23       -2.837521     -2.837279   1.000000   1.000000
   24       -2.807556     -2.807256   1.000000   1.000000
   25       -0.884439     -0.884188   1.000000   1.000000
   26       -0.830677     -0.830375   1.000000   1.000000
   27       -0.765905     -0.765561   1.000000   1.000000
   28        0.172961      0.173229   1.000000   1.000000
   29        0.512770      0.513042   1.000000   1.000000
   30        0.744497      0.744697   1.000000   1.000000
   31        0.929107      0.929327   1.000000   1.000000
   32        1.111530      1.111746   1.000000   1.000000
   33        1.119104      1.119314   1.000000   1.000000
   34        1.455541      1.455741   1.000000   1.000000
   35        1.552245      1.552455   1.000000   1.000000
   36        1.928484      1.928666   1.000000   1.000000
   37        1.965512      1.965695   1.000000   1.000000
   38        2.183880      2.184045   1.000000   1.000000
   39        2.447878      2.448028   1.000000   1.000000
   40        3.008011      3.008089   1.000000   1.000000
   41        5.967924      5.968536   0.000000   0.000000
   42        6.465234      6.465697   0.000000   0.000000
   43        7.564229      7.564766   0.000000   0.000000
   44        8.024376      8.024803   0.000000   0.000000
   45        8.436076      8.436466   0.000000   0.000000
   46        8.464495      8.465027   0.000000   0.000000
   47        8.581374      8.581852   0.000000   0.000000
   48        8.662904      8.663408   0.000000   0.000000
   49        9.089434      9.089977   0.000000   0.000000
   50        9.273634      9.274051   0.000000   0.000000
   51        9.528972      9.529513   0.000000   0.000000
   52        9.585045      9.585505   0.000000   0.000000
   53       10.210687     10.210543   0.000000   0.000000
   54       10.233106     10.233927   0.000000   0.000000
 
  0.1117460E-16  0.1428571E+00  0.1938587E-16  0.1190476E-01
    1      -16.634882    -16.634622   1.000000   1.000000
    2      -15.836929    -15.836681   1.000000   1.000000
    3      -14.995720    -14.995481   1.000000   1.000000
    4      -13.615816    -13.615618   1.000000   1.000000
    5      -13.161543    -13.161371   1.000000   1.000000
    6      -12.623125    -12.622990   1.000000   1.000000
    7      -12.361671    -12.361504   1.000000   1.000000
    8      -12.255931    -12.255800   1.000000   1.000000
    9      -11.929989    -11.929843   1.000000   1.000000
   10      -11.574373    -11.574256   1.000000   1.000000
   11       -9.817305     -9.817034   1.000000   1.000000
   12       -8.840083     -8.839782   1.000000   1.000000
   13       -8.312165     -8.311905   1.000000   1.000000
   14       -6.653528     -6.653266   1.000000   1.000000
   15       -5.986222     -5.985943   1.000000   1.000000
   16       -5.382129     -5.381839   1.000000   1.000000
   17       -4.771134     -4.770863   1.000000   1.000000
   18       -4.452724     -4.452434   1.000000   1.000000
   19       -3.776078     -3.775808   1.000000   1.000000
   20       -3.672994     -3.672639   1.000000   1.000000
   21       -3.160740     -3.160445   1.000000   1.000000
   22       -2.861893     -2.861624   1.000000   1.000000
   23       -2.800611     -2.800356   1.000000   1.000000
   24       -2.334158     -2.333921   1.000000   1.000000
   25       -0.574357     -0.574044   1.000000   1.000000
   26       -0.412668     -0.412393   1.000000   1.000000
   27       -0.063646     -0.063382   1.000000   1.000000
   28        0.216674      0.216909   1.000000   1.000000
   29        0.330163      0.330416   1.000000   1.000000
   30        0.581103      0.581330   1.000000   1.000000
   31        0.708552      0.708799   1.000000   1.000000
   32        0.817338      0.817559   1.000000   1.000000
   33        0.963414      0.963626   1.000000   1.000000
   34        1.309279      1.309505   1.000000   1.000000
   35        1.632663      1.632863   1.000000   1.000000
   36        1.885101      1.885245   1.000000   1.000000
   37        2.079303      2.079459   1.000000   1.000000
   38        2.476799      2.476962   1.000000   1.000000
   39        2.722779      2.722869   1.000000   1.000000
   40        3.034210      3.034306   1.000000   1.000000
   41        5.398667      5.399105   0.000000   0.000000
   42        6.336527      6.336965   0.000000   0.000000
   43        7.077754      7.078194   0.000000   0.000000
   44        7.568052      7.568611   0.000000   0.000000
   45        7.797969      7.798550   0.000000   0.000000
   46        8.123776      8.124267   0.000000   0.000000
   47        8.418163      8.418666   0.000000   0.000000
   48        8.504719      8.505206   0.000000   0.000000
   49        8.901038      8.901371   0.000000   0.000000
   50        9.128901      9.129349   0.000000   0.000000
   51        9.492189      9.492664   0.000000   0.000000
   52        9.755091      9.755597   0.000000   0.000000
   53       10.088591     10.088924   0.000000   0.000000
   54       10.677817     10.695870   0.000000   0.000000
 
  0.1666667E+00  0.1428571E+00  0.7143115E-16  0.1190476E-01
    1      -16.596302    -16.596044   1.000000   1.000000
    2      -15.870608    -15.870359   1.000000   1.000000
    3      -14.914831    -14.914595   1.000000   1.000000
    4      -13.650749    -13.650550   1.000000   1.000000
    5      -13.170752    -13.170577   1.000000   1.000000
    6      -12.769846    -12.769653   1.000000   1.000000
    7      -12.576507    -12.576372   1.000000   1.000000
    8      -12.230154    -12.230019   1.000000   1.000000
    9      -11.857772    -11.857641   1.000000   1.000000
   10      -11.604269    -11.604149   1.000000   1.000000
   11       -9.206988     -9.206741   1.000000   1.000000
   12       -8.860223     -8.859932   1.000000   1.000000
   13       -8.546513     -8.546240   1.000000   1.000000
   14       -6.836462     -6.836197   1.000000   1.000000
   15       -5.625061     -5.624779   1.000000   1.000000
   16       -5.422700     -5.422413   1.000000   1.000000
   17       -4.698930     -4.698673   1.000000   1.000000
   18       -4.413263     -4.412979   1.000000   1.000000
   19       -3.970367     -3.970067   1.000000   1.000000
   20       -3.608906     -3.608588   1.000000   1.000000
   21       -3.114902     -3.114600   1.000000   1.000000
   22       -3.026078     -3.025808   1.000000   1.000000
   23       -2.785129     -2.784867   1.000000   1.000000
   24       -2.440890     -2.440650   1.000000   1.000000
   25       -0.720519     -0.720183   1.000000   1.000000
   26       -0.434932     -0.434679   1.000000   1.000000
   27       -0.225786     -0.225524   1.000000   1.000000
   28        0.083634      0.083916   1.000000   1.000000
   29        0.361197      0.361441   1.000000   1.000000
   30        0.603790      0.604014   1.000000   1.000000
   31        0.786255      0.786474   1.000000   1.000000
   32        0.958930      0.959132   1.000000   1.000000
   33        1.002106      1.002332   1.000000   1.000000
   34        1.359281      1.359508   1.000000   1.000000
   35        1.627827      1.628025   1.000000   1.000000
   36        1.828438      1.828594   1.000000   1.000000
   37        2.059830      2.059996   1.000000   1.000000
   38        2.444223      2.444382   1.000000   1.000000
   39        2.593763      2.593882   1.000000   1.000000
   40        2.956359      2.956469   1.000000   1.000000
   41        5.779693      5.780114  -0.000000   0.000000
   42        6.527778      6.528222   0.000000   0.000000
   43        6.986418      6.986965   0.000000   0.000000
   44        7.481372      7.481955   0.000000   0.000000
   45        7.720816      7.721251   0.000000   0.000000
   46        8.280610      8.281141   0.000000   0.000000
   47        8.396556      8.397063   0.000000   0.000000
   48        8.830454      8.830781   0.000000   0.000000
   49        9.029402      9.029790   0.000000   0.000000
   50        9.172258      9.172634   0.000000   0.000000
   51        9.340671      9.341148   0.000000   0.000000
   52        9.746981      9.747428   0.000000   0.000000
   53       10.298334     10.298853   0.000000   0.000000
   54       10.471164     10.470527   0.000000   0.000000
 
  0.3333333E+00  0.1428571E+00 -0.2951321E-16  0.1190476E-01
    1      -16.499846    -16.499591   1.000000   1.000000
    2      -15.884083    -15.883834   1.000000   1.000000
    3      -14.851111    -14.850878   1.000000   1.000000
    4      -13.885220    -13.885008   1.000000   1.000000
    5      -13.338891    -13.338696   1.000000   1.000000
    6      -12.820360    -12.820178   1.000000   1.000000
    7      -12.550605    -12.550474   1.000000   1.000000
    8      -12.243243    -12.243100   1.000000   1.000000
    9      -11.773780    -11.773658   1.000000   1.000000
   10      -11.648853    -11.648730   1.000000   1.000000
   11       -9.280488     -9.280226   1.000000   1.000000
   12       -8.477656     -8.477390   1.000000   1.000000
   13       -8.211903     -8.211650   1.000000   1.000000
   14       -6.774028     -6.773762   1.000000   1.000000
   15       -5.639992     -5.639724   1.000000   1.000000
   16       -5.389928     -5.389645   1.000000   1.000000
   17       -4.706402     -4.706128   1.000000   1.000000
   18       -4.566894     -4.566632   1.000000   1.000000
   19       -4.049840     -4.049525   1.000000   1.000000
   20       -3.413485     -3.413186   1.000000   1.000000
   21       -3.320136     -3.319853   1.000000   1.000000
   22       -2.922567     -2.922283   1.000000   1.000000
   23       -2.819388     -2.819115   1.000000   1.000000
   24       -2.646516     -2.646267   1.000000   1.000000
   25       -0.852495     -0.852191   1.000000   1.000000
   26       -0.697598     -0.697303   1.000000   1.000000
   27       -0.531909     -0.531627   1.000000   1.000000
   28        0.037576      0.037870   1.000000   1.000000
   29        0.464083      0.464332   1.000000   1.000000
   30        0.653636      0.653847   1.000000   1.000000
   31        0.884796      0.885015   1.000000   1.000000
   32        0.938519      0.938719   1.000000   1.000000
   33        1.229803      1.230019   1.000000   1.000000
   34        1.407143      1.407353   1.000000   1.000000
   35        1.624086      1.624296   1.000000   1.000000
   36        1.751167      1.751331   1.000000   1.000000
   37        2.010043      2.010236   1.000000   1.000000
   38        2.309912      2.310073   1.000000   1.000000
   39        2.451536      2.451680   1.000000   1.000000
   40        2.899354      2.899462   1.000000   1.000000
   41        6.281659      6.282133   0.000000   0.000000
   42        6.617119      6.617698   0.000000   0.000000
   43        7.131056      7.131481   0.000000   0.000000
   44        7.492676      7.493192   0.000000   0.000000
   45        7.791605      7.792094   0.000000   0.000000
   46        8.451538      8.452066   0.000000   0.000000
   47        8.684884      8.685360   0.000000   0.000000
   48        8.807044      8.807585   0.000000   0.000000
   49        9.047009      9.047383   0.000000   0.000000
   50        9.292307      9.292631   0.000000   0.000000
   51        9.788531      9.788925   0.000000   0.000000
   52        9.900017      9.900399   0.000000   0.000000
   53        9.941500      9.941899   0.000000   0.000000
   54       10.346077     10.375015   0.000000   0.000000
 
  0.5000000E+00  0.1428571E+00 -0.2646571E-15  0.1190476E-01
    1      -16.440326    -16.440074   1.000000   1.000000
    2      -15.862238    -15.861989   1.000000   1.000000
    3      -14.875663    -14.875430   1.000000   1.000000
    4      -14.073825    -14.073604   1.000000   1.000000
    5      -13.428185    -13.427984   1.000000   1.000000
    6      -12.698671    -12.698513   1.000000   1.000000
    7      -12.469030    -12.468899   1.000000   1.000000
    8      -12.183744    -12.183585   1.000000   1.000000
    9      -11.853101    -11.852969   1.000000   1.000000
   10      -11.684871    -11.684749   1.000000   1.000000
   11       -9.570876     -9.570613   1.000000   1.000000
   12       -8.143949     -8.143699   1.000000   1.000000
   13       -7.934892     -7.934644   1.000000   1.000000
   14       -6.412184     -6.411916   1.000000   1.000000
   15       -5.914872     -5.914600   1.000000   1.000000
   16       -5.437208     -5.436945   1.000000   1.000000
   17       -4.938545     -4.938292   1.000000   1.000000
   18       -4.750148     -4.749840   1.000000   1.000000
   19       -3.752553     -3.752264   1.000000   1.000000
   20       -3.587272     -3.586962   1.000000   1.000000
   21       -3.128068     -3.127793   1.000000   1.000000
   22       -3.022109     -3.021804   1.000000   1.000000
   23       -2.827419     -2.827176   1.000000   1.000000
   24       -2.662260     -2.661995   1.000000   1.000000
   25       -0.918348     -0.918085   1.000000   1.000000
   26       -0.787585     -0.787286   1.000000   1.000000
   27       -0.644129     -0.643802   1.000000   1.000000
   28        0.024852      0.025142   1.000000   1.000000
   29        0.516766      0.517019   1.000000   1.000000
   30        0.679590      0.679800   1.000000   1.000000
   31        0.858637      0.858857   1.000000   1.000000
   32        1.047608      1.047833   1.000000   1.000000
   33        1.112514      1.112737   1.000000   1.000000
   34        1.375002      1.375209   1.000000   1.000000
   35        1.656512      1.656700   1.000000   1.000000
   36        1.875052      1.875235   1.000000   1.000000
   37        1.912110      1.912305   1.000000   1.000000
   38        2.264959      2.265111   1.000000   1.000000
   39        2.378817      2.378977   1.000000   1.000000
   40        2.938296      2.938388   1.000000   1.000000
   41        6.108570      6.109194   0.000000   0.000000
   42        6.587856      6.588283   0.000000   0.000000
   43        7.592896      7.593403   0.000000   0.000000
   44        7.839753      7.840213   0.000000   0.000000
   45        8.115611      8.116147   0.000000   0.000000
   46        8.449301      8.449819   0.000000   0.000000
   47        8.596305      8.596771   0.000000   0.000000
   48        8.840784      8.841169   0.000000   0.000000
   49        8.956387      8.956906   0.000000   0.000000
   50        9.122689      9.123251   0.000000   0.000000
   51        9.555610      9.556011   0.000000   0.000000
   52        9.999168      9.999639   0.000000   0.000000
   53       10.264331     10.265581   0.000000   0.000000
   54       10.353322     10.373523   0.000000   0.000000
 
 -0.3333333E+00  0.1428571E+00 -0.8663738E-16  0.1190476E-01
    1      -16.493404    -16.493149   1.000000   1.000000
    2      -15.815117    -15.814870   1.000000   1.000000
    3      -14.956986    -14.956749   1.000000   1.000000
    4      -14.041945    -14.041725   1.000000   1.000000
    5      -13.374252    -13.374057   1.000000   1.000000
    6      -12.644444    -12.644304   1.000000   1.000000
    7      -12.408453    -12.408321   1.000000   1.000000
    8      -12.063809    -12.063670   1.000000   1.000000
    9      -11.788786    -11.788644   1.000000   1.000000
   10      -11.661475    -11.661353   1.000000   1.000000
   11      -10.150601    -10.150307   1.000000   1.000000
   12       -8.081204     -8.080949   1.000000   1.000000
   13       -7.633736     -7.633500   1.000000   1.000000
   14       -6.613542     -6.613269   1.000000   1.000000
   15       -6.069168     -6.068905   1.000000   1.000000
   16       -5.402114     -5.401836   1.000000   1.000000
   17       -5.047882     -5.047617   1.000000   1.000000
   18       -4.814804     -4.814494   1.000000   1.000000
   19       -3.671279     -3.670946   1.000000   1.000000
   20       -3.400876     -3.400573   1.000000   1.000000
   21       -3.162792     -3.162508   1.000000   1.000000
   22       -3.085016     -3.084758   1.000000   1.000000
   23       -2.814254     -2.814016   1.000000   1.000000
   24       -2.424205     -2.423956   1.000000   1.000000
   25       -0.929245     -0.928962   1.000000   1.000000
   26       -0.605275     -0.605000   1.000000   1.000000
   27       -0.489073     -0.488766   1.000000   1.000000
   28        0.096791      0.097076   1.000000   1.000000
   29        0.447932      0.448192   1.000000   1.000000
   30        0.582125      0.582358   1.000000   1.000000
   31        0.784003      0.784232   1.000000   1.000000
   32        0.957495      0.957727   1.000000   1.000000
   33        1.153849      1.154067   1.000000   1.000000
   34        1.354554      1.354765   1.000000   1.000000
   35        1.610610      1.610802   1.000000   1.000000
   36        1.873371      1.873547   1.000000   1.000000
   37        2.021998      2.022176   1.000000   1.000000
   38        2.246365      2.246527   1.000000   1.000000
   39        2.490613      2.490749   1.000000   1.000000
   40        2.943055      2.943152   1.000000   1.000000
   41        6.033941      6.034382   0.000000   0.000000
   42        6.536494      6.537102   0.000000   0.000000
   43        7.159726      7.160226   0.000000   0.000000
   44        7.722448      7.722796   0.000000   0.000000
   45        8.125693      8.126249   0.000000   0.000000
   46        8.470325      8.470862   0.000000   0.000000
   47        8.647405      8.647956   0.000000   0.000000
   48        8.840518      8.840989   0.000000   0.000000
   49        8.899348      8.899813   0.000000   0.000000
   50        9.433394      9.433946   0.000000   0.000000
   51        9.603935      9.604266   0.000000   0.000000
   52        9.795871      9.796327   0.000000   0.000000
   53       10.207472     10.207663   0.000000   0.000000
   54       10.300553     10.300718   0.000000   0.000000
 
 -0.1666667E+00  0.1428571E+00 -0.7378028E-16  0.1190476E-01
    1      -16.589032    -16.588774   1.000000   1.000000
    2      -15.805727    -15.805481   1.000000   1.000000
    3      -15.014717    -15.014478   1.000000   1.000000
    4      -13.818282    -13.818072   1.000000   1.000000
    5      -13.248648    -13.248465   1.000000   1.000000
    6      -12.632661    -12.632526   1.000000   1.000000
    7      -12.359634    -12.359500   1.000000   1.000000
    8      -12.181858    -12.181716   1.000000   1.000000
    9      -11.678245    -11.678130   1.000000   1.000000
   10      -11.521766    -11.521652   1.000000   1.000000
   11      -10.424412    -10.424081   1.000000   1.000000
   12       -8.486437     -8.486154   1.000000   1.000000
   13       -7.746015     -7.745775   1.000000   1.000000
   14       -6.574239     -6.573978   1.000000   1.000000
   15       -6.316943     -6.316668   1.000000   1.000000
   16       -5.349934     -5.349650   1.000000   1.000000
   17       -4.827615     -4.827322   1.000000   1.000000