 running on    8 total cores
 distrk:  each k-point on    8 cores,    1 groups
 distr:  one band on    1 cores,    8 groups
 using from now: INCAR     
 vasp.6.1.2 22Jul20 (build Mar 20 2021 11:25:07) complex                        
  
 POSCAR found type information on POSCAR LiN 
 POSCAR found :  2 types and       4 ions
 scaLAPACK will be used
 -----------------------------------------------------------------------------
|                                                                             |
|           W    W    AA    RRRRR   N    N  II  N    N   GGGG   !!!           |
|           W    W   A  A   R    R  NN   N  II  NN   N  G    G  !!!           |
|           W    W  A    A  R    R  N N  N  II  N N  N  G       !!!           |
|           W WW W  AAAAAA  RRRRR   N  N N  II  N  N N  G  GGG   !            |
|           WW  WW  A    A  R   R   N   NN  II  N   NN  G    G                |
|           W    W  A    A  R    R  N    N  II  N    N   GGGG   !!!           |
|                                                                             |
|     The value NCORE = 6 specified in the INCAR file was overwritten,        |
|     because it was not compatible with the 8 processes available:           |
|     NCORE = 1                                                               |
|     was used instead, please check that this makes sense for your           |
|     machine.                                                                |
|                                                                             |
 -----------------------------------------------------------------------------

 -----------------------------------------------------------------------------
|                                                                             |
|           W    W    AA    RRRRR   N    N  II  N    N   GGGG   !!!           |
|           W    W   A  A   R    R  NN   N  II  NN   N  G    G  !!!           |
|           W    W  A    A  R    R  N N  N  II  N N  N  G       !!!           |
|           W WW W  AAAAAA  RRRRR   N  N N  II  N  N N  G  GGG   !            |
|           WW  WW  A    A  R   R   N   NN  II  N   NN  G    G                |
|           W    W  A    A  R    R  N    N  II  N    N   GGGG   !!!           |
|                                                                             |
|     For optimal performance we recommend to set                             |
|       NCORE = 4 - approx SQRT(number of cores).                             |
|     NCORE specifies how many cores store one orbital (NPAR=cpu/NCORE).      |
|     This setting can greatly improve the performance of VASP for DFT.       |
|     The default, NCORE=1 might be grossly inefficient on modern             |
|     multi-core architectures or massively parallel machines. Do your        |
|     own testing!!!!                                                         |
|     Unfortunately you need to use the default for GW and RPA                |
|     calculations (for HF NCORE is supported but not extensively tested      |
|     yet).                                                                   |
|                                                                             |
 -----------------------------------------------------------------------------

 -----------------------------------------------------------------------------
|                                                                             |
|               ----> ADVICE to this user running VASP <----                  |
|                                                                             |
|     You have a (more or less) 'small supercell' and for smaller cells       |
|     it is recommended to use the reciprocal-space projection scheme!        |
|     The real-space optimization is not efficient for small cells and it     |
|     is also less accurate ...                                               |
|     Therefore, set LREAL=.FALSE. in the INCAR file.                         |
|                                                                             |
 -----------------------------------------------------------------------------

 LDA part: xc-table for Pade appr. of Perdew
 generate k-points for:   11   11    7
 POSCAR, INCAR and KPOINTS ok, starting setup
 FFT: planning ...
 WAVECAR not read
 entering main loop
       N       E                     dE             d eps       ncg     rms          rms(c)
DAV:   1     0.791491505817E+02    0.79149E+02   -0.84059E+03 14976   0.104E+03
DAV:   2    -0.238836508925E+02   -0.10303E+03   -0.99486E+02 20328   0.247E+02
DAV:   3    -0.286385696411E+02   -0.47549E+01   -0.47382E+01 21688   0.552E+01
DAV:   4    -0.287795076787E+02   -0.14094E+00   -0.14089E+00 20728   0.831E+00
DAV:   5    -0.287809374431E+02   -0.14298E-02   -0.14297E-02 20600   0.807E-01    0.130E+01
RMM:   6    -0.275373336998E+02    0.12436E+01   -0.31572E+00 16500   0.110E+01    0.597E+00
RMM:   7    -0.274581538283E+02    0.79180E-01   -0.47950E-01 18692   0.587E+00    0.344E+00
RMM:   8    -0.274301542765E+02    0.28000E-01   -0.19906E-01 19802   0.332E+00    0.171E+00
RMM:   9    -0.274398958529E+02   -0.97416E-02   -0.42098E-02 21432   0.168E+00    0.641E-01
RMM:  10    -0.274409053226E+02   -0.10095E-02   -0.11639E-02 22851   0.805E-01    0.152E-01
WARNING in EDDRMM: call to ZHEGV failed, returncode =   8  4      2
RMM:  11    -0.274415717298E+02   -0.66641E-03   -0.27052E-03 23582   0.410E-01    0.800E-02
RMM:  12    -0.274418632171E+02   -0.29149E-03   -0.13151E-03 25006   0.244E-01    0.417E-02
RMM:  13    -0.274419502046E+02   -0.86988E-04   -0.46408E-04 24477   0.143E-01    0.140E-02
RMM:  14    -0.274419874347E+02   -0.37230E-04   -0.23419E-04 23794   0.966E-02    0.765E-03
RMM:  15    -0.274420015624E+02   -0.14128E-04   -0.10460E-04 21422   0.613E-02    0.432E-03
RMM:  16    -0.274420079032E+02   -0.63408E-05   -0.46235E-05 18750   0.423E-02
   1 F= -.27442008E+02 E0= -.27442008E+02  d E =0.000000E+00  mag=    -0.0000
