    9    9    1    2
  0.1073167E+02  0.4804507E-09  0.5112339E-09  0.5112339E-09  0.5000000E-15
  1.000000000000000E-004
  CAR 
 unknown system                          
     51    116     34
 
  0.0000000E+00  0.0000000E+00  0.0000000E+00  0.2551020E-02
    1      -43.623009    -43.622342   1.000000   1.000000
    2      -27.260424    -27.269031   1.000000   1.000000
    3      -26.168116    -26.166321   1.000000   1.000000
    4      -26.164397    -26.149322   1.000000   1.000000
    5      -25.524698    -25.544510   1.000000   1.000000
    6      -13.637783    -13.638783   1.000000   1.000000
    7      -13.065393    -13.040716   1.000000   1.000000
    8      -13.000116    -13.038159   1.000000   1.000000
    9      -12.094963    -12.097829   1.000000   1.000000
   10       -8.515191     -8.516024   1.000000   1.000000
   11       -8.153342     -8.159392   1.000000   1.000000
   12       -7.824572     -7.824075   1.000000   1.000000
   13       -7.548526     -7.546156   1.000000   1.000000
   14       -6.897852     -6.910446   1.000000   1.000000
   15       -6.126677     -6.140481   1.000000   1.000000
   16       -6.048696     -6.033702   1.000000   1.000000
   17       -5.992838     -6.003021   1.000000   1.000000
   18       -4.615384     -4.623599   1.000000   1.000000
   19       -4.602833     -4.611611   1.000000   1.000000
   20       -4.461209     -4.464712   1.000000   1.000000
   21       -4.361451     -4.361030   1.000000   1.000000
   22       -0.814551     -0.813307   1.000000   1.000000
   23       -0.695228     -0.705891   1.000000   1.000000
   24       -0.077819     -0.073692   1.000000   1.000000
   25        0.758164      0.743797   1.000000   1.000000
   26        2.322002      2.296435   0.000000   0.000000
   27        2.372314      2.368367   0.000000   0.000000
   28        2.447999      2.448497   0.000000   0.000000
   29        2.718707      2.722170   0.000000   0.000000
   30        9.281308      9.274608   0.000000   0.000000
   31        9.466207      9.477562   0.000000   0.000000
   32        9.953757      9.938038   0.000000   0.000000
   33       11.816176     11.797034   0.000000   0.000000
   34       12.395285     12.426595   0.000000   0.000000
 
  0.1250000E+00  0.1986422E-16  0.2491898E-14  0.5102041E-02
    1      -43.622971    -43.622303   1.000000   1.000000
    2      -27.258258    -27.266900   1.000000   1.000000
    3      -26.170543    -26.166605   1.000000   1.000000
    4      -26.164675    -26.151748   1.000000   1.000000
    5      -25.525498    -25.545269   1.000000   1.000000
    6      -13.727036    -13.728462   1.000000   1.000000
    7      -13.020139    -13.003830   1.000000   1.000000
    8      -12.963966    -12.992778   1.000000   1.000000
    9      -12.087390    -12.090726   1.000000   1.000000
   10       -8.504439     -8.505173   1.000000   1.000000
   11       -8.176311     -8.182390   1.000000   1.000000
   12       -7.706193     -7.704262   1.000000   1.000000
   13       -7.517638     -7.516726   1.000000   1.000000
   14       -6.905715     -6.917671   1.000000   1.000000
   15       -6.282043     -6.296877   1.000000   1.000000
   16       -6.107395     -6.093202   1.000000   1.000000
   17       -5.910457     -5.919395   1.000000   1.000000
   18       -4.611447     -4.625076   1.000000   1.000000
   19       -4.604515     -4.607599   1.000000   1.000000
   20       -4.455317     -4.459043   1.000000   1.000000
   21       -4.357108     -4.356780   1.000000   1.000000
   22       -0.805483     -0.804233   1.000000   1.000000
   23       -0.656067     -0.666449   1.000000   1.000000
   24       -0.081609     -0.077875   1.000000   1.000000
   25        0.701567      0.687486   1.000000   1.000000
   26        2.320072      2.293986   0.000000   0.000000
   27        2.354299      2.351442   0.000000   0.000000
   28        2.453377      2.453264   0.000000   0.000000
   29        2.712496      2.715705   0.000000   0.000000
   30        9.187381      9.183290   0.000000   0.000000
   31        9.764284      9.775604   0.000000   0.000000
   32       10.011467      9.995202   0.000000   0.000000
   33       11.302236     11.306201   0.000000   0.000000
   34       12.009308     12.192055   0.000000   0.000000
 
  0.2500000E+00  0.3972844E-16  0.4983796E-14  0.5102041E-02
    1      -43.622867    -43.622200   1.000000   1.000000
    2      -27.252575    -27.261306   1.000000   1.000000
    3      -26.176142    -26.167126   1.000000   1.000000
    4      -26.165188    -26.157344   1.000000   1.000000
    5      -25.527394    -25.547073   1.000000   1.000000
    6      -13.927723    -13.929636   1.000000   1.000000
    7      -12.907158    -12.903926   1.000000   1.000000
    8      -12.864803    -12.879468   1.000000   1.000000
    9      -12.081941    -12.085918   1.000000   1.000000
   10       -8.497903     -8.498482   1.000000   1.000000
   11       -8.224140     -8.230278   1.000000   1.000000
   12       -7.617712     -7.613595   1.000000   1.000000
   13       -7.216438     -7.217644   1.000000   1.000000
   14       -6.942726     -6.952264   1.000000   1.000000
   15       -6.493515     -6.510059   1.000000   1.000000
   16       -6.247930     -6.236662   1.000000   1.000000
   17       -5.899034     -5.905776   1.000000   1.000000
   18       -4.608091     -4.628174   1.000000   1.000000
   19       -4.600681     -4.596657   1.000000   1.000000
   20       -4.440467     -4.444703   1.000000   1.000000
   21       -4.347039     -4.346898   1.000000   1.000000
   22       -0.769624     -0.768389   1.000000   1.000000
   23       -0.539957     -0.549421   1.000000   1.000000
   24       -0.087951     -0.085236   1.000000   1.000000
   25        0.567367      0.553678   1.000000   1.000000
   26        2.317377      2.289906   0.000000   0.000000
   27        2.324602      2.322823   0.000000   0.000000
   28        2.453094      2.453215   0.000000   0.000000
   29        2.695691      2.698496   0.000000   0.000000
   30        8.627276      8.624447   0.000000   0.000000
   31       10.208116     10.206618   0.000000   0.000000
   32       10.506760     10.517900   0.000000   0.000000
   33       10.572351     10.558880   0.000000   0.000000
   34       12.305050     12.214724   0.000000   0.000000
 
  0.3750000E+00  0.7180967E-16  0.1780335E-16  0.5102041E-02
    1      -43.622751    -43.622083   1.000000   1.000000
    2      -27.246964    -27.255783   1.000000   1.000000
    3      -26.181742    -26.167213   1.000000   1.000000
    4      -26.165264    -26.162942   1.000000   1.000000
    5      -25.529249    -25.548834   1.000000   1.000000
    6      -14.111057    -14.113153   1.000000   1.000000
    7      -12.788428    -12.781798   1.000000   1.000000
    8      -12.741867    -12.760371   1.000000   1.000000
    9      -12.102774    -12.106156   1.000000   1.000000
   10       -8.495899     -8.496377   1.000000   1.000000
   11       -8.258255     -8.264452   1.000000   1.000000
   12       -7.593897     -7.589631   1.000000   1.000000
   13       -7.025601     -7.030946   1.000000   1.000000
   14       -6.832127     -6.833851   1.000000   1.000000
   15       -6.647524     -6.664805   1.000000   1.000000
   16       -6.367637     -6.361168   1.000000   1.000000
   17       -5.969593     -5.974623   1.000000   1.000000
   18       -4.610946     -4.630588   1.000000   1.000000
   19       -4.588935     -4.584748   1.000000   1.000000
   20       -4.424580     -4.429281   1.000000   1.000000
   21       -4.337480     -4.337491   1.000000   1.000000
   22       -0.715238     -0.714003   1.000000   1.000000
   23       -0.397527     -0.405608   1.000000   1.000000
   24       -0.092066     -0.090520   1.000000   1.000000
   25        0.437204      0.423462   1.000000   1.000000
   26        2.304450      2.289163   0.000000   0.000000
   27        2.318445      2.302946   0.000000   0.000000
   28        2.443656      2.445023   0.000000   0.000000
   29        2.675807      2.678589   0.000000   0.000000
   30        7.892275      7.889899   0.000000   0.000000
   31        9.854206      9.854839   0.000000   0.000000
   32       11.029130     11.034128   0.000000   0.000000
   33       11.081218     11.070853   0.000000   0.000000
   34       12.215767     12.313975   0.000000   0.000000
 
  0.5000000E+00  0.7472987E-16 -0.4594597E-14  0.2551020E-02
    1      -43.622685    -43.622017   1.000000   1.000000
    2      -27.244594    -27.253450   1.000000   1.000000
    3      -26.184103    -26.167265   1.000000   1.000000
    4      -26.165311    -26.165301   1.000000   1.000000
    5      -25.529922    -25.549465   1.000000   1.000000
    6      -14.182705    -14.184840   1.000000   1.000000
    7      -12.737385    -12.720424   1.000000   1.000000
    8      -12.679226    -12.709163   1.000000   1.000000
    9      -12.124245    -12.126486   1.000000   1.000000
   10       -8.493032     -8.493473   1.000000   1.000000
   11       -8.266950     -8.273182   1.000000   1.000000
   12       -7.580750     -7.576392   1.000000   1.000000
   13       -7.080042     -7.083255   1.000000   1.000000
   14       -6.759043     -6.772389   1.000000   1.000000
   15       -6.614779     -6.620925   1.000000   1.000000
   16       -6.405356     -6.401280   1.000000   1.000000
   17       -6.015006     -6.019394   1.000000   1.000000
   18       -4.611916     -4.631389   1.000000   1.000000
   19       -4.583987     -4.579740   1.000000   1.000000
   20       -4.417672     -4.422550   1.000000   1.000000
   21       -4.333658     -4.333724   1.000000   1.000000
   22       -0.687008     -0.685746   1.000000   1.000000
   23       -0.332152     -0.339446   1.000000   1.000000
   24       -0.094382     -0.093387   1.000000   1.000000
   25        0.385001      0.371060   1.000000   1.000000
   26        2.297910      2.290069   0.000000   0.000000
   27        2.320314      2.296356   0.000000   0.000000
   28        2.438068      2.440174   0.000000   0.000000
   29        2.666510      2.669440   0.000000   0.000000
   30        7.580437      7.578273   0.000000   0.000000
   31        9.731498      9.731505   0.000000   0.000000
   32       10.993559     10.997079   0.000000   0.000000
   33       11.529807     11.526369   0.000000   0.000000
   34       11.850370     11.852113   0.000000   0.000000
 
 -0.3255722E-18  0.1428571E+00  0.4548822E-14  0.1020408E-01
    1      -43.622983    -43.622316   1.000000   1.000000
    2      -27.250893    -27.259710   1.000000   1.000000
    3      -26.206364    -26.196004   1.000000   1.000000
    4      -26.130718    -26.123864   1.000000   1.000000
    5      -25.533592    -25.553538   1.000000   1.000000
    6      -13.638728    -13.639471   1.000000   1.000000
    7      -13.074536    -13.071576   1.000000   1.000000
    8      -12.990515    -13.007103   1.000000   1.000000
    9      -12.103816    -12.106653   1.000000   1.000000
   10       -8.474007     -8.475107   1.000000   1.000000
   11       -8.126675     -8.132217   1.000000   1.000000
   12       -7.757641     -7.757098   1.000000   1.000000
   13       -7.487212     -7.485187   1.000000   1.000000
   14       -6.926055     -6.937852   1.000000   1.000000
   15       -6.190158     -6.200096   1.000000   1.000000
   16       -6.058210     -6.047426   1.000000   1.000000
   17       -5.968688     -5.978682   1.000000   1.000000
   18       -4.717363     -4.733009   1.000000   1.000000
   19       -4.645354     -4.647086   1.000000   1.000000
   20       -4.488369     -4.490898   1.000000   1.000000
   21       -4.373446     -4.374162   1.000000   1.000000
   22       -0.775429     -0.776210   1.000000   1.000000
   23       -0.607106     -0.615022   1.000000   1.000000
   24       -0.010799     -0.006990   1.000000   1.000000
   25        0.703102      0.690021   1.000000   1.000000
   26        2.198210      2.175782   0.000000   0.000000
   27        2.344523      2.336815   0.000000   0.000000
   28        2.448688      2.448591   0.000000   0.000000
   29        2.682556      2.685289   0.000000   0.000000
   30        9.331763      9.324544   0.000000   0.000000
   31        9.533121      9.543170   0.000000   0.000000
   32        9.979562      9.966060   0.000000   0.000000
   33       11.715436     11.895140   0.000000   0.000000
   34       12.274301     12.324856   0.000000   0.000000
 
  0.1250000E+00  0.1428571E+00 -0.6062469E-16  0.1020408E-01
    1      -43.622968    -43.622301   1.000000   1.000000
    2      -27.250400    -27.259220   1.000000   1.000000
    3      -26.206076    -26.195852   1.000000   1.000000
    4      -26.131226    -26.124254   1.000000   1.000000
    5      -25.534455    -25.554381   1.000000   1.000000
    6      -13.657382    -13.658815   1.000000   1.000000
    7      -13.093960    -13.085890   1.000000   1.000000
    8      -12.960760    -12.981973   1.000000   1.000000
    9      -12.095065    -12.097755   1.000000   1.000000
   10       -8.469955     -8.471042   1.000000   1.000000
   11       -8.122089     -8.127575   1.000000   1.000000
   12       -7.740467     -7.739964   1.000000   1.000000
   13       -7.498268     -7.496181   1.000000   1.000000
   14       -6.921950     -6.933858   1.000000   1.000000
   15       -6.214976     -6.226370   1.000000   1.000000
   16       -6.061049     -6.048456   1.000000   1.000000
   17       -5.955661     -5.965873   1.000000   1.000000
   18       -4.728821     -4.744131   1.000000   1.000000
   19       -4.635088     -4.636672   1.000000   1.000000
   20       -4.485535     -4.488747   1.000000   1.000000
   21       -4.376635     -4.377244   1.000000   1.000000
   22       -0.756937     -0.757721   1.000000   1.000000
   23       -0.593008     -0.600931   1.000000   1.000000
   24       -0.022868     -0.019575   1.000000   1.000000
   25        0.690154      0.676425   1.000000   1.000000
   26        2.213536      2.192268   0.000000   0.000000
   27        2.314996      2.308240   0.000000   0.000000
   28        2.456048      2.455789   0.000000   0.000000
   29        2.682914      2.685303   0.000000   0.000000
   30        9.323731      9.319919   0.000000   0.000000
   31        9.487179      9.493608   0.000000   0.000000
   32       10.002659      9.989547   0.000000   0.000000
   33       11.681675     11.678394   0.000000   0.000000
   34       12.239772     12.159348   0.000000   0.000000
 
  0.2500000E+00  0.1428571E+00 -0.5017532E-14  0.1020408E-01
    1      -43.622884    -43.622217   1.000000   1.000000
    2      -27.246081    -27.254967   1.000000   1.000000
    3      -26.207804    -26.197112   1.000000   1.000000
    4      -26.133944    -26.127458   1.000000   1.000000
    5      -25.536306    -25.556147   1.000000   1.000000
    6      -13.816383    -13.818537   1.000000   1.000000
    7      -13.040808    -13.034141   1.000000   1.000000
    8      -12.860405    -12.879265   1.000000   1.000000
    9      -12.085274    -12.088286   1.000000   1.000000
   10       -8.455428     -8.456446   1.000000   1.000000
   11       -8.152694     -8.158192   1.000000   1.000000
   12       -7.608674     -7.605219   1.000000   1.000000
   13       -7.351891     -7.352737   1.000000   1.000000
   14       -6.935629     -6.946416   1.000000   1.000000
   15       -6.406872     -6.420966   1.000000   1.000000
   16       -6.168358     -6.156142   1.000000   1.000000
   17       -5.915748     -5.923842   1.000000   1.000000
   18       -4.738037     -4.753336   1.000000   1.000000
   19       -4.620013     -4.621154   1.000000   1.000000
   20       -4.474442     -4.478192   1.000000   1.000000
   21       -4.371001     -4.371655   1.000000   1.000000
   22       -0.710224     -0.710012   1.000000   1.000000
   23       -0.518407     -0.526557   1.000000   1.000000
   24       -0.036450     -0.034353   1.000000   1.000000
   25        0.585193      0.571311   1.000000   1.000000
   26        2.213812      2.195131   0.000000   0.000000
   27        2.282213      2.274396   0.000000   0.000000
   28        2.457109      2.456647   0.000000   0.000000
   29        2.672957      2.674735   0.000000   0.000000
   30        9.006384      9.003571   0.000000   0.000000
   31        9.782112      9.782977   0.000000   0.000000
   32       10.383823     10.379861   0.000000   0.000000
   33       10.885232     10.882116   0.000000   0.000000
   34       12.549725     12.040788   0.000000   0.000000
 
  0.3750000E+00  0.1428571E+00 -0.2501109E-14  0.1020408E-01
    1      -43.622781    -43.622113   1.000000   1.000000
    2      -27.240501    -27.249478   1.000000   1.000000
    3      -26.210596    -26.199070   1.000000   1.000000
    4      -26.137099    -26.131460   1.000000   1.000000
    5      -25.538124    -25.557863   1.000000   1.000000
    6      -14.012387    -14.014657   1.000000   1.000000
    7      -12.925149    -12.919015   1.000000   1.000000
    8      -12.738003    -12.756691   1.000000   1.000000
    9      -12.100855    -12.103444   1.000000   1.000000
   10       -8.452685     -8.453647   1.000000   1.000000
   11       -8.192828     -8.198371   1.000000   1.000000
   12       -7.581387     -7.577420   1.000000   1.000000
   13       -6.991818     -6.999588   1.000000   1.000000
   14       -6.951489     -6.952702   1.000000   1.000000
   15       -6.582193     -6.598012   1.000000   1.000000
   16       -6.326725     -6.318537   1.000000   1.000000
   17       -5.959988     -5.965415   1.000000   1.000000
   18       -4.738560     -4.754059   1.000000   1.000000
   19       -4.608856     -4.609585   1.000000   1.000000
   20       -4.460584     -4.464355   1.000000   1.000000
   21       -4.360025     -4.360896   1.000000   1.000000
   22       -0.650286     -0.649467   1.000000   1.000000
   23       -0.396444     -0.403599   1.000000   1.000000
   24       -0.038698     -0.037935   1.000000   1.000000
   25        0.451872      0.437870   1.000000   1.000000
   26        2.201439      2.185799   0.000000   0.000000
   27        2.267465      2.256287   0.000000   0.000000
   28        2.448357      2.448125   0.000000   0.000000
   29        2.655110      2.656667   0.000000   0.000000
   30        8.253133      8.250719   0.000000   0.000000
   31       10.064155     10.065241   0.000000   0.000000
   32       10.475608     10.474761   0.000000   0.000000
   33       11.169191     11.174877   0.000000   0.000000
   34       12.175525     12.210433   0.000000   0.000000
 
  0.5000000E+00  0.1428571E+00 -0.1522201E-16  0.1020408E-01
    1      -43.622724    -43.622056   1.000000   1.000000
    2      -27.236942    -27.245981   1.000000   1.000000
    3      -26.213029    -26.200794   1.000000   1.000000
    4      -26.138647    -26.133714   1.000000   1.000000
    5      -25.538902    -25.558583   1.000000   1.000000
    6      -14.133702    -14.135880   1.000000   1.000000
    7      -12.811173    -12.803560   1.000000   1.000000
    8      -12.670497    -12.691869   1.000000   1.000000
    9      -12.129790    -12.131231   1.000000   1.000000
   10       -8.450118     -8.450952   1.000000   1.000000
   11       -8.223870     -8.229547   1.000000   1.000000
   12       -7.545423     -7.541257   1.000000   1.000000
   13       -7.067539     -7.071972   1.000000   1.000000
   14       -6.738881     -6.749666   1.000000   1.000000
   15       -6.632499     -6.639009   1.000000   1.000000
   16       -6.419188     -6.415783   1.000000   1.000000
   17       -6.004208     -6.008208   1.000000   1.000000
   18       -4.730496     -4.746319   1.000000   1.000000
   19       -4.607391     -4.607838   1.000000   1.000000
   20       -4.453512     -4.456940   1.000000   1.000000
   21       -4.350241     -4.351344   1.000000   1.000000
   22       -0.614793     -0.613855   1.000000   1.000000
   23       -0.307816     -0.313456   1.000000   1.000000
   24       -0.028820     -0.028922   1.000000   1.000000
   25        0.370178      0.356109   1.000000   1.000000
   26        2.188585      2.172094   0.000000   0.000000
   27        2.273336      2.261407   0.000000   0.000000
   28        2.436346      2.436258   0.000000   0.000000
   29        2.638754      2.640718   0.000000   0.000000
   30        7.724946      7.722748   0.000000   0.000000
   31        9.903461      9.903561   0.000000   0.000000
   32       10.794524     10.796444   0.000000   0.000000
   33       11.528501     11.522690   0.000000   0.000000
   34       11.875176     11.881003   0.000000   0.000000
 
 -0.3750000E+00  0.1428571E+00 -0.1596728E-15  0.1020408E-01
    1      -43.622732    -43.622064   1.000000   1.000000
    2      -27.237435    -27.246471   1.000000   1.000000
    3      -26.213441    -26.201087   1.000000   1.000000
    4      -26.138027    -26.133195   1.000000   1.000000
    5      -25.538065    -25.557765   1.000000   1.000000
    6      -14.121045    -14.123066   1.000000   1.000000
    7      -12.792618    -12.794115   1.000000   1.000000
    8      -12.707541    -12.718653   1.000000   1.000000
    9      -12.122948    -12.125629   1.000000   1.000000
   10       -8.453922     -8.454653   1.000000   1.000000
   11       -8.239881     -8.245654   1.000000   1.000000
   12       -7.524720     -7.520476   1.000000   1.000000
   13       -7.072225     -7.076569   1.000000   1.000000
   14       -6.757992     -6.766886   1.000000   1.000000
   15       -6.647960     -6.656151   1.000000   1.000000
   16       -6.412118     -6.408988   1.000000   1.000000
   17       -5.975570     -5.979779   1.000000   1.000000
   18       -4.719655     -4.735899   1.000000   1.000000
   19       -4.616256     -4.616594   1.000000   1.000000
   20       -4.458390     -4.461363   1.000000   1.000000
   21       -4.347272     -4.348433   1.000000   1.000000
   22       -0.639595     -0.638764   1.000000   1.000000
   23       -0.324956     -0.330715   1.000000   1.000000
   24       -0.015979     -0.015654   1.000000   1.000000
   25        0.383485      0.370123   1.000000   1.000000
   26        2.177841      2.158435   0.000000   0.000000
   27        2.296300      2.285899   0.000000   0.000000
   28        2.431001      2.430593   0.000000   0.000000
   29        2.637378      2.639769   0.000000   0.000000
   30        7.772193      7.769847   0.000000   0.000000
   31        9.947350      9.947767   0.000000   0.000000
   32       10.940139     10.937766   0.000000   0.000000
   33       11.201671     11.198387   0.000000   0.000000
   34       12.424182     12.266549   0.000000   0.000000
 
 -0.2500000E+00  0.1428571E+00  0.2328068E-14  0.1020408E-01
    1      -43.622829    -43.622162   1.000000   1.000000
    2      -27.241677    -27.250647   1.000000   1.000000
    3      -26.211511    -26.199679   1.000000   1.000000
    4      -26.135767    -26.130392   1.000000   1.000000
    5      -25.536190    -25.555977   1.000000   1.000000
    6      -13.979185    -13.980936   1.000000   1.000000
    7      -12.891272    -12.904619   1.000000   1.000000
    8      -12.804501    -12.802557   1.000000   1.000000
    9      -12.101366    -12.105475   1.000000   1.000000
   10       -8.459288     -8.460083   1.000000   1.000000
   11       -8.222168     -8.227911   1.000000   1.000000
   12       -7.532251     -7.528024   1.000000   1.000000
   13       -7.027791     -7.032052   1.000000   1.000000
   14       -6.998218     -7.002682   1.000000   1.000000
   15       -6.585477     -6.600797   1.000000   1.000000
   16       -6.317416     -6.310258   1.000000   1.000000
   17       -5.901492     -5.907121   1.000000   1.000000
   18       -4.712111     -4.728611   1.000000   1.000000
   19       -4.631704     -4.632309   1.000000   1.000000
   20       -4.470606     -4.473115   1.000000   1.000000
   21       -4.352785     -4.353836   1.000000   1.000000
   22       -0.704696     -0.704103   1.000000   1.000000
   23       -0.437341     -0.444521   1.000000   1.000000
   24       -0.008837     -0.006994   1.000000   1.000000
   25        0.484064      0.471616   1.000000   1.000000
   26        2.172492      2.151041   0.000000   0.000000
   27        2.326725      2.317457   0.000000   0.000000
   28        2.433787      2.433187   0.000000   0.000000
   29        2.652636      2.655135   0.000000   0.000000
   30        8.370596      8.367796   0.000000   0.000000
   31       10.174519     10.176346   0.000000   0.000000
   32       10.545048     10.534361   0.000000   0.000000
   33       11.140726     11.153371   0.000000   0.000000
   34       11.958945     11.953149   0.000000   0.000000
 
 -0.1250000E+00  0.1428571E+00 -0.2630986E-14  0.1020408E-01
    1      -43.622916    -43.622248   1.000000   1.000000
    2      -27.247217    -27.256096   1.000000   1.000000
    3      -26.208546    -26.197530   1.000000   1.000000
    4      -26.132761    -26.126559   1.000000   1.000000
    5      -25.534261    -25.554149   1.000000   1.000000
    6      -13.777686    -13.778905   1.000000   1.000000
    7      -13.001622    -13.012465   1.000000   1.000000
    8      -12.925012    -12.926467   1.000000   1.000000
    9      -12.099841    -12.103540   1.000000   1.000000
   10       -8.461221     -8.462178   1.000000   1.000000
   11       -8.171172     -8.176832   1.000000   1.000000
   12       -7.582753     -7.579151   1.000000   1.000000
   13       -7.394868     -7.395892   1.000000   1.000000
   14       -6.947655     -6.958030   1.000000   1.000000
   15       -6.391139     -6.404593   1.000000   1.000000
   16       -6.169813     -6.159099   1.000000   1.000000
   17       -5.883037     -5.890812   1.000000   1.000000
   18       -4.710953     -4.727177   1.000000   1.000000
   19       -4.644269     -4.645534   1.000000   1.000000
   20       -4.482375     -4.484637   1.000000   1.000000
   21       -4.363540     -4.364422   1.000000   1.000000
   22       -0.758842     -0.758791   1.000000   1.000000
   23       -0.555475     -0.563516   1.000000   1.000000
   24       -0.007386     -0.004116   1.000000   1.000000
   25        0.616810      0.604447   1.000000   1.000000
   26        2.180070      2.157578   0.000000   0.000000
   27        2.347995      2.339444   0.000000   0.000000
   28        2.440936      2.440507   0.000000   0.000000
   29        2.671505      2.674150   0.000000   0.000000
   30        9.095187      9.091265   0.000000   0.000000
   31        9.929919      9.926323   0.000000   0.000000
   32       10.256518     10.256923   0.000000   0.000000
   33       11.021695     11.023755   0.000000   0.000000
   34       12.345767     12.608676   0.000000   0.000000
 
 -0.1647283E-17  0.2857143E+00 -0.5473381E-14  0.1020408E-01
    1      -43.622942    -43.622275   1.000000   1.000000
    2      -27.228554    -27.237896   1.000000   1.000000
    3      -26.246675    -26.233406   1.000000   1.000000
    4      -26.100965    -26.096141   1.000000   1.000000
    5      -25.554402    -25.574700   1.000000   1.000000
    6      -13.640845    -13.640984   1.000000   1.000000
    7      -13.092131    -13.099863   1.000000   1.000000
    8      -12.971110    -12.977597   1.000000   1.000000
    9      -12.124563    -12.127357   1.000000   1.000000
   10       -8.375566     -8.377429   1.000000   1.000000
   11       -8.065361     -8.069540   1.000000   1.000000
   12       -7.576624     -7.576459   1.000000   1.000000
   13       -7.372559     -7.372491   1.000000   1.000000
   14       -6.950989     -6.958718   1.000000   1.000000
   15       -6.332585     -6.339527   1.000000   1.000000
   16       -6.074383     -6.066508   1.000000   1.000000
   17       -5.927185     -5.938026   1.000000   1.000000
   18       -5.030822     -5.044734   1.000000   1.000000
   19       -4.729749     -4.733523   1.000000   1.000000
   20       -4.582924     -4.586291   1.000000   1.000000
   21       -4.337538     -4.338602   1.000000   1.000000
   22       -0.695118     -0.697957   1.000000   1.000000
   23       -0.333846     -0.337484   1.000000   1.000000
   24        0.087479      0.088162   1.000000   1.000000
   25        0.635373      0.628319   1.000000   1.000000
   26        1.830919      1.808658   0.002054   0.029950
   27        2.308140      2.297696   0.000000   0.000000
   28        2.407450      2.405202   0.000000   0.000000
   29        2.637496      2.639271   0.000000   0.000000
   30        9.386848      9.379084   0.000000   0.000000
   31        9.692200      9.697915   0.000000   0.000000
   32       10.089606     10.082283   0.000000   0.000000
   33       11.574489     11.576678   0.000000   0.000000
   34       12.651790     12.263191   0.000000   0.000000
 
  0.1250000E+00  0.2857143E+00 -0.2985648E-14  0.1020408E-01
    1      -43.622931    -43.622263   1.000000   1.000000
    2      -27.229162    -27.238482   1.000000   1.000000
    3      -26.245131    -26.232067   1.000000   1.000000
    4      -26.101050    -26.096049   1.000000   1.000000
    5      -25.555209    -25.575501   1.000000   1.000000
    6      -13.624804    -13.625706   1.000000   1.000000
    7      -13.139824    -13.137835   1.000000   1.000000
    8      -12.941933    -12.958096   1.000000   1.000000
    9      -12.116808    -12.118951   1.000000   1.000000
   10       -8.389778     -8.391623   1.000000   1.000000
   11       -8.043378     -8.047311   1.000000   1.000000
   12       -7.641807     -7.642778   1.000000   1.000000
   13       -7.401137     -7.399780   1.000000   1.000000
   14       -6.939843     -6.948689   1.000000   1.000000
   15       -6.222111     -6.226235   1.000000   1.000000
   16       -6.040994     -6.034630   1.000000   1.000000
   17       -5.986908     -5.998198   1.000000   1.000000
   18       -5.054695     -5.068843   1.000000   1.000000
   19       -4.721318     -4.724619   1.000000   1.000000
   20       -4.575690     -4.579278   1.000000   1.000000
   21       -4.344388     -4.345634   1.000000   1.000000