       N       E                     dE             d eps       ncg     rms          rms(c)
DAV:   1     0.367002577638E+03    0.36700E+03   -0.28531E+04 15776   0.148E+03
DAV:   2    -0.188420194275E+02   -0.38584E+03   -0.37248E+03 20104   0.359E+02
DAV:   3    -0.432050871797E+02   -0.24363E+02   -0.24129E+02 23070   0.910E+01
DAV:   4    -0.441033406962E+02   -0.89825E+00   -0.89371E+00 26328   0.125E+01
DAV:   5    -0.441697364120E+02   -0.66396E-01   -0.66392E-01 21230   0.172E+00    0.150E+01
RMM:   6    -0.444344474009E+02   -0.26471E+00   -0.36753E+00 18105   0.101E+01    0.117E+01
RMM:   7    -0.437131951733E+02    0.72125E+00   -0.13306E+00 17699   0.639E+00    0.596E+00
RMM:   8    -0.435329869030E+02    0.18021E+00   -0.66010E-01 18100   0.466E+00    0.490E+00
RMM:   9    -0.434120628200E+02    0.12092E+00   -0.24353E-01 18507   0.282E+00    0.287E+00
RMM:  10    -0.433880564540E+02    0.24006E-01   -0.83877E-02 18959   0.172E+00    0.755E-01
RMM:  11    -0.433920237501E+02   -0.39673E-02   -0.17396E-02 21258   0.835E-01    0.329E-01
RMM:  12    -0.433933399717E+02   -0.13162E-02   -0.51746E-03 23425   0.428E-01    0.951E-02
RMM:  13    -0.433935744665E+02   -0.23449E-03   -0.15106E-03 25706   0.213E-01    0.441E-02
RMM:  14    -0.433936964553E+02   -0.12199E-03   -0.67666E-04 26225   0.136E-01    0.205E-02
RMM:  15    -0.433937376402E+02   -0.41185E-04   -0.29030E-04 25445   0.788E-02    0.133E-02
RMM:  16    -0.433937556839E+02   -0.18044E-04   -0.12740E-04 21423   0.528E-02    0.709E-03
RMM:  17    -0.433937609454E+02   -0.52615E-05   -0.42065E-05 16600   0.371E-02
   1 F= -.43393761E+02 E0= -.43393761E+02  d E =0.000000E+00  mag=    -0.0203
