 running on   24 total cores
 distrk:  each k-point on   24 cores,    1 groups
 distr:  one band on    6 cores,    4 groups
 using from now: INCAR     
 vasp.6.1.2 22Jul20 (build Mar 31 2021 18:09:49) complex                        
  
 POSCAR found type information on POSCAR LiP 
 POSCAR found :  2 types and       8 ions
 scaLAPACK will be used
 -----------------------------------------------------------------------------
|                                                                             |
|               ----> ADVICE to this user running VASP <----                  |
|                                                                             |
|     You have a (more or less) 'small supercell' and for smaller cells       |
|     it is recommended to use the reciprocal-space projection scheme!        |
|     The real-space optimization is not efficient for small cells and it     |
|     is also less accurate ...                                               |
|     Therefore, set LREAL=.FALSE. in the INCAR file.                         |
|                                                                             |
 -----------------------------------------------------------------------------

 LDA part: xc-table for Pade appr. of Perdew
 generate k-points for:    9    9    4
 POSCAR, INCAR and KPOINTS ok, starting setup
 FFT: planning ...
 WAVECAR not read
 entering main loop
       N       E                     dE             d eps       ncg     rms          rms(c)
DAV:   1     0.158472233639E+03    0.15847E+03   -0.11730E+04  9120   0.118E+03
DAV:   2     0.199572983221E+01   -0.15648E+03   -0.14797E+03  9952   0.300E+02
DAV:   3    -0.235902394666E+02   -0.25586E+02   -0.25348E+02 16384   0.698E+01
DAV:   4    -0.262832231371E+02   -0.26930E+01   -0.26732E+01 13464   0.308E+01
DAV:   5    -0.264850907710E+02   -0.20187E+00   -0.20185E+00 14560   0.668E+00    0.149E+01
RMM:   6    -0.269480949853E+02   -0.46300E+00   -0.16327E+00 11154   0.633E+00    0.755E+00
RMM:   7    -0.276513245951E+02   -0.70323E+00   -0.49943E-01 12661   0.429E+00    0.284E+00
RMM:   8    -0.277209607486E+02   -0.69636E-01   -0.38374E-01 14422   0.286E+00    0.118E+00
RMM:   9    -0.277297179815E+02   -0.87572E-02   -0.97303E-02 15196   0.170E+00    0.516E-01
RMM:  10    -0.277381044236E+02   -0.83864E-02   -0.43533E-02 15917   0.103E+00    0.265E-01
RMM:  11    -0.277403421872E+02   -0.22378E-02   -0.16454E-02 16261   0.601E-01    0.196E-01
RMM:  12    -0.277411610009E+02   -0.81881E-03   -0.63879E-03 15921   0.455E-01    0.524E-02
RMM:  13    -0.277417706171E+02   -0.60962E-03   -0.35647E-03 16333   0.280E-01    0.183E-02
RMM:  14    -0.277420023909E+02   -0.23177E-03   -0.19015E-03 15981   0.185E-01    0.224E-02
RMM:  15    -0.277421063709E+02   -0.10398E-03   -0.89711E-04 14311   0.125E-01    0.199E-02
RMM:  16    -0.277421617979E+02   -0.55427E-04   -0.49066E-04 14215   0.919E-02    0.288E-02
RMM:  17    -0.277421830596E+02   -0.21262E-04   -0.27848E-04 13838   0.760E-02    0.151E-02
RMM:  18    -0.277422018210E+02   -0.18761E-04   -0.17610E-04 13231   0.568E-02    0.129E-02
RMM:  19    -0.277422120864E+02   -0.10265E-04   -0.11127E-04 11859   0.463E-02    0.102E-02
RMM:  20    -0.277422182142E+02   -0.61278E-05   -0.64855E-05 10739   0.388E-02
   1 F= -.27742218E+02 E0= -.27742218E+02  d E =0.000000E+00  mag=    -0.0001
