 running on   24 total cores
 distrk:  each k-point on   24 cores,    1 groups
 distr:  one band on    6 cores,    4 groups
 using from now: INCAR     
 vasp.6.1.2 22Jul20 (build Mar 31 2021 18:09:49) complex                        
  
 POSCAR found type information on POSCAR LiO 
 POSCAR found :  2 types and       8 ions
 scaLAPACK will be used
 -----------------------------------------------------------------------------
|                                                                             |
|               ----> ADVICE to this user running VASP <----                  |
|                                                                             |
|     You have a (more or less) 'small supercell' and for smaller cells       |
|     it is recommended to use the reciprocal-space projection scheme!        |
|     The real-space optimization is not efficient for small cells and it     |
|     is also less accurate ...                                               |
|     Therefore, set LREAL=.FALSE. in the INCAR file.                         |
|                                                                             |
 -----------------------------------------------------------------------------

 LDA part: xc-table for Pade appr. of Perdew
 generate k-points for:   12   12    4
 POSCAR, INCAR and KPOINTS ok, starting setup
 FFT: planning ...
 WAVECAR not read
 entering main loop
       N       E                     dE             d eps       ncg     rms          rms(c)
DAV:   1     0.254329788490E+03    0.25433E+03   -0.17347E+04 18368   0.137E+03
DAV:   2    -0.144540001041E+02   -0.26878E+03   -0.25835E+03 21964   0.348E+02
DAV:   3    -0.375491180402E+02   -0.23095E+02   -0.22904E+02 29552   0.849E+01
DAV:   4    -0.392541819884E+02   -0.17051E+01   -0.16978E+01 27340   0.215E+01
DAV:   5    -0.392998725103E+02   -0.45691E-01   -0.45687E-01 25884   0.311E+00    0.178E+01
RMM:   6    -0.381858486801E+02    0.11140E+01   -0.44991E+00 20447   0.109E+01    0.783E+00
RMM:   7    -0.387930752768E+02   -0.60723E+00   -0.68027E-01 23088   0.507E+00    0.389E+00
RMM:   8    -0.388708922968E+02   -0.77817E-01   -0.30811E-01 27072   0.315E+00    0.156E+00
WARNING in EDDRMM: call to ZHEGV failed, returncode =   6  3      4
RMM:   9    -0.388815445022E+02   -0.10652E-01   -0.10520E-01 28752   0.204E+00    0.384E-01
RMM:  10    -0.388910632585E+02   -0.95188E-02   -0.53837E-02 32326   0.115E+00    0.187E-01
RMM:  11    -0.388948791715E+02   -0.38159E-02   -0.20726E-02 33049   0.668E-01    0.127E-01
RMM:  12    -0.388961847813E+02   -0.13056E-02   -0.86808E-03 34267   0.400E-01    0.916E-02
RMM:  13    -0.388965994621E+02   -0.41468E-03   -0.32273E-03 32821   0.273E-01    0.378E-02
RMM:  14    -0.388968605145E+02   -0.26105E-03   -0.16366E-03 33386   0.190E-01    0.911E-03
RMM:  15    -0.388969512965E+02   -0.90782E-04   -0.75133E-04 31576   0.112E-01    0.939E-03
RMM:  16    -0.388969856146E+02   -0.34318E-04   -0.31203E-04 30382   0.738E-02    0.615E-03
RMM:  17    -0.388969988315E+02   -0.13217E-04   -0.12482E-04 28220   0.510E-02    0.331E-03
RMM:  18    -0.388970031089E+02   -0.42774E-05   -0.44169E-05 24055   0.372E-02
   1 F= -.38897003E+02 E0= -.38897003E+02  d E =0.000000E+00  mag=    -0.0000
