    8    8    1    2
  0.1352846E+02  0.3896990E-09  0.4235858E-09  0.7570718E-09  0.5000000E-15
  1.000000000000000E-004
  CAR 
 unknown system                          
     28    123     22
 
  0.0000000E+00  0.0000000E+00  0.0000000E+00  0.3086420E-02
    1      -42.382117    -42.381769   1.000000   1.000000
    2      -42.355477    -42.355128   1.000000   1.000000
    3      -42.340478    -42.340128   1.000000   1.000000
    4      -42.314425    -42.314074   1.000000   1.000000
    5      -41.857527    -41.856977   1.000000   1.000000
    6      -41.857428    -41.856878   1.000000   1.000000
    7       -6.435804     -6.435960   1.000000   1.000000
    8       -6.060022     -6.060141   1.000000   1.000000
    9       -0.508963     -0.509040   1.000000   1.000000
   10        2.267307      2.267231   1.000000   1.000000
   11        2.573671      2.573548   1.000000   1.000000
   12        2.969109      2.969045   1.000000   1.000000
   13        2.981186      2.981057   1.000000   1.000000
   14        3.360142      3.360068   1.000000   1.000000
   15        5.370652      5.370486   0.000000   0.000000
   16        6.695131      6.694987   0.000000   0.000000
   17        6.698778      6.698492   0.000000   0.000000
   18        7.430029      7.429871   0.000000   0.000000
   19        7.511777      7.511711   0.000000   0.000000
   20        8.227226      8.227211   0.000000   0.000000
   21        8.427404      8.427561   0.000000   0.000000
   22        8.476078      8.475009   0.000000   0.000000
 
  0.1111111E+00  0.9003172E-17  0.0000000E+00  0.6172840E-02
    1      -42.380579    -42.380232   1.000000   1.000000
    2      -42.354211    -42.353862   1.000000   1.000000
    3      -42.341430    -42.341080   1.000000   1.000000
    4      -42.315608    -42.315257   1.000000   1.000000
    5      -41.857691    -41.857141   1.000000   1.000000
    6      -41.857520    -41.856970   1.000000   1.000000
    7       -6.372253     -6.372410   1.000000   1.000000
    8       -6.009776     -6.009861   1.000000   1.000000
    9       -0.405209     -0.405288   1.000000   1.000000
   10        2.239901      2.239789   1.000000   1.000000
   11        2.273981      2.273902   1.000000   1.000000
   12        2.443705      2.443617   1.000000   1.000000
   13        2.776640      2.776544   1.000000   1.000000
   14        2.945294      2.945224   1.000000   1.000000
   15        5.441763      5.441602   0.000000   0.000000
   16        6.737922      6.737752   0.000000   0.000000
   17        7.012025      7.011775   0.000000   0.000000
   18        7.595707      7.595344   0.000000   0.000000
   19        7.920562      7.921350   0.000000   0.000000
   20        8.148599      8.150142   0.000000   0.000000
   21        8.699489      8.698157   0.000000   0.000000
   22        8.885602      8.875654   0.000000   0.000000
 
  0.2222222E+00 -0.1761277E-16  0.0000000E+00  0.6172840E-02
    1      -42.376305    -42.375958   1.000000   1.000000
    2      -42.350504    -42.350155   1.000000   1.000000
    3      -42.344280    -42.343931   1.000000   1.000000
    4      -42.318960    -42.318609   1.000000   1.000000
    5      -41.858014    -41.857463   1.000000   1.000000
    6      -41.857808    -41.857257   1.000000   1.000000
    7       -6.195937     -6.196097   1.000000   1.000000
    8       -5.876809     -5.876965   1.000000   1.000000
    9       -0.097496     -0.097581   1.000000   1.000000
   10        1.386944      1.386849   1.000000   1.000000
   11        1.692883      1.692792   1.000000   1.000000
   12        1.899023      1.898922   1.000000   1.000000
   13        2.261722      2.261633   1.000000   1.000000
   14        2.469195      2.469132   1.000000   1.000000
   15        5.510911      5.510725   0.000000   0.000000
   16        6.917041      6.927128   0.000000   0.000000
   17        6.950411      6.950120   0.000000   0.000000
   18        7.322123      7.321896   0.000000   0.000000
   19        7.527290      7.526750   0.000000   0.000000
   20        8.723131      8.724582   0.000000   0.000000
   21        9.015517      9.018191   0.000000   0.000000
   22        9.048575      9.048361   0.000000   0.000000
 
  0.3333333E+00  0.2567572E-16  0.0000000E+00  0.6172840E-02
    1      -42.370052    -42.369704   1.000000   1.000000
    2      -42.348863    -42.348515   1.000000   1.000000
    3      -42.345008    -42.344658   1.000000   1.000000
    4      -42.324145    -42.323794   1.000000   1.000000
    5      -41.858450    -41.857899   1.000000   1.000000
    6      -41.858099    -41.857548   1.000000   1.000000
    7       -5.956679     -5.956850   1.000000   1.000000
    8       -5.718611     -5.718792   1.000000   1.000000
    9        0.396859      0.396767   1.000000   1.000000
   10        0.441702      0.441624   1.000000   1.000000
   11        1.028977      1.028875   1.000000   1.000000
   12        1.226056      1.225970   1.000000   1.000000
   13        2.070591      2.070531   1.000000   1.000000
   14        2.118943      2.118842   1.000000   1.000000
   15        5.602072      5.601848   0.000000   0.000000
   16        5.676316      5.675471   0.000000   0.000000
   17        6.927730      6.927495   0.000000   0.000000
   18        7.107706      7.107448   0.000000   0.000000
   19        7.750964      7.750738   0.000000   0.000000
   20        8.987774      8.987652   0.000000   0.000000
   21       10.228147     10.209357   0.000000   0.000000
   22       10.414361     10.443195   0.000000   0.000000
 
  0.4444444E+00 -0.3522555E-16  0.0000000E+00  0.6172840E-02
    1      -42.363224    -42.362877   1.000000   1.000000
    2      -42.354623    -42.354275   1.000000   1.000000
    3      -42.338708    -42.338358   1.000000   1.000000
    4      -42.330239    -42.329888   1.000000   1.000000
    5      -41.858738    -41.858187   1.000000   1.000000
    6      -41.858292    -41.857741   1.000000   1.000000
    7       -5.755216     -5.755395   1.000000   1.000000
    8       -5.626186     -5.626371   1.000000   1.000000
    9       -0.113128     -0.113196   1.000000   1.000000
   10        0.511981      0.511882   1.000000   1.000000
   11        0.977538      0.977454   1.000000   1.000000
   12        1.014789      1.014686   1.000000   1.000000
   13        1.713562      1.713454   1.000000   1.000000
   14        1.848142      1.848084   1.000000   1.000000
   15        5.039219      5.039059   0.000000   0.000000
   16        5.686247      5.686009   0.000000   0.000000
   17        6.621474      6.621270   0.000000   0.000000
   18        7.203659      7.203413   0.000000   0.000000
   19        8.161018      8.160785   0.000000   0.000000
   20        8.840918      8.840833   0.000000   0.000000
   21        9.686441      9.686341   0.000000   0.000000
   22       11.227083     11.227314   0.000000   0.000000
 
  0.1026350E-16  0.1111111E+00  0.0000000E+00  0.6172840E-02
    1      -42.381042    -42.380694   1.000000   1.000000
    2      -42.354578    -42.354229   1.000000   1.000000
    3      -42.341171    -42.340821   1.000000   1.000000
    4      -42.315290    -42.314938   1.000000   1.000000
    5      -41.857665    -41.857115   1.000000   1.000000
    6      -41.857515    -41.856965   1.000000   1.000000
    7       -6.388042     -6.388198   1.000000   1.000000
    8       -6.026409     -6.026549   1.000000   1.000000
    9       -0.421613     -0.421692   1.000000   1.000000
   10        2.015774      2.015652   1.000000   1.000000
   11        2.251062      2.250985   1.000000   1.000000
   12        2.528171      2.528069   1.000000   1.000000
   13        2.750449      2.750331   1.000000   1.000000
   14        3.269268      3.269186   1.000000   1.000000
   15        5.527395      5.527223   0.000000   0.000000
   16        6.953430      6.953289   0.000000   0.000000
   17        7.505979      7.505876   0.000000   0.000000
   18        7.626741      7.627826   0.000000   0.000000
   19        7.723842      7.723713   0.000000   0.000000
   20        7.766821      7.766647   0.000000   0.000000
   21        8.487880      8.487588   0.000000   0.000000
   22        8.691954      8.705062   0.000000   0.000000
 
  0.1111111E+00  0.1111111E+00  0.0000000E+00  0.6172840E-02
    1      -42.378342    -42.377994   1.000000   1.000000
    2      -42.352318    -42.351969   1.000000   1.000000
    3      -42.342894    -42.342544   1.000000   1.000000
    4      -42.317357    -42.317006   1.000000   1.000000
    5      -41.857855    -41.857305   1.000000   1.000000
    6      -41.857724    -41.857174   1.000000   1.000000
    7       -6.276439     -6.276597   1.000000   1.000000
    8       -5.943654     -5.943788   1.000000   1.000000
    9       -0.224579     -0.224661   1.000000   1.000000
   10        1.459156      1.459035   1.000000   1.000000
   11        1.847507      1.847404   1.000000   1.000000
   12        2.234056      2.233973   1.000000   1.000000
   13        2.325165      2.325064   1.000000   1.000000
   14        2.826226      2.826187   1.000000   1.000000
   15        5.669350      5.669196   0.000000   0.000000
   16        6.836833      6.836269   0.000000   0.000000
   17        7.351991      7.351681   0.000000   0.000000
   18        7.574834      7.574620   0.000000   0.000000
   19        8.093029      8.093520   0.000000   0.000000
   20        8.289074      8.289464   0.000000   0.000000
   21        8.441075      8.441224   0.000000   0.000000
   22        9.433063      9.413584   0.000000   0.000000
 
  0.2222222E+00  0.1111111E+00  0.0000000E+00  0.6172840E-02
    1      -42.373280    -42.372933   1.000000   1.000000
    2      -42.347928    -42.347579   1.000000   1.000000
    3      -42.346446    -42.346097   1.000000   1.000000
    4      -42.321455    -42.321104   1.000000   1.000000
    5      -41.858259    -41.857708   1.000000   1.000000
    6      -41.858018    -41.857467   1.000000   1.000000
    7       -6.071506     -6.071670   1.000000   1.000000
    8       -5.799997     -5.800169   1.000000   1.000000
    9        0.169892      0.169804   1.000000   1.000000
   10        0.909096      0.908980   1.000000   1.000000
   11        0.980391      0.980294   1.000000   1.000000
   12        1.584240      1.584133   1.000000   1.000000
   13        2.175335      2.175241   1.000000   1.000000
   14        2.214639      2.214592   1.000000   1.000000
   15        5.713726      5.713911   0.000000   0.000000
   16        5.880742      5.880513   0.000000   0.000000
   17        7.502992      7.502741   0.000000   0.000000
   18        7.596081      7.595837   0.000000   0.000000
   19        7.783143      7.782904   0.000000   0.000000
   20        9.366352      9.365300   0.000000   0.000000
   21        9.420296      9.420223   0.000000   0.000000
   22        9.727950      9.728396   0.000000   0.000000
 
  0.3333333E+00  0.1111111E+00  0.0000000E+00  0.6172840E-02
    1      -42.366725    -42.366377   1.000000   1.000000
    2      -42.351565    -42.351216   1.000000   1.000000
    3      -42.341999    -42.341650   1.000000   1.000000
    4      -42.327064    -42.326713   1.000000   1.000000
    5      -41.858640    -41.858089   1.000000   1.000000
    6      -41.858219    -41.857668   1.000000   1.000000
    7       -5.841087     -5.841261   1.000000   1.000000
    8       -5.666746     -5.666928   1.000000   1.000000
    9        0.171465      0.171387   1.000000   1.000000
   10        0.620859      0.620731   1.000000   1.000000
   11        0.728968      0.728871   1.000000   1.000000
   12        0.951205      0.951123   1.000000   1.000000
   13        1.838055      1.838007   1.000000   1.000000
   14        1.956875      1.956769   1.000000   1.000000
   15        4.796308      4.796275   0.000000   0.000000
   16        6.052987      6.052761   0.000000   0.000000
   17        7.271010      7.270768   0.000000   0.000000
   18        7.592866      7.592621   0.000000   0.000000
   19        8.096358      8.096131   0.000000   0.000000
   20        9.065162      9.065056   0.000000   0.000000
   21       10.041287     10.040724   0.000000   0.000000
   22       10.506699     10.502957   0.000000   0.000000
 
  0.4444444E+00  0.1111111E+00  0.0000000E+00  0.6172840E-02
    1      -42.360663    -42.360315   1.000000   1.000000
    2      -42.357021    -42.356673   1.000000   1.000000
    3      -42.336201    -42.335851   1.000000   1.000000
    4      -42.332712    -42.332361   1.000000   1.000000
    5      -41.858781    -41.858230   1.000000   1.000000
    6      -41.858342    -41.857792   1.000000   1.000000
    7       -5.709301     -5.709481   1.000000   1.000000
    8       -5.620010     -5.620195   1.000000   1.000000
    9       -0.135122     -0.135189   1.000000   1.000000
   10        0.427443      0.427335   1.000000   1.000000
   11        0.768792      0.768699   1.000000   1.000000
   12        1.275013      1.274907   1.000000   1.000000
   13        1.554172      1.554064   1.000000   1.000000
   14        1.715842      1.715790   1.000000   1.000000
   15        4.486563      4.486525   0.000000   0.000000
   16        6.113482      6.113248   0.000000   0.000000
   17        7.143945      7.143733   0.000000   0.000000
   18        7.596790      7.596544   0.000000   0.000000
   19        8.310645      8.310412   0.000000   0.000000
   20        8.861662      8.861593   0.000000   0.000000
   21        9.573743      9.571973   0.000000   0.000000
   22       10.978808     10.732215   0.000000   0.000000
 
 -0.4444444E+00  0.1111111E+00  0.0000000E+00  0.6172840E-02
    1      -42.365580    -42.365232   1.000000   1.000000
    2      -42.352543    -42.352195   1.000000   1.000000
    3      -42.340934    -42.340584   1.000000   1.000000
    4      -42.328074    -42.327723   1.000000   1.000000
    5      -41.858667    -41.858116   1.000000   1.000000
    6      -41.858244    -41.857693   1.000000   1.000000
    7       -5.813578     -5.813755   1.000000   1.000000
    8       -5.644830     -5.645014   1.000000   1.000000
    9        0.109842      0.109775   1.000000   1.000000
   10        0.561914      0.561832   1.000000   1.000000
   11        0.780201      0.780102   1.000000   1.000000
   12        0.996898      0.996784   1.000000   1.000000
   13        1.834630      1.834572   1.000000   1.000000
   14        1.939468      1.939362   1.000000   1.000000
   15        4.865909      4.865854   0.000000   0.000000
   16        6.018465      6.018239   0.000000   0.000000
   17        7.170915      7.170718   0.000000   0.000000
   18        7.479348      7.479093   0.000000   0.000000
   19        8.007326      8.007090   0.000000   0.000000
   20        8.978415      8.978307   0.000000   0.000000
   21        9.899480      9.936645   0.000000   0.000000
   22       10.255238     10.341358   0.000000   0.000000
 
 -0.3333333E+00  0.1111111E+00  0.0000000E+00  0.6172840E-02
    1      -42.372233    -42.371885   1.000000   1.000000
    2      -42.347162    -42.346813   1.000000   1.000000
    3      -42.346975    -42.346626   1.000000   1.000000
    4      -42.322286    -42.321935   1.000000   1.000000
    5      -41.858308    -41.857758   1.000000   1.000000
    6      -41.857994    -41.857443   1.000000   1.000000
    7       -6.037334     -6.037502   1.000000   1.000000
    8       -5.766912     -5.767091   1.000000   1.000000
    9        0.211340      0.211251   1.000000   1.000000
   10        0.828804      0.828726   1.000000   1.000000
   11        1.005121      1.005050   1.000000   1.000000
   12        1.565226      1.565105   1.000000   1.000000
   13        2.163047      2.162980   1.000000   1.000000
   14        2.200258      2.200163   1.000000   1.000000
   15        5.824856      5.824654   0.000000   0.000000
   16        5.861908      5.862188   0.000000   0.000000
   17        7.242826      7.242550   0.000000   0.000000
   18        7.439427      7.439175   0.000000   0.000000
   19        7.457970      7.457758   0.000000   0.000000
   20        9.036582      9.036262   0.000000   0.000000
   21        9.071971      9.071834   0.000000   0.000000
   22        9.401258      9.401111   0.000000   0.000000
 
 -0.2222222E+00  0.1111111E+00  0.0000000E+00  0.6172840E-02
    1      -42.377671    -42.377323   1.000000   1.000000
    2      -42.351693    -42.351343   1.000000   1.000000
    3      -42.343335    -42.342985   1.000000   1.000000
    4      -42.317905    -42.317554   1.000000   1.000000
    5      -41.857946    -41.857395   1.000000   1.000000
    6      -41.857706    -41.857156   1.000000   1.000000
    7       -6.250732     -6.250893   1.000000   1.000000
    8       -5.916673     -5.916838   1.000000   1.000000
    9       -0.198336     -0.198418   1.000000   1.000000
   10        1.611513      1.611420   1.000000   1.000000
   11        1.815720      1.815636   1.000000   1.000000
   12        2.256294      2.256189   1.000000   1.000000
   13        2.270514      2.270431   1.000000   1.000000
   14        2.623459      2.623379   1.000000   1.000000
   15        5.592725      5.592550   0.000000   0.000000
   16        6.940588      6.940302   0.000000   0.000000
   17        6.974115      6.973868   0.000000   0.000000
   18        7.188228      7.175146   0.000000   0.000000
   19        8.122270      8.122055   0.000000   0.000000
   20        8.249112      8.248960   0.000000   0.000000
   21        8.457794      8.457673   0.000000   0.000000
   22        8.782842      8.781832   0.000000   0.000000
 
 -0.1111111E+00  0.1111111E+00  0.0000000E+00  0.6172840E-02
    1      -42.380768    -42.380421   1.000000   1.000000
    2      -42.354337    -42.353988   1.000000   1.000000
    3      -42.341303    -42.340953   1.000000   1.000000
    4      -42.315467    -42.315116   1.000000   1.000000
    5      -41.857672    -41.857122   1.000000   1.000000
    6      -41.857497    -41.856947   1.000000   1.000000
    7       -6.378646     -6.378803   1.000000   1.000000
    8       -6.016246     -6.016381   1.000000   1.000000
    9       -0.412579     -0.412658   1.000000   1.000000
   10        2.214934      2.214813   1.000000   1.000000
   11        2.267075      2.266998   1.000000   1.000000
   12        2.464748      2.464662   1.000000   1.000000
   13        2.725336      2.725224   1.000000   1.000000
   14        3.057520      3.057475   1.000000   1.000000
   15        5.481676      5.481509   0.000000   0.000000
   16        6.776119      6.775951   0.000000   0.000000
   17        7.037098      7.040124   0.000000   0.000000
   18        7.765592      7.766070   0.000000   0.000000
   19        8.010405      8.012041   0.000000   0.000000
   20        8.021850      8.019448   0.000000   0.000000
   21        8.493695      8.461544   0.000000   0.000000
   22        8.714230      8.744444   0.000000   0.000000
 
  0.9512919E-17  0.2222222E+00  0.0000000E+00  0.6172840E-02
    1      -42.378052    -42.377704   1.000000   1.000000
    2      -42.352056    -42.351707   1.000000   1.000000
    3      -42.343193    -42.342843   1.000000   1.000000
    4      -42.317657    -42.317305   1.000000   1.000000
    5      -41.857953    -41.857403   1.000000   1.000000
    6      -41.857805    -41.857255   1.000000   1.000000
    7       -6.256513     -6.256671   1.000000   1.000000
    8       -5.940089     -5.940240   1.000000   1.000000
    9       -0.162907     -0.162989   1.000000   1.000000
   10        1.040367      1.040241   1.000000   1.000000
   11        1.659096      1.658963   1.000000   1.000000
   12        2.162883      2.162800   1.000000   1.000000
   13        2.335206      2.335100   1.000000   1.000000
   14        3.011227      3.011144   1.000000   1.000000
   15        5.759398      5.759219   0.000000   0.000000
   16        6.428573      6.427888   0.000000   0.000000
   17        7.641663      7.641576   0.000000   0.000000
   18        7.823884      7.823834   0.000000   0.000000
   19        8.379868      8.381614   0.000000   0.000000
   20        8.715572      8.716706   0.000000   0.000000
   21        8.824912      8.832368   0.000000   0.000000
   22        9.399186      9.398005   0.000000   0.000000
 
  0.1111111E+00  0.2222222E+00  0.0000000E+00  0.6172840E-02
    1      -42.374688    -42.374341   1.000000   1.000000
    2      -42.349216    -42.348866   1.000000   1.000000
    3      -42.345466    -42.345117   1.000000   1.000000
    4      -42.320298    -42.319947   1.000000   1.000000
    5      -41.858170    -41.857620   1.000000   1.000000
    6      -41.858014    -41.857463   1.000000   1.000000
    7       -6.117595     -6.117756   1.000000   1.000000
    8       -5.848711     -5.848881   1.000000   1.000000
    9        0.120215      0.120128   1.000000   1.000000
   10        0.579493      0.579370   1.000000   1.000000
   11        1.113948      1.113820   1.000000   1.000000
   12        1.873181      1.873075   1.000000   1.000000
   13        2.077284      2.077194   1.000000   1.000000
   14        2.585432      2.585364   1.000000   1.000000
   15        5.707447      5.707335   0.000000   0.000000
   16        6.109877      6.109696   0.000000   0.000000
   17        7.917362      7.917222   0.000000   0.000000
   18        7.989404      7.989230   0.000000   0.000000
   19        8.122835      8.122664   0.000000   0.000000
   20        8.839228      8.839069   0.000000   0.000000
   21        9.160179      9.159812   0.000000   0.000000
   22        9.320357      9.318007   0.000000   0.000000
 
  0.2222222E+00  0.2222222E+00  0.0000000E+00  0.6172840E-02
    1      -42.369483    -42.369136   1.000000   1.000000
    2      -42.349369    -42.349020   1.000000   1.000000
    3      -42.344590    -42.344240   1.000000   1.000000
    4      -42.324666    -42.324315   1.000000   1.000000
    5      -41.858510    -41.857959   1.000000   1.000000
    6      -41.858231    -41.857680   1.000000   1.000000
    7       -5.917592     -5.917760   1.000000   1.000000
    8       -5.727373     -5.727549   1.000000   1.000000
    9        0.307377      0.307259   1.000000   1.000000
   10        0.546052      0.545932   1.000000   1.000000
   11        0.583178      0.583085   1.000000   1.000000
   12        1.149773      1.149667   1.000000   1.000000
   13        1.968475      1.968376   1.000000   1.000000
   14        1.971445      1.971405   1.000000   1.000000
   15        4.696214      4.696136   0.000000   0.000000
   16        6.665986      6.665814   0.000000   0.000000
   17        7.857181      7.857031   0.000000   0.000000
   18        8.394677      8.394449   0.000000   0.000000
   19        8.498008      8.497747   0.000000   0.000000
   20        9.188612      9.189248   0.000000   0.000000
   21        9.567794      9.568087   0.000000   0.000000
   22        9.941720      9.970975   0.000000   0.000000
 
  0.3333333E+00  0.2222222E+00  0.0000000E+00  0.6172840E-02
    1      -42.363274    -42.362926   1.000000   1.000000
    2      -42.354628    -42.354279   1.000000   1.000000
    3      -42.338804    -42.338454   1.000000   1.000000
    4      -42.330248    -42.329898   1.000000   1.000000
    5      -41.858784    -41.858233   1.000000   1.000000
    6      -41.858364    -41.857813   1.000000   1.000000
    7       -5.734208     -5.734384   1.000000   1.000000
    8       -5.645931     -5.646112   1.000000   1.000000
    9        0.101798      0.101725   1.000000   1.000000
   10        0.308784      0.308639   1.000000   1.000000
   11        0.574276      0.574173   1.000000   1.000000
   12        1.152119      1.152017   1.000000   1.000000
   13        1.607689      1.607655   1.000000   1.000000
   14        1.755071      1.754962   1.000000   1.000000
   15        3.950553      3.950494   0.000000   0.000000
   16        7.074685      7.074460   0.000000   0.000000
   17        8.022466      8.022308   0.000000   0.000000
   18        8.511366      8.511177   0.000000   0.000000
   19        8.618008      8.617874   0.000000   0.000000
   20        9.178805      9.180168   0.000000   0.000000
   21        9.507989      9.495946   0.000000   0.000000
   22        9.931916      9.999155   0.000000   0.000000
 
  0.4444444E+00  0.2222222E+00  0.0000000E+00  0.6172840E-02
    1      -42.360833    -42.360485   1.000000   1.000000
    2      -42.356912    -42.356564   1.000000   1.000000
    3      -42.336419    -42.336069   1.000000   1.000000
    4      -42.332563    -42.332212   1.000000   1.000000
    5      -41.858817    -41.858266   1.000000   1.000000
    6      -41.858383    -41.857832   1.000000   1.000000
    7       -5.702376     -5.702555   1.000000   1.000000
    8       -5.626146     -5.626328   1.000000   1.000000
    9        0.045640      0.045583   1.000000   1.000000
   10        0.281803      0.281700   1.000000   1.000000
   11        0.577249      0.577114   1.000000   1.000000
   12        1.246602      1.246497   1.000000   1.000000
   13        1.584460      1.584416   1.000000   1.000000
   14        1.709071      1.708964   1.000000   1.000000
   15        3.953697      3.953639   0.000000   0.000000
   16        7.086199      7.085980   0.000000   0.000000
   17        7.980717      7.980569   0.000000   0.000000
   18        8.388403      8.388065   0.000000   0.000000
   19        8.516723      8.516460   0.000000   0.000000
   20        9.101667      9.108200   0.000000   0.000000
   21        9.446781      9.460569   0.000000   0.000000
   22        9.770193      9.782850   0.000000   0.000000
 
 -0.4444444E+00  0.2222222E+00  0.0000000E+00  0.6172840E-02
    1      -42.367195    -42.366848   1.000000   1.000000
    2      -42.351208    -42.350859   1.000000   1.000000
    3      -42.342442    -42.342092   1.000000   1.000000
    4      -42.326694    -42.326343   1.000000   1.000000
    5      -41.858642    -41.858091   1.000000   1.000000
    6      -41.858232    -41.857681   1.000000   1.000000
    7       -5.854039     -5.854214   1.000000   1.000000
    8       -5.670214     -5.670396   1.000000   1.000000
    9        0.313453      0.313386   1.000000   1.000000
   10        0.437478      0.437395   1.000000   1.000000
   11        0.676904      0.676808   1.000000   1.000000
   12        1.086907      1.086774   1.000000   1.000000
   13        1.859494      1.859434   1.000000   1.000000
   14        2.005301      2.005202   1.000000   1.000000
   15        4.724461      4.724384   0.000000   0.000000
   16        6.646163      6.645962   0.000000   0.000000
   17        7.718456      7.718327   0.000000   0.000000
   18        7.837442      7.837160   0.000000   0.000000
   19        8.068950      8.068681   0.000000   0.000000
   20        9.097849      9.098578   0.000000   0.000000
   21        9.300017      9.300518   0.000000   0.000000
   22        9.692408      9.726177   0.000000   0.000000
 
 -0.3333333E+00  0.2222222E+00  0.0000000E+00  0.6172840E-02
    1      -42.372918    -42.372570   1.000000   1.000000
    2      -42.347561    -42.347212   1.000000   1.000000
    3      -42.346685    -42.346336   1.000000   1.000000
    4      -42.321782    -42.321431   1.000000   1.000000
    5      -41.858276    -41.857726   1.000000   1.000000
    6      -41.858010    -41.857459   1.000000   1.000000
    7       -6.056337     -6.056505   1.000000   1.000000
    8       -5.786543     -5.786722   1.000000   1.000000
    9        0.188667      0.188579   1.000000   1.000000
   10        0.674125      0.674039   1.000000   1.000000
   11        1.101316      1.101240   1.000000   1.000000
   12        1.664014      1.663893   1.000000   1.000000
   13        2.160926      2.160837   1.000000   1.000000
   14        2.327599      2.327524   1.000000   1.000000
   15        5.851475      5.849364   0.000000   0.000000
   16        5.978962      5.978787   0.000000   0.000000
   17        7.355440      7.355190   0.000000   0.000000
   18        7.439941      7.439693   0.000000   0.000000
   19        7.680131      7.679931   0.000000   0.000000
   20        8.895636      8.895519   0.000000   0.000000
   21        9.010348      9.010069   0.000000   0.000000
   22        9.164616      9.164491   0.000000   0.000000
 
 -0.2222222E+00  0.2222222E+00  0.0000000E+00  0.6172840E-02
    1      -42.377031    -42.376684   1.000000   1.000000
    2      -42.351187    -42.350838   1.000000   1.000000
    3      -42.343786    -42.343436   1.000000   1.000000
    4      -42.318434    -42.318082   1.000000   1.000000
    5      -41.858012    -41.857461   1.000000   1.000000
    6      -41.857795    -41.857245   1.000000   1.000000
    7       -6.220618     -6.220779   1.000000   1.000000
    8       -5.901743     -5.901907   1.000000   1.000000
    9       -0.127254     -0.127337   1.000000   1.000000
   10        1.237068      1.236964   1.000000   1.000000
   11        1.801899      1.801781   1.000000   1.000000
   12        1.967483      1.967393   1.000000   1.000000
   13        2.227913      2.227830   1.000000   1.000000
   14        2.690377      2.690307   1.000000   1.000000
   15        5.651984      5.651806   0.000000   0.000000
   16        6.660649      6.660065   0.000000   0.000000
   17        7.209290      7.209069   0.000000   0.000000
   18        7.352378      7.352177   0.000000   0.000000
   19        7.896463      7.896224   0.000000   0.000000
   20        8.707412      8.708027   0.000000   0.000000
   21        8.889268      8.888743   0.000000   0.000000
   22        9.234113      9.232517   0.000000   0.000000
 
 -0.1111111E+00  0.2222222E+00  0.0000000E+00  0.6172840E-02
    1      -42.378870    -42.378522   1.000000   1.000000
    2      -42.352748    -42.352398   1.000000   1.000000
    3      -42.342594    -42.342244   1.000000   1.000000
    4      -42.317018    -42.316667   1.000000   1.000000