 running on    8 total cores
 distrk:  each k-point on    8 cores,    1 groups
 distr:  one band on    1 cores,    8 groups
 using from now: INCAR     
 vasp.6.1.2 22Jul20 (build Mar 20 2021 11:25:07) complex                        
  
 POSCAR found type information on POSCAR LiO 
 POSCAR found :  2 types and       3 ions
 scaLAPACK will be used
 -----------------------------------------------------------------------------
|                                                                             |
|           W    W    AA    RRRRR   N    N  II  N    N   GGGG   !!!           |
|           W    W   A  A   R    R  NN   N  II  NN   N  G    G  !!!           |
|           W    W  A    A  R    R  N N  N  II  N N  N  G       !!!           |
|           W WW W  AAAAAA  RRRRR   N  N N  II  N  N N  G  GGG   !            |
|           WW  WW  A    A  R   R   N   NN  II  N   NN  G    G                |
|           W    W  A    A  R    R  N    N  II  N    N   GGGG   !!!           |
|                                                                             |
|     The value NCORE = 6 specified in the INCAR file was overwritten,        |
|     because it was not compatible with the 8 processes available:           |
|     NCORE = 1                                                               |
|     was used instead, please check that this makes sense for your           |
|     machine.                                                                |
|                                                                             |
 -----------------------------------------------------------------------------

 -----------------------------------------------------------------------------
|                                                                             |
|           W    W    AA    RRRRR   N    N  II  N    N   GGGG   !!!           |
|           W    W   A  A   R    R  NN   N  II  NN   N  G    G  !!!           |
|           W    W  A    A  R    R  N N  N  II  N N  N  G       !!!           |
|           W WW W  AAAAAA  RRRRR   N  N N  II  N  N N  G  GGG   !            |
|           WW  WW  A    A  R   R   N   NN  II  N   NN  G    G                |
|           W    W  A    A  R    R  N    N  II  N    N   GGGG   !!!           |
|                                                                             |
|     For optimal performance we recommend to set                             |
|       NCORE = 4 - approx SQRT(number of cores).                             |
|     NCORE specifies how many cores store one orbital (NPAR=cpu/NCORE).      |
|     This setting can greatly improve the performance of VASP for DFT.       |
|     The default, NCORE=1 might be grossly inefficient on modern             |
|     multi-core architectures or massively parallel machines. Do your        |
|     own testing!!!!                                                         |
|     Unfortunately you need to use the default for GW and RPA                |
|     calculations (for HF NCORE is supported but not extensively tested      |
|     yet).                                                                   |
|                                                                             |
 -----------------------------------------------------------------------------

 -----------------------------------------------------------------------------
|                                                                             |
|               ----> ADVICE to this user running VASP <----                  |
|                                                                             |
|     You have a (more or less) 'small supercell' and for smaller cells       |
|     it is recommended to use the reciprocal-space projection scheme!        |
|     The real-space optimization is not efficient for small cells and it     |
|     is also less accurate ...                                               |
|     Therefore, set LREAL=.FALSE. in the INCAR file.                         |
|                                                                             |
 -----------------------------------------------------------------------------

 LDA part: xc-table for Pade appr. of Perdew
 generate k-points for:   12   12   12
 POSCAR, INCAR and KPOINTS ok, starting setup
 FFT: planning ...
 WAVECAR not read
 entering main loop
       N       E                     dE             d eps       ncg     rms          rms(c)
DAV:   1     0.451684763844E+02    0.45168E+02   -0.51271E+03  4616   0.762E+02
DAV:   2    -0.102972355498E+02   -0.55466E+02   -0.52825E+02  6208   0.190E+02
DAV:   3    -0.152074622649E+02   -0.49102E+01   -0.48791E+01  7200   0.400E+01
DAV:   4    -0.152788533905E+02   -0.71391E-01   -0.71380E-01  5304   0.614E+00
DAV:   5    -0.152795931756E+02   -0.73979E-03   -0.73978E-03  6376   0.482E-01    0.116E+01
RMM:   6    -0.141986069429E+02    0.10810E+01   -0.21361E+00  5110   0.811E+00    0.506E+00
RMM:   7    -0.142865809523E+02   -0.87974E-01   -0.76852E-02  5689   0.184E+00    0.199E+00
RMM:   8    -0.142830010374E+02    0.35799E-02   -0.40775E-02  6238   0.164E+00    0.117E+00
RMM:   9    -0.142967345059E+02   -0.13733E-01   -0.23843E-02  6441   0.137E+00    0.249E-01
RMM:  10    -0.142971472768E+02   -0.41277E-03   -0.38945E-03  7170   0.453E-01    0.151E-01
RMM:  11    -0.142982072724E+02   -0.10600E-02   -0.43140E-03  6550   0.439E-01    0.237E-01
RMM:  12    -0.142977094902E+02    0.49778E-03   -0.10113E-03  6870   0.233E-01    0.928E-02
RMM:  13    -0.142976646042E+02    0.44886E-04   -0.52909E-04  7076   0.166E-01    0.164E-02
RMM:  14    -0.142976912266E+02   -0.26622E-04   -0.18596E-04  6689   0.854E-02    0.153E-02
RMM:  15    -0.142977024467E+02   -0.11220E-04   -0.78043E-05  5940   0.513E-02    0.193E-02
RMM:  16    -0.142977059978E+02   -0.35511E-05   -0.32210E-05  5754   0.353E-02
   1 F= -.14297706E+02 E0= -.14297706E+02  d E =0.000000E+00  mag=    -0.0000
