 running on   12 total cores
 distrk:  each k-point on   12 cores,    1 groups
 distr:  one band on    6 cores,    2 groups
 using from now: INCAR     
 vasp.6.1.2 22Jul20 (build Mar 20 2021 11:25:07) complex                        
  
 POSCAR found type information on POSCAR LiO 
 POSCAR found :  2 types and       9 ions
 scaLAPACK will be used
 LDA part: xc-table for Pade appr. of Perdew
 generate k-points for:    8    7    7
 POSCAR, INCAR and KPOINTS ok, starting setup
 FFT: planning ...
 WAVECAR not read
 entering main loop
       N       E                     dE             d eps       ncg     rms          rms(c)
DAV:   1     0.363033679982E+03    0.36303E+03   -0.27941E+04 15776   0.146E+03
DAV:   2    -0.176842101998E+02   -0.38072E+03   -0.36729E+03 20724   0.349E+02
DAV:   3    -0.432974014271E+02   -0.25613E+02   -0.25309E+02 23242   0.915E+01
DAV:   4    -0.442579285808E+02   -0.96053E+00   -0.95638E+00 26680   0.127E+01
DAV:   5    -0.443329660402E+02   -0.75037E-01   -0.75031E-01 21048   0.176E+00    0.144E+01
RMM:   6    -0.446143367221E+02   -0.28137E+00   -0.28535E+00 18059   0.875E+00    0.961E+00
RMM:   7    -0.442328862045E+02    0.38145E+00   -0.10138E+00 17578   0.542E+00    0.551E+00
RMM:   8    -0.439949211523E+02    0.23797E+00   -0.46003E-01 17896   0.395E+00    0.327E+00
RMM:   9    -0.440315593901E+02   -0.36638E-01   -0.17975E-01 18739   0.237E+00    0.294E+00
RMM:  10    -0.439781593216E+02    0.53400E-01   -0.61143E-02 19264   0.140E+00    0.719E-01
RMM:  11    -0.439807108327E+02   -0.25515E-02   -0.11828E-02 21180   0.688E-01    0.393E-01
RMM:  12    -0.439811887360E+02   -0.47790E-03   -0.51631E-03 21906   0.455E-01    0.136E-01
RMM:  13    -0.439816631320E+02   -0.47440E-03   -0.19380E-03 25938   0.242E-01    0.538E-02
RMM:  14    -0.439818178731E+02   -0.15474E-03   -0.77645E-04 27083   0.135E-01    0.297E-02
RMM:  15    -0.439819034562E+02   -0.85583E-04   -0.38292E-04 26582   0.937E-02    0.178E-02
WARNING in EDDRMM: call to ZHEGV failed, returncode =   8  4      3
RMM:  16    -0.439819360956E+02   -0.32639E-04   -0.18735E-04 24756   0.627E-02    0.135E-02
RMM:  17    -0.439819596430E+02   -0.23547E-04   -0.90220E-05 21698   0.480E-02    0.771E-03
RMM:  18    -0.439819680682E+02   -0.84252E-05   -0.21019E-05 14742   0.334E-02
   1 F= -.43981968E+02 E0= -.43981968E+02  d E =0.000000E+00  mag=     0.0309
 -----------------------------------------------------------------------------
|                                                                             |
|           W    W    AA    RRRRR   N    N  II  N    N   GGGG   !!!           |
|           W    W   A  A   R    R  NN   N  II  NN   N  G    G  !!!           |
|           W    W  A    A  R    R  N N  N  II  N N  N  G       !!!           |
|           W WW W  AAAAAA  RRRRR   N  N N  II  N  N N  G  GGG   !            |
|           WW  WW  A    A  R   R   N   NN  II  N   NN  G    G                |
|           W    W  A    A  R    R  N    N  II  N    N   GGGG   !!!           |
|                                                                             |
|     Tetrahedron method does not include variations of the Fermi             |
|     occupations, so forces and stress will be inaccurate. We suggest        |
|     using a different smearing scheme ISMEAR = 1 or 2 for metals in         |
|     relaxations.                                                            |
|                                                                             |
 -----------------------------------------------------------------------------

