       N       E                     dE             d eps       ncg     rms          rms(c)
DAV:   1     0.386183161375E+03    0.38618E+03   -0.25506E+04  7680   0.129E+03
DAV:   2    -0.421095733212E+01   -0.39039E+03   -0.35782E+03  8600   0.307E+02
DAV:   3    -0.555446345667E+02   -0.51334E+02   -0.50668E+02 10944   0.871E+01
DAV:   4    -0.629245334601E+02   -0.73799E+01   -0.73038E+01 13960   0.325E+01
DAV:   5    -0.637899523456E+02   -0.86542E+00   -0.86512E+00 11184   0.757E+00    0.200E+01
DAV:   6    -0.650849422529E+02   -0.12950E+01   -0.27580E+00 10376   0.615E+00    0.105E+01
DAV:   7    -0.663485151222E+02   -0.12636E+01   -0.67910E-01  9560   0.393E+00    0.525E+00
DAV:   8    -0.666306260766E+02   -0.28211E+00   -0.60430E-01  9856   0.285E+00    0.119E+00
DAV:   9    -0.666589004761E+02   -0.28274E-01   -0.83681E-02 11416   0.111E+00    0.443E-01
DAV:  10    -0.666617390195E+02   -0.28385E-02   -0.71747E-03  9944   0.393E-01    0.196E-01
DAV:  11    -0.666629869960E+02   -0.12480E-02   -0.15768E-03  9768   0.203E-01    0.102E-01
DAV:  12    -0.666633134024E+02   -0.32641E-03   -0.60942E-04  9768   0.953E-02    0.426E-02
DAV:  13    -0.666633708630E+02   -0.57461E-04   -0.10939E-04  8720   0.535E-02    0.201E-02
DAV:  14    -0.666633894303E+02   -0.18567E-04   -0.40852E-05  8168   0.316E-02    0.596E-03
DAV:  15    -0.666633914343E+02   -0.20040E-05   -0.53785E-06  5728   0.139E-02
   1 F= -.66663391E+02 E0= -.66663391E+02  d E =0.000000E+00  mag=    -0.0003
