<?xml version="1.0" encoding="ISO-8859-1"?>
<modeling>
 <generator>
  <i name="program" type="string">vasp </i>
  <i name="version" type="string">6.1.2  </i>
  <i name="subversion" type="string">22Jul20 (build Mar 20 2021 11:25:07) complex                          parallel </i>
  <i name="platform" type="string">LinuxIFC </i>
  <i name="date" type="string">2021 03 26 </i>
  <i name="time" type="string">17:20:27 </i>
 </generator>
 <incar>
  <i type="string" name="PREC"> Accurate</i>
  <i type="string" name="ALGO"> Fast</i>
  <i type="int" name="NSIM">     4</i>
  <i type="int" name="ISPIN">     2</i>
  <i type="int" name="NELM">   100</i>
  <i type="int" name="IBRION">    -1</i>
  <i name="EDIFF">      0.00001000</i>
  <i type="int" name="NSW">     0</i>
  <i type="int" name="ISIF">     2</i>
  <i name="ENCUT">    520.00000000</i>
  <v name="MAGMOM">      0.60000000      0.60000000      0.60000000      0.60000000      0.60000000      0.60000000      0.60000000      0.60000000</v>
  <i type="string" name="LREAL"> Auto</i>
  <i type="logical" name="LPLANE"> T  </i>
  <i type="int" name="ISMEAR">    -5</i>
  <i name="SIGMA">      0.05000000</i>
  <i type="logical" name="LWAVE"> F  </i>
  <i type="logical" name="LCHARG"> F  </i>
  <i type="logical" name="LASPH"> T  </i>
  <i type="int" name="NCORE">     6</i>
  <i type="string" name="ALGO"> Fast</i>
  <i type="int" name="NELM">   100</i>
  <i name="EDIFF">      0.00001000</i>
  <i type="logical" name="LASPH"> T  </i>
  <i type="int" name="ISPIN">     2</i>
 </incar>
 <structure name="primitive_cell" >
  <crystal>
   <varray name="basis" >
    <v>       2.30854300      -3.99851300       0.00000000 </v>
    <v>       2.11792900       3.66836100       0.00000000 </v>
    <v>       0.00000000       0.00000000       7.57071800 </v>
   </varray>
   <i name="volume">    128.22627847 </i>
   <varray name="rec_basis" >
    <v>       0.21658686      -0.12504647       0.00000000 </v>
    <v>       0.23607965       0.13630067       0.00000000 </v>
    <v>       0.00000000       0.00000000       0.13208787 </v>
   </varray>
  </crystal>
  <varray name="positions" >
   <v>       0.00000000       0.00000000       0.25000000 </v>
   <v>       0.00000000       0.00000000       0.75000000 </v>
   <v>       0.33333300       0.66666700       0.58411900 </v>
   <v>       0.66666700       0.33333300       0.08411900 </v>
   <v>       0.66666700       0.33333300       0.41588100 </v>
   <v>       0.33333300       0.66666700       0.91588100 </v>
   <v>       0.33333300       0.66666700       0.25000000 </v>
   <v>       0.66666700       0.33333300       0.75000000 </v>
  </varray>
 </structure>
 <varray name="primitive_index" >
  <v type="int" >        1 </v>
  <v type="int" >        2 </v>
  <v type="int" >        3 </v>
  <v type="int" >        4 </v>
  <v type="int" >        5 </v>
  <v type="int" >        6 </v>
  <v type="int" >        7 </v>
  <v type="int" >        8 </v>
 </varray>
 <kpoints>
  <generation param="Auto">
   <i name="subdivisionlength">     32.00000000 </i>
   <v type="int" name="divisions">       8        9        4 </v>
   <v name="usershift">      0.00000000       0.00000000       0.00000000 </v>
   <v name="genvec1">      0.12500000       0.00000000       0.00000000 </v>
   <v name="genvec2">     -0.00000000       0.11111111       0.00000000 </v>
   <v name="genvec3">      0.00000000       0.00000000       0.25000000 </v>
   <v name="shift">      0.00000000       0.00000000       0.00000000 </v>
  </generation>
  <varray name="kpointlist" >
   <v>       0.00000000       0.00000000       0.00000000 </v>
   <v>       0.12500000       0.00000000       0.00000000 </v>
   <v>       0.25000000       0.00000000       0.00000000 </v>
   <v>       0.37500000      -0.00000000       0.00000000 </v>
   <v>       0.50000000       0.00000000       0.00000000 </v>
   <v>      -0.00000000       0.11111111       0.00000000 </v>
   <v>       0.12500000       0.11111111       0.00000000 </v>
   <v>       0.25000000       0.11111111       0.00000000 </v>
   <v>       0.37500000       0.11111111       0.00000000 </v>
   <v>       0.50000000       0.11111111       0.00000000 </v>
   <v>      -0.37500000       0.11111111       0.00000000 </v>
   <v>      -0.25000000       0.11111111       0.00000000 </v>
   <v>      -0.12500000       0.11111111       0.00000000 </v>
   <v>      -0.00000000       0.22222222       0.00000000 </v>
   <v>       0.12500000       0.22222222       0.00000000 </v>
   <v>       0.25000000       0.22222222       0.00000000 </v>
   <v>       0.37500000       0.22222222       0.00000000 </v>
   <v>       0.50000000       0.22222222       0.00000000 </v>
   <v>      -0.37500000       0.22222222       0.00000000 </v>
   <v>      -0.25000000       0.22222222       0.00000000 </v>
   <v>      -0.12500000       0.22222222       0.00000000 </v>
   <v>       0.00000000       0.33333333       0.00000000 </v>
   <v>       0.12500000       0.33333333       0.00000000 </v>
   <v>       0.25000000       0.33333333       0.00000000 </v>
   <v>       0.37500000       0.33333333       0.00000000 </v>
   <v>       0.50000000       0.33333333       0.00000000 </v>
   <v>      -0.37500000       0.33333333       0.00000000 </v>
   <v>      -0.25000000       0.33333333       0.00000000 </v>
   <v>      -0.12500000       0.33333333       0.00000000 </v>
   <v>      -0.00000000       0.44444444       0.00000000 </v>
   <v>       0.12500000       0.44444444       0.00000000 </v>
   <v>       0.25000000       0.44444444       0.00000000 </v>
   <v>       0.37500000       0.44444444       0.00000000 </v>
   <v>       0.50000000       0.44444444       0.00000000 </v>
   <v>      -0.37500000       0.44444444       0.00000000 </v>
   <v>      -0.25000000       0.44444444       0.00000000 </v>
   <v>      -0.12500000       0.44444444       0.00000000 </v>
   <v>       0.00000000       0.00000000       0.25000000 </v>
   <v>       0.12500000       0.00000000       0.25000000 </v>
   <v>       0.25000000       0.00000000       0.25000000 </v>
   <v>       0.37500000      -0.00000000       0.25000000 </v>
   <v>       0.50000000       0.00000000       0.25000000 </v>
   <v>      -0.00000000       0.11111111       0.25000000 </v>
   <v>       0.12500000       0.11111111       0.25000000 </v>
   <v>       0.25000000       0.11111111       0.25000000 </v>
   <v>       0.37500000       0.11111111       0.25000000 </v>
   <v>       0.50000000       0.11111111       0.25000000 </v>
   <v>      -0.37500000       0.11111111       0.25000000 </v>
   <v>      -0.25000000       0.11111111       0.25000000 </v>
   <v>      -0.12500000       0.11111111       0.25000000 </v>
   <v>      -0.00000000       0.22222222       0.25000000 </v>
   <v>       0.12500000       0.22222222       0.25000000 </v>
   <v>       0.25000000       0.22222222       0.25000000 </v>
   <v>       0.37500000       0.22222222       0.25000000 </v>
   <v>       0.50000000       0.22222222       0.25000000 </v>
   <v>      -0.37500000       0.22222222       0.25000000 </v>
   <v>      -0.25000000       0.22222222       0.25000000 </v>
   <v>      -0.12500000       0.22222222       0.25000000 </v>
   <v>       0.00000000       0.33333333       0.25000000 </v>
   <v>       0.12500000       0.33333333       0.25000000 </v>
   <v>       0.25000000       0.33333333       0.25000000 </v>
   <v>       0.37500000       0.33333333       0.25000000 </v>
   <v>       0.50000000       0.33333333       0.25000000 </v>
   <v>      -0.37500000       0.33333333       0.25000000 </v>
   <v>      -0.25000000       0.33333333       0.25000000 </v>
   <v>      -0.12500000       0.33333333       0.25000000 </v>
   <v>      -0.00000000       0.44444444       0.25000000 </v>
   <v>       0.12500000       0.44444444       0.25000000 </v>
   <v>       0.25000000       0.44444444       0.25000000 </v>
   <v>       0.37500000       0.44444444       0.25000000 </v>
   <v>       0.50000000       0.44444444       0.25000000 </v>
   <v>      -0.37500000       0.44444444       0.25000000 </v>
   <v>      -0.25000000       0.44444444       0.25000000 </v>
   <v>      -0.12500000       0.44444444       0.25000000 </v>
   <v>       0.00000000       0.00000000       0.50000000 </v>
   <v>       0.12500000       0.00000000       0.50000000 </v>
   <v>       0.25000000       0.00000000       0.50000000 </v>
   <v>       0.37500000      -0.00000000       0.50000000 </v>
   <v>       0.50000000       0.00000000       0.50000000 </v>
   <v>      -0.00000000       0.11111111       0.50000000 </v>
   <v>       0.12500000       0.11111111       0.50000000 </v>
   <v>       0.25000000       0.11111111       0.50000000 </v>
   <v>       0.37500000       0.11111111       0.50000000 </v>
   <v>       0.50000000       0.11111111       0.50000000 </v>
   <v>      -0.37500000       0.11111111       0.50000000 </v>
   <v>      -0.25000000       0.11111111       0.50000000 </v>
   <v>      -0.12500000       0.11111111       0.50000000 </v>
   <v>      -0.00000000       0.22222222       0.50000000 </v>
   <v>       0.12500000       0.22222222       0.50000000 </v>
   <v>       0.25000000       0.22222222       0.50000000 </v>
   <v>       0.37500000       0.22222222       0.50000000 </v>
   <v>       0.50000000       0.22222222       0.50000000 </v>
   <v>      -0.37500000       0.22222222       0.50000000 </v>
   <v>      -0.25000000       0.22222222       0.50000000 </v>
   <v>      -0.12500000       0.22222222       0.50000000 </v>
   <v>       0.00000000       0.33333333       0.50000000 </v>
   <v>       0.12500000       0.33333333       0.50000000 </v>
   <v>       0.25000000       0.33333333       0.50000000 </v>
   <v>       0.37500000       0.33333333       0.50000000 </v>
   <v>       0.50000000       0.33333333       0.50000000 </v>
   <v>      -0.37500000       0.33333333       0.50000000 </v>
   <v>      -0.25000000       0.33333333       0.50000000 </v>
   <v>      -0.12500000       0.33333333       0.50000000 </v>
   <v>      -0.00000000       0.44444444       0.50000000 </v>
   <v>       0.12500000       0.44444444       0.50000000 </v>
   <v>       0.25000000       0.44444444       0.50000000 </v>
   <v>       0.37500000       0.44444444       0.50000000 </v>
   <v>       0.50000000       0.44444444       0.50000000 </v>
   <v>      -0.37500000       0.44444444       0.50000000 </v>
   <v>      -0.25000000       0.44444444       0.50000000 </v>
   <v>      -0.12500000       0.44444444       0.50000000 </v>
  </varray>
  <varray name="weights" >
   <v>       0.00347222 </v>
   <v>       0.00694444 </v>
   <v>       0.00694444 </v>
   <v>       0.00694444 </v>
   <v>       0.00347222 </v>
   <v>       0.00694444 </v>
   <v>       0.00694444 </v>
   <v>       0.00694444 </v>
   <v>       0.00694444 </v>
   <v>       0.00694444 </v>
   <v>       0.00694444 </v>
   <v>       0.00694444 </v>
   <v>       0.00694444 </v>
   <v>       0.00694444 </v>
   <v>       0.00694444 </v>
   <v>       0.00694444 </v>
   <v>       0.00694444 </v>
   <v>       0.00694444 </v>
   <v>       0.00694444 </v>
   <v>       0.00694444 </v>
   <v>       0.00694444 </v>
   <v>       0.00694444 </v>
   <v>       0.00694444 </v>
   <v>       0.00694444 </v>
   <v>       0.00694444 </v>
   <v>       0.00694444 </v>
   <v>       0.00694444 </v>
   <v>       0.00694444 </v>
   <v>       0.00694444 </v>
   <v>       0.00694444 </v>
   <v>       0.00694444 </v>
   <v>       0.00694444 </v>
   <v>       0.00694444 </v>
   <v>       0.00694444 </v>
   <v>       0.00694444 </v>
   <v>       0.00694444 </v>
   <v>       0.00694444 </v>
   <v>       0.00694444 </v>
   <v>       0.01388889 </v>
   <v>       0.01388889 </v>
   <v>       0.01388889 </v>
   <v>       0.00694444 </v>
   <v>       0.01388889 </v>
   <v>       0.01388889 </v>
   <v>       0.01388889 </v>
   <v>       0.01388889 </v>
   <v>       0.01388889 </v>
   <v>       0.01388889 </v>
   <v>       0.01388889 </v>
   <v>       0.01388889 </v>
   <v>       0.01388889 </v>
   <v>       0.01388889 </v>
   <v>       0.01388889 </v>
   <v>       0.01388889 </v>
   <v>       0.01388889 </v>
   <v>       0.01388889 </v>
   <v>       0.01388889 </v>
   <v>       0.01388889 </v>
   <v>       0.01388889 </v>
   <v>       0.01388889 </v>
   <v>       0.01388889 </v>
   <v>       0.01388889 </v>
   <v>       0.01388889 </v>
   <v>       0.01388889 </v>
   <v>       0.01388889 </v>
   <v>       0.01388889 </v>
   <v>       0.01388889 </v>
   <v>       0.01388889 </v>
   <v>       0.01388889 </v>
   <v>       0.01388889 </v>
   <v>       0.01388889 </v>
   <v>       0.01388889 </v>
   <v>       0.01388889 </v>
   <v>       0.01388889 </v>
   <v>       0.00347222 </v>
   <v>       0.00694444 </v>
   <v>       0.00694444 </v>
   <v>       0.00694444 </v>
   <v>       0.00347222 </v>
   <v>       0.00694444 </v>
   <v>       0.00694444 </v>
   <v>       0.00694444 </v>
   <v>       0.00694444 </v>
   <v>       0.00694444 </v>
   <v>       0.00694444 </v>
   <v>       0.00694444 </v>
   <v>       0.00694444 </v>
   <v>       0.00694444 </v>
   <v>       0.00694444 </v>
   <v>       0.00694444 </v>
   <v>       0.00694444 </v>
   <v>       0.00694444 </v>
   <v>       0.00694444 </v>
   <v>       0.00694444 </v>
   <v>       0.00694444 </v>
   <v>       0.00694444 </v>
   <v>       0.00694444 </v>
   <v>       0.00694444 </v>
   <v>       0.00694444 </v>
   <v>       0.00694444 </v>
   <v>       0.00694444 </v>
   <v>       0.00694444 </v>
   <v>       0.00694444 </v>
   <v>       0.00694444 </v>
   <v>       0.00694444 </v>
   <v>       0.00694444 </v>
   <v>       0.00694444 </v>
   <v>       0.00694444 </v>
   <v>       0.00694444 </v>
   <v>       0.00694444 </v>
   <v>       0.00694444 </v>
  </varray>
  <varray name="tetrahedronlist"  type="int" >
   <v type="int" >        2        2        6        7       43 </v>
   <v type="int" >        2        1        2        6       43 </v>
   <v type="int" >        2        1        2       38       43 </v>
   <v type="int" >        2        2        7       43       44 </v>
   <v type="int" >        2        2       39       43       44 </v>
   <v type="int" >        2        2       38       39       43 </v>
   <v type="int" >        2        3        7        8       44 </v>
   <v type="int" >        2        2        3        7       44 </v>
   <v type="int" >        2        2        3       39       44 </v>
   <v type="int" >        2        3        8       44       45 </v>
   <v type="int" >        2        3       40       44       45 </v>
   <v type="int" >        2        3       39       40       44 </v>
   <v type="int" >        2        4        8        9       45 </v>
   <v type="int" >        2        3        4        8       45 </v>
   <v type="int" >        2        3        4       40       45 </v>
   <v type="int" >        2        4        9       45       46 </v>
   <v type="int" >        2        4       41       45       46 </v>
   <v type="int" >        2        4       40       41       45 </v>
   <v type="int" >        2        5        9       10       46 </v>
   <v type="int" >        2        4        5        9       46 </v>
   <v type="int" >        2        4        5       41       46 </v>
   <v type="int" >        2        5       10       46       47 </v>
   <v type="int" >        2        5       42       46       47 </v>
   <v type="int" >        2        5       41       42       46 </v>
   <v type="int" >        2        4       10       11       47 </v>
   <v type="int" >        2        4        5       10       47 </v>
   <v type="int" >        2        4        5       42       47 </v>
   <v type="int" >        2        4       11       47       48 </v>
   <v type="int" >        2        4       41       47       48 </v>
   <v type="int" >        2        4       41       42       47 </v>
   <v type="int" >        2        3       11       12       48 </v>
   <v type="int" >        2        3        4       11       48 </v>
   <v type="int" >        2        3        4       41       48 </v>
   <v type="int" >        2        3       12       48       49 </v>
   <v type="int" >        2        3       40       48       49 </v>
   <v type="int" >        2        3       40       41       48 </v>
   <v type="int" >        2        2       12       13       49 </v>
   <v type="int" >        2        2        3       12       49 </v>
   <v type="int" >        2        2        3       40       49 </v>
   <v type="int" >        2        2       13       49       50 </v>
   <v type="int" >        2        2       39       49       50 </v>
   <v type="int" >        2        2       39       40       49 </v>
   <v type="int" >        2        1        6       13       50 </v>
   <v type="int" >        2        1        2       13       50 </v>
   <v type="int" >        2        1        2       39       50 </v>
   <v type="int" >        2        1        6       43       50 </v>
   <v type="int" >        2        1       38       43       50 </v>
   <v type="int" >        2        1       38       39       50 </v>
   <v type="int" >        2        7       14       15       51 </v>
   <v type="int" >        2        6        7       14       51 </v>
   <v type="int" >        2        6        7       43       51 </v>
   <v type="int" >        2        7       15       51       52 </v>
   <v type="int" >        2        7       44       51       52 </v>
   <v type="int" >        2        7       43       44       51 </v>
   <v type="int" >        2        8       15       16       52 </v>
   <v type="int" >        2        7        8       15       52 </v>
   <v type="int" >        2        7        8       44       52 </v>
   <v type="int" >        2        8       16       52       53 </v>
   <v type="int" >        2        8       45       52       53 </v>
   <v type="int" >        2        8       44       45       52 </v>
   <v type="int" >        2        9       16       17       53 </v>
   <v type="int" >        2        8        9       16       53 </v>
   <v type="int" >        2        8        9       45       53 </v>
   <v type="int" >        2        9       17       53       54 </v>
   <v type="int" >        2        9       46       53       54 </v>
   <v type="int" >        2        9       45       46       53 </v>
   <v type="int" >        2       10       17       18       54 </v>
   <v type="int" >        2        9       10       17       54 </v>
   <v type="int" >        2        9       10       46       54 </v>
   <v type="int" >        2       10       18       54       55 </v>
   <v type="int" >        2       10       47       54       55 </v>
   <v type="int" >        2       10       46       47       54 </v>
   <v type="int" >        2       11       18       19       55 </v>
   <v type="int" >        2       10       11       18       55 </v>
   <v type="int" >        2       10       11       47       55 </v>
   <v type="int" >        2       11       19       55       56 </v>
   <v type="int" >        2       11       48       55       56 </v>
   <v type="int" >        2       11       47       48       55 </v>
   <v type="int" >        2       12       19       20       56 </v>
   <v type="int" >        2       11       12       19       56 </v>
   <v type="int" >        2       11       12       48       56 </v>
   <v type="int" >        2       12       20       56       57 </v>
   <v type="int" >        2       12       49       56       57 </v>
   <v type="int" >        2       12       48       49       56 </v>
   <v type="int" >        2       13       20       21       57 </v>
   <v type="int" >        2       12       13       20       57 </v>
   <v type="int" >        2       12       13       49       57 </v>
   <v type="int" >        2       13       21       57       58 </v>
   <v type="int" >        2       13       50       57       58 </v>
   <v type="int" >        2       13       49       50       57 </v>
   <v type="int" >        2        6       14       21       58 </v>
   <v type="int" >        2        6       13       21       58 </v>
   <v type="int" >        2        6       13       50       58 </v>
   <v type="int" >        2        6       14       51       58 </v>
   <v type="int" >        2        6       43       51       58 </v>
   <v type="int" >        2        6       43       50       58 </v>
   <v type="int" >        2       15       22       23       59 </v>
   <v type="int" >        2       14       15       22       59 </v>
   <v type="int" >        2       14       15       51       59 </v>
   <v type="int" >        2       15       23       59       60 </v>
   <v type="int" >        2       15       52       59       60 </v>
   <v type="int" >        2       15       51       52       59 </v>
   <v type="int" >        2       16       23       24       60 </v>
   <v type="int" >        2       15       16       23       60 </v>
   <v type="int" >        2       15       16       52       60 </v>
   <v type="int" >        2       16       24       60       61 </v>
   <v type="int" >        2       16       53       60       61 </v>
   <v type="int" >        2       16       52       53       60 </v>
   <v type="int" >        2       17       24       25       61 </v>
   <v type="int" >        2       16       17       24       61 </v>
   <v type="int" >        2       16       17       53       61 </v>
   <v type="int" >        2       17       25       61       62 </v>
   <v type="int" >        2       17       54       61       62 </v>
   <v type="int" >        2       17       53       54       61 </v>
   <v type="int" >        2       18       25       26       62 </v>
   <v type="int" >        2       17       18       25       62 </v>
   <v type="int" >        2       17       18       54       62 </v>
   <v type="int" >        2       18       26       62       63 </v>
   <v type="int" >        2       18       55       62       63 </v>
   <v type="int" >        2       18       54       55       62 </v>
   <v type="int" >        2       19       26       27       63 </v>
   <v type="int" >        2       18       19       26       63 </v>
   <v type="int" >        2       18       19       55       63 </v>
   <v type="int" >        2       19       27       63       64 </v>
   <v type="int" >        2       19       56       63       64 </v>
   <v type="int" >        2       19       55       56       63 </v>
   <v type="int" >        2       20       27       28       64 </v>
   <v type="int" >        2       19       20       27       64 </v>
   <v type="int" >        2       19       20       56       64 </v>
   <v type="int" >        2       20       28       64       65 </v>
   <v type="int" >        2       20       57       64       65 </v>
   <v type="int" >        2       20       56       57       64 </v>
   <v type="int" >        2       21       28       29       65 </v>
   <v type="int" >        2       20       21       28       65 </v>
   <v type="int" >        2       20       21       57       65 </v>
   <v type="int" >        2       21       29       65       66 </v>
   <v type="int" >        2       21       58       65       66 </v>
   <v type="int" >        2       21       57       58       65 </v>
   <v type="int" >        2       14       22       29       66 </v>
   <v type="int" >        2       14       21       29       66 </v>
   <v type="int" >        2       14       21       58       66 </v>
   <v type="int" >        2       14       22       59       66 </v>
   <v type="int" >        2       14       51       59       66 </v>
   <v type="int" >        2       14       51       58       66 </v>
   <v type="int" >        2       23       30       31       67 </v>
   <v type="int" >        2       22       23       30       67 </v>
   <v type="int" >        2       22       23       59       67 </v>
   <v type="int" >        2       23       31       67       68 </v>
   <v type="int" >        2       23       60       67       68 </v>
   <v type="int" >        2       23       59       60       67 </v>
   <v type="int" >        2       24       31       32       68 </v>
   <v type="int" >        2       23       24       31       68 </v>
   <v type="int" >        2       23       24       60       68 </v>
   <v type="int" >        2       24       32       68       69 </v>
   <v type="int" >        2       24       61       68       69 </v>
   <v type="int" >        2       24       60       61       68 </v>
   <v type="int" >        2       25       32       33       69 </v>
   <v type="int" >        2       24       25       32       69 </v>
   <v type="int" >        2       24       25       61       69 </v>
   <v type="int" >        2       25       33       69       70 </v>
   <v type="int" >        2       25       62       69       70 </v>
   <v type="int" >        2       25       61       62       69 </v>
   <v type="int" >        2       26       33       34       70 </v>
   <v type="int" >        2       25       26       33       70 </v>
   <v type="int" >        2       25       26       62       70 </v>
   <v type="int" >        2       26       34       70       71 </v>
   <v type="int" >        2       26       63       70       71 </v>
   <v type="int" >        2       26       62       63       70 </v>
   <v type="int" >        2       27       34       35       71 </v>
   <v type="int" >        2       26       27       34       71 </v>
   <v type="int" >        2       26       27       63       71 </v>
   <v type="int" >        2       27       35       71       72 </v>
   <v type="int" >        2       27       64       71       72 </v>
   <v type="int" >        2       27       63       64       71 </v>
   <v type="int" >        2       28       35       36       72 </v>
   <v type="int" >        2       27       28       35       72 </v>
   <v type="int" >        2       27       28       64       72 </v>
   <v type="int" >        2       28       36       72       73 </v>
   <v type="int" >        2       28       65       72       73 </v>
   <v type="int" >        2       28       64       65       72 </v>
   <v type="int" >        2       29       36       37       73 </v>
   <v type="int" >        2       28       29       36       73 </v>
   <v type="int" >        2       28       29       65       73 </v>
   <v type="int" >        2       29       37       73       74 </v>
   <v type="int" >        2       29       66       73       74 </v>
   <v type="int" >        2       29       65       66       73 </v>
   <v type="int" >        2       22       30       37       74 </v>
   <v type="int" >        2       22       29       37       74 </v>
   <v type="int" >        2       22       29       66       74 </v>
   <v type="int" >        2       22       30       67       74 </v>
   <v type="int" >        2       22       59       67       74 </v>
   <v type="int" >        2       22       59       66       74 </v>
   <v type="int" >        2       30       31       37       67 </v>
   <v type="int" >        2       30       30       31       67 </v>
   <v type="int" >        2       30       31       67       67 </v>
   <v type="int" >        2       31       37       67       74 </v>
   <v type="int" >        2       31       67       68       74 </v>
   <v type="int" >        2       31       67       67       68 </v>
   <v type="int" >        2       32       36       37       74 </v>
   <v type="int" >        2       31       32       37       74 </v>
   <v type="int" >        2       31       32       68       74 </v>
   <v type="int" >        2       32       36       73       74 </v>
   <v type="int" >        2       32       69       73       74 </v>
   <v type="int" >        2       32       68       69       74 </v>
   <v type="int" >        2       33       35       36       73 </v>
   <v type="int" >        2       32       33       36       73 </v>
   <v type="int" >        2       32       33       69       73 </v>
   <v type="int" >        2       33       35       72       73 </v>
   <v type="int" >        2       33       70       72       73 </v>
   <v type="int" >        2       33       69       70       73 </v>
   <v type="int" >        2       34       34       35       72 </v>
   <v type="int" >        2       33       34       35       72 </v>
   <v type="int" >        2       33       34       70       72 </v>
   <v type="int" >        2       34       34       71       72 </v>
   <v type="int" >        2       34       71       71       72 </v>
   <v type="int" >        2       34       70       71       72 </v>
   <v type="int" >        2       33       34       35       71 </v>
   <v type="int" >        2       34       34       35       71 </v>
   <v type="int" >        2       34       35       71       71 </v>
   <v type="int" >        2       33       35       70       71 </v>
   <v type="int" >        2       35       70       71       72 </v>
   <v type="int" >        2       35       71       71       72 </v>
   <v type="int" >        2       32       33       36       70 </v>
   <v type="int" >        2       33       35       36       70 </v>
   <v type="int" >        2       35       36       70       72 </v>
   <v type="int" >        2       32       36       69       70 </v>
   <v type="int" >        2       36       69       70       73 </v>
   <v type="int" >        2       36       70       72       73 </v>
   <v type="int" >        2       31       32       37       69 </v>
   <v type="int" >        2       32       36       37       69 </v>
   <v type="int" >        2       36       37       69       73 </v>
   <v type="int" >        2       31       37       68       69 </v>
   <v type="int" >        2       37       68       69       74 </v>
   <v type="int" >        2       37       69       73       74 </v>
   <v type="int" >        2       30       30       31       68 </v>
   <v type="int" >        2       30       31       37       68 </v>
   <v type="int" >        2       30       37       68       74 </v>
   <v type="int" >        2       30       30       67       68 </v>
   <v type="int" >        2       30       67       67       68 </v>
   <v type="int" >        2       30       67       68       74 </v>
   <v type="int" >        2       22       29       37       59 </v>
   <v type="int" >        2       22       30       37       59 </v>
   <v type="int" >        2       30       37       59       67 </v>
   <v type="int" >        2       29       37       59       66 </v>
   <v type="int" >        2       37       59       66       74 </v>
   <v type="int" >        2       37       59       67       74 </v>
   <v type="int" >        2       28       29       36       66 </v>
   <v type="int" >        2       29       36       37       66 </v>
   <v type="int" >        2       36       37       66       74 </v>
   <v type="int" >        2       28       36       65       66 </v>
   <v type="int" >        2       36       65       66       73 </v>
   <v type="int" >        2       36       66       73       74 </v>
   <v type="int" >        2       27       28       35       65 </v>
   <v type="int" >        2       28       35       36       65 </v>
   <v type="int" >        2       35       36       65       73 </v>
   <v type="int" >        2       27       35       64       65 </v>
   <v type="int" >        2       35       64       65       72 </v>
   <v type="int" >        2       35       65       72       73 </v>
   <v type="int" >        2       26       27       34       64 </v>
   <v type="int" >        2       27       34       35       64 </v>
   <v type="int" >        2       34       35       64       72 </v>
   <v type="int" >        2       26       34       63       64 </v>
   <v type="int" >        2       34       63       64       71 </v>
   <v type="int" >        2       34       64       71       72 </v>
   <v type="int" >        2       25       26       33       63 </v>
   <v type="int" >        2       26       33       34       63 </v>
   <v type="int" >        2       33       34       63       71 </v>
   <v type="int" >        2       25       33       62       63 </v>
   <v type="int" >        2       33       62       63       70 </v>
   <v type="int" >        2       33       63       70       71 </v>
   <v type="int" >        2       24       25       32       62 </v>
   <v type="int" >        2       25       32       33       62 </v>
   <v type="int" >        2       32       33       62       70 </v>
   <v type="int" >        2       24       32       61       62 </v>
   <v type="int" >        2       32       61       62       69 </v>
   <v type="int" >        2       32       62       69       70 </v>
   <v type="int" >        2       23       24       31       61 </v>
   <v type="int" >        2       24       31       32       61 </v>
   <v type="int" >        2       31       32       61       69 </v>
   <v type="int" >        2       23       31       60       61 </v>
   <v type="int" >        2       31       60       61       68 </v>
   <v type="int" >        2       31       61       68       69 </v>
   <v type="int" >        2       22       23       30       60 </v>
   <v type="int" >        2       23       30       31       60 </v>
   <v type="int" >        2       30       31       60       68 </v>
   <v type="int" >        2       22       30       59       60 </v>
   <v type="int" >        2       30       59       60       67 </v>
   <v type="int" >        2       30       60       67       68 </v>
   <v type="int" >        2       14       21       29       51 </v>
   <v type="int" >        2       14       22       29       51 </v>
   <v type="int" >        2       22       29       51       59 </v>
   <v type="int" >        2       21       29       51       58 </v>
   <v type="int" >        2       29       51       58       66 </v>
   <v type="int" >        2       29       51       59       66 </v>
   <v type="int" >        2       20       21       28       58 </v>
   <v type="int" >        2       21       28       29       58 </v>
   <v type="int" >        2       28       29       58       66 </v>
   <v type="int" >        2       20       28       57       58 </v>
   <v type="int" >        2       28       57       58       65 </v>
   <v type="int" >        2       28       58       65       66 </v>
   <v type="int" >        2       19       20       27       57 </v>
   <v type="int" >        2       20       27       28       57 </v>
   <v type="int" >        2       27       28       57       65 </v>
   <v type="int" >        2       19       27       56       57 </v>
   <v type="int" >        2       27       56       57       64 </v>
   <v type="int" >        2       27       57       64       65 </v>
   <v type="int" >        2       18       19       26       56 </v>
   <v type="int" >        2       19       26       27       56 </v>
   <v type="int" >        2       26       27       56       64 </v>
   <v type="int" >        2       18       26       55       56 </v>
   <v type="int" >        2       26       55       56       63 </v>
   <v type="int" >        2       26       56       63       64 </v>
   <v type="int" >        2       17       18       25       55 </v>
   <v type="int" >        2       18       25       26       55 </v>
   <v type="int" >        2       25       26       55       63 </v>
   <v type="int" >        2       17       25       54       55 </v>
   <v type="int" >        2       25       54       55       62 </v>
   <v type="int" >        2       25       55       62       63 </v>
   <v type="int" >        2       16       17       24       54 </v>
   <v type="int" >        2       17       24       25       54 </v>
   <v type="int" >        2       24       25       54       62 </v>
   <v type="int" >        2       16       24       53       54 </v>
   <v type="int" >        2       24       53       54       61 </v>
   <v type="int" >        2       24       54       61       62 </v>
   <v type="int" >        2       15       16       23       53 </v>
   <v type="int" >        2       16       23       24       53 </v>
   <v type="int" >        2       23       24       53       61 </v>
   <v type="int" >        2       15       23       52       53 </v>
   <v type="int" >        2       23       52       53       60 </v>
   <v type="int" >        2       23       53       60       61 </v>
   <v type="int" >        2       14       15       22       52 </v>
   <v type="int" >        2       15       22       23       52 </v>
   <v type="int" >        2       22       23       52       60 </v>
   <v type="int" >        2       14       22       51       52 </v>
   <v type="int" >        2       22       51       52       59 </v>
   <v type="int" >        2       22       52       59       60 </v>
   <v type="int" >        2        6       13       21       43 </v>
   <v type="int" >        2        6       14       21       43 </v>
   <v type="int" >        2       14       21       43       51 </v>
   <v type="int" >        2       13       21       43       50 </v>
   <v type="int" >        2       21       43       50       58 </v>
   <v type="int" >        2       21       43       51       58 </v>
   <v type="int" >        2       12       13       20       50 </v>
   <v type="int" >        2       13       20       21       50 </v>
   <v type="int" >        2       20       21       50       58 </v>
   <v type="int" >        2       12       20       49       50 </v>
   <v type="int" >        2       20       49       50       57 </v>
   <v type="int" >        2       20       50       57       58 </v>
   <v type="int" >        2       11       12       19       49 </v>
   <v type="int" >        2       12       19       20       49 </v>
   <v type="int" >        2       19       20       49       57 </v>
   <v type="int" >        2       11       19       48       49 </v>
   <v type="int" >        2       19       48       49       56 </v>
   <v type="int" >        2       19       49       56       57 </v>
   <v type="int" >        2       10       11       18       48 </v>
   <v type="int" >        2       11       18       19       48 </v>
   <v type="int" >        2       18       19       48       56 </v>
   <v type="int" >        2       10       18       47       48 </v>
   <v type="int" >        2       18       47       48       55 </v>
   <v type="int" >        2       18       48       55       56 </v>
   <v type="int" >        2        9       10       17       47 </v>
   <v type="int" >        2       10       17       18       47 </v>
   <v type="int" >        2       17       18       47       55 </v>
   <v type="int" >        2        9       17       46       47 </v>
   <v type="int" >        2       17       46       47       54 </v>
   <v type="int" >        2       17       47       54       55 </v>
   <v type="int" >        2        8        9       16       46 </v>
   <v type="int" >        2        9       16       17       46 </v>
   <v type="int" >        2       16       17       46       54 </v>
   <v type="int" >        2        8       16       45       46 </v>
   <v type="int" >        2       16       45       46       53 </v>
   <v type="int" >        2       16       46       53       54 </v>
   <v type="int" >        2        7        8       15       45 </v>
   <v type="int" >        2        8       15       16       45 </v>
   <v type="int" >        2       15       16       45       53 </v>
   <v type="int" >        2        7       15       44       45 </v>
   <v type="int" >        2       15       44       45       52 </v>
   <v type="int" >        2       15       45       52       53 </v>
   <v type="int" >        2        6        7       14       44 </v>
   <v type="int" >        2        7       14       15       44 </v>
   <v type="int" >        2       14       15       44       52 </v>
   <v type="int" >        2        6       14       43       44 </v>
   <v type="int" >        2       14       43       44       51 </v>
   <v type="int" >        2       14       44       51       52 </v>
   <v type="int" >        2        1        2       13       38 </v>
   <v type="int" >        2        1        6       13       38 </v>
   <v type="int" >        2        6       13       38       43 </v>
   <v type="int" >        2        2       13       38       39 </v>
   <v type="int" >        2       13       38       39       50 </v>
   <v type="int" >        2       13       38       43       50 </v>
   <v type="int" >        2        2        3       12       39 </v>
   <v type="int" >        2        2       12       13       39 </v>
   <v type="int" >        2       12       13       39       50 </v>
   <v type="int" >        2        3       12       39       40 </v>
   <v type="int" >        2       12       39       40       49 </v>
   <v type="int" >        2       12       39       49       50 </v>
   <v type="int" >        2        3        4       11       40 </v>
   <v type="int" >        2        3       11       12       40 </v>
   <v type="int" >        2       11       12       40       49 </v>
   <v type="int" >        2        4       11       40       41 </v>
   <v type="int" >        2       11       40       41       48 </v>
   <v type="int" >        2       11       40       48       49 </v>
   <v type="int" >        2        4        5       10       41 </v>
   <v type="int" >        2        4       10       11       41 </v>
   <v type="int" >        2       10       11       41       48 </v>
   <v type="int" >        2        5       10       41       42 </v>
   <v type="int" >        2       10       41       42       47 </v>
   <v type="int" >        2       10       41       47       48 </v>
   <v type="int" >        2        4        5        9       42 </v>
   <v type="int" >        2        5        9       10       42 </v>
   <v type="int" >        2        9       10       42       47 </v>
   <v type="int" >        2        4        9       41       42 </v>
   <v type="int" >        2        9       41       42       46 </v>
   <v type="int" >        2        9       42       46       47 </v>
   <v type="int" >        2        3        4        8       41 </v>
   <v type="int" >        2        4        8        9       41 </v>
   <v type="int" >        2        8        9       41       46 </v>
   <v type="int" >        2        3        8       40       41 </v>
   <v type="int" >        2        8       40       41       45 </v>
   <v type="int" >        2        8       41       45       46 </v>
   <v type="int" >        2        2        3        7       40 </v>
   <v type="int" >        2        3        7        8       40 </v>
   <v type="int" >        2        7        8       40       45 </v>
   <v type="int" >        2        2        7       39       40 </v>
   <v type="int" >        2        7       39       40       44 </v>
   <v type="int" >        2        7       40       44       45 </v>
   <v type="int" >        2        1        2        6       39 </v>
   <v type="int" >        2        2        6        7       39 </v>
   <v type="int" >        2        6        7       39       44 </v>
   <v type="int" >        2        1        6       38       39 </v>
   <v type="int" >        2        6       38       39       43 </v>
   <v type="int" >        2        6       39       43       44 </v>
   <v type="int" >        2       39       43       44       80 </v>
   <v type="int" >        2       38       39       43       80 </v>
   <v type="int" >        2       38       39       75       80 </v>
   <v type="int" >        2       39       44       80       81 </v>
   <v type="int" >        2       39       76       80       81 </v>
   <v type="int" >        2       39       75       76       80 </v>
   <v type="int" >        2       40       44       45       81 </v>
   <v type="int" >        2       39       40       44       81 </v>
   <v type="int" >        2       39       40       76       81 </v>
   <v type="int" >        2       40       45       81       82 </v>
   <v type="int" >        2       40       77       81       82 </v>
   <v type="int" >        2       40       76       77       81 </v>
   <v type="int" >        2       41       45       46       82 </v>
   <v type="int" >        2       40       41       45       82 </v>
   <v type="int" >        2       40       41       77       82 </v>
   <v type="int" >        2       41       46       82       83 </v>
   <v type="int" >        2       41       78       82       83 </v>
   <v type="int" >        2       41       77       78       82 </v>
   <v type="int" >        2       42       46       47       83 </v>
   <v type="int" >        2       41       42       46       83 </v>
   <v type="int" >        2       41       42       78       83 </v>
   <v type="int" >        2       42       47       83       84 </v>
   <v type="int" >        2       42       79       83       84 </v>
   <v type="int" >        2       42       78       79       83 </v>
   <v type="int" >        2       41       47       48       84 </v>
   <v type="int" >        2       41       42       47       84 </v>
   <v type="int" >        2       41       42       79       84 </v>
   <v type="int" >        2       41       48       84       85 </v>
   <v type="int" >        2       41       78       84       85 </v>
   <v type="int" >        2       41       78       79       84 </v>
   <v type="int" >        2       40       48       49       85 </v>
   <v type="int" >        2       40       41       48       85 </v>
   <v type="int" >        2       40       41       78       85 </v>
   <v type="int" >        2       40       49       85       86 </v>
   <v type="int" >        2       40       77       85       86 </v>
   <v type="int" >        2       40       77       78       85 </v>
   <v type="int" >        2       39       49       50       86 </v>
   <v type="int" >        2       39       40       49       86 </v>
   <v type="int" >        2       39       40       77       86 </v>
   <v type="int" >        2       39       50       86       87 </v>
   <v type="int" >        2       39       76       86       87 </v>
   <v type="int" >        2       39       76       77       86 </v>
   <v type="int" >        2       38       43       50       87 </v>
   <v type="int" >        2       38       39       50       87 </v>
   <v type="int" >        2       38       39       76       87 </v>
   <v type="int" >        2       38       43       80       87 </v>
   <v type="int" >        2       38       75       80       87 </v>
   <v type="int" >        2       38       75       76       87 </v>
   <v type="int" >        2       44       51       52       88 </v>
   <v type="int" >        2       43       44       51       88 </v>
   <v type="int" >        2       43       44       80       88 </v>
   <v type="int" >        2       44       52       88       89 </v>
   <v type="int" >        2       44       81       88       89 </v>
   <v type="int" >        2       44       80       81       88 </v>
   <v type="int" >        2       45       52       53       89 </v>
   <v type="int" >        2       44       45       52       89 </v>
   <v type="int" >        2       44       45       81       89 </v>
   <v type="int" >        2       45       53       89       90 </v>
   <v type="int" >        2       45       82       89       90 </v>
   <v type="int" >        2       45       81       82       89 </v>
   <v type="int" >        2       46       53       54       90 </v>
   <v type="int" >        2       45       46       53       90 </v>
   <v type="int" >        2       45       46       82       90 </v>
   <v type="int" >        2       46       54       90       91 </v>
   <v type="int" >        2       46       83       90       91 </v>
   <v type="int" >        2       46       82       83       90 </v>
   <v type="int" >        2       47       54       55       91 </v>
   <v type="int" >        2       46       47       54       91 </v>
   <v type="int" >        2       46       47       83       91 </v>
   <v type="int" >        2       47       55       91       92 </v>
   <v type="int" >        2       47       84       91       92 </v>
   <v type="int" >        2       47       83       84       91 </v>
   <v type="int" >        2       48       55       56       92 </v>
   <v type="int" >        2       47       48       55       92 </v>
   <v type="int" >        2       47       48       84       92 </v>
   <v type="int" >        2       48       56       92       93 </v>
   <v type="int" >        2       48       85       92       93 </v>
   <v type="int" >        2       48       84       85       92 </v>
   <v type="int" >        2       49       56       57       93 </v>
   <v type="int" >        2       48       49       56       93 </v>
   <v type="int" >        2       48       49       85       93 </v>
   <v type="int" >        2       49       57       93       94 </v>
   <v type="int" >        2       49       86       93       94 </v>
   <v type="int" >        2       49       85       86       93 </v>
   <v type="int" >        2       50       57       58       94 </v>
   <v type="int" >        2       49       50       57       94 </v>
   <v type="int" >        2       49       50       86       94 </v>
   <v type="int" >        2       50       58       94       95 </v>
   <v type="int" >        2       50       87       94       95 </v>
   <v type="int" >        2       50       86       87       94 </v>
   <v type="int" >        2       43       51       58       95 </v>
   <v type="int" >        2       43       50       58       95 </v>
   <v type="int" >        2       43       50       87       95 </v>
   <v type="int" >        2       43       51       88       95 </v>
   <v type="int" >        2       43       80       88       95 </v>
   <v type="int" >        2       43       80       87       95 </v>
   <v type="int" >        2       52       59       60       96 </v>
   <v type="int" >        2       51       52       59       96 </v>
   <v type="int" >        2       51       52       88       96 </v>
   <v type="int" >        2       52       60       96       97 </v>
   <v type="int" >        2       52       89       96       97 </v>
   <v type="int" >        2       52       88       89       96 </v>
   <v type="int" >        2       53       60       61       97 </v>
   <v type="int" >        2       52       53       60       97 </v>
   <v type="int" >        2       52       53       89       97 </v>
   <v type="int" >        2       53       61       97       98 </v>
   <v type="int" >        2       53       90       97       98 </v>
   <v type="int" >        2       53       89       90       97 </v>
   <v type="int" >        2       54       61       62       98 </v>
   <v type="int" >        2       53       54       61       98 </v>
   <v type="int" >        2       53       54       90       98 </v>
   <v type="int" >        2       54       62       98       99 </v>
   <v type="int" >        2       54       91       98       99 </v>
   <v type="int" >        2       54       90       91       98 </v>
   <v type="int" >        2       55       62       63       99 </v>
   <v type="int" >        2       54       55       62       99 </v>
   <v type="int" >        2       54       55       91       99 </v>
   <v type="int" >        2       55       63       99      100 </v>
   <v type="int" >        2       55       92       99      100 </v>
   <v type="int" >        2       55       91       92       99 </v>
   <v type="int" >        2       56       63       64      100 </v>
   <v type="int" >        2       55       56       63      100 </v>
   <v type="int" >        2       55       56       92      100 </v>
   <v type="int" >        2       56       64      100      101 </v>
   <v type="int" >        2       56       93      100      101 </v>
   <v type="int" >        2       56       92       93      100 </v>
   <v type="int" >        2       57       64       65      101 </v>
   <v type="int" >        2       56       57       64      101 </v>
   <v type="int" >        2       56       57       93      101 </v>
   <v type="int" >        2       57       65      101      102 </v>
   <v type="int" >        2       57       94      101      102 </v>
   <v type="int" >        2       57       93       94      101 </v>
   <v type="int" >        2       58       65       66      102 </v>
   <v type="int" >        2       57       58       65      102 </v>
   <v type="int" >        2       57       58       94      102 </v>
   <v type="int" >        2       58       66      102      103 </v>
   <v type="int" >        2       58       95      102      103 </v>
   <v type="int" >        2       58       94       95      102 </v>
   <v type="int" >        2       51       59       66      103 </v>
   <v type="int" >        2       51       58       66      103 </v>
   <v type="int" >        2       51       58       95      103 </v>
   <v type="int" >        2       51       59       96      103 </v>
   <v type="int" >        2       51       88       96      103 </v>
   <v type="int" >        2       51       88       95      103 </v>
   <v type="int" >        2       60       67       68      104 </v>
   <v type="int" >        2       59       60       67      104 </v>
   <v type="int" >        2       59       60       96      104 </v>
   <v type="int" >        2       60       68      104      105 </v>
   <v type="int" >        2       60       97      104      105 </v>
   <v type="int" >        2       60       96       97      104 </v>
   <v type="int" >        2       61       68       69      105 </v>
   <v type="int" >        2       60       61       68      105 </v>
   <v type="int" >        2       60       61       97      105 </v>
   <v type="int" >        2       61       69      105      106 </v>
   <v type="int" >        2       61       98      105      106 </v>
   <v type="int" >        2       61       97       98      105 </v>
   <v type="int" >        2       62       69       70      106 </v>
   <v type="int" >        2       61       62       69      106 </v>
   <v type="int" >        2       61       62       98      106 </v>
   <v type="int" >        2       62       70      106      107 </v>
   <v type="int" >        2       62       99      106      107 </v>
   <v type="int" >        2       62       98       99      106 </v>
   <v type="int" >        2       63       70       71      107 </v>
   <v type="int" >        2       62       63       70      107 </v>
   <v type="int" >        2       62       63       99      107 </v>
   <v type="int" >        2       63       71      107      108 </v>
   <v type="int" >        2       63      100      107      108 </v>
   <v type="int" >        2       63       99      100      107 </v>
   <v type="int" >        2       64       71       72      108 </v>
   <v type="int" >        2       63       64       71      108 </v>
   <v type="int" >        2       63       64      100      108 </v>
   <v type="int" >        2       64       72      108      109 </v>
   <v type="int" >        2       64      101      108      109 </v>
   <v type="int" >        2       64      100      101      108 </v>
   <v type="int" >        2       65       72       73      109 </v>
   <v type="int" >        2       64       65       72      109 </v>
   <v type="int" >        2       64       65      101      109 </v>
   <v type="int" >        2       65       73      109      110 </v>
   <v type="int" >        2       65      102      109      110 </v>
   <v type="int" >        2       65      101      102      109 </v>
   <v type="int" >        2       66       73       74      110 </v>
   <v type="int" >        2       65       66       73      110 </v>
   <v type="int" >        2       65       66      102      110 </v>
   <v type="int" >        2       66       74      110      111 </v>
   <v type="int" >        2       66      103      110      111 </v>
   <v type="int" >        2       66      102      103      110 </v>
   <v type="int" >        2       59       67       74      111 </v>
   <v type="int" >        2       59       66       74      111 </v>
   <v type="int" >        2       59       66      103      111 </v>
   <v type="int" >        2       59       67      104      111 </v>
   <v type="int" >        2       59       96      104      111 </v>
   <v type="int" >        2       59       96      103      111 </v>
   <v type="int" >        2       67       68       74      104 </v>
   <v type="int" >        2       67       67       68      104 </v>
   <v type="int" >        2       67       68      104      104 </v>
   <v type="int" >        2       68       74      104      111 </v>
   <v type="int" >        2       68      104      105      111 </v>
   <v type="int" >        2       68      104      104      105 </v>
   <v type="int" >        2       69       73       74      111 </v>
   <v type="int" >        2       68       69       74      111 </v>
   <v type="int" >        2       68       69      105      111 </v>
   <v type="int" >        2       69       73      110      111 </v>
   <v type="int" >        2       69      106      110      111 </v>
   <v type="int" >        2       69      105      106      111 </v>
   <v type="int" >        2       70       72       73      110 </v>
   <v type="int" >        2       69       70       73      110 </v>
   <v type="int" >        2       69       70      106      110 </v>
   <v type="int" >        2       70       72      109      110 </v>
   <v type="int" >        2       70      107      109      110 </v>
   <v type="int" >        2       70      106      107      110 </v>
   <v type="int" >        2       71       71       72      109 </v>
   <v type="int" >        2       70       71       72      109 </v>
   <v type="int" >        2       70       71      107      109 </v>
   <v type="int" >        2       71       71      108      109 </v>
   <v type="int" >        2       71      108      108      109 </v>
   <v type="int" >        2       71      107      108      109 </v>
   <v type="int" >        2       70       71       72      108 </v>
   <v type="int" >        2       71       71       72      108 </v>
   <v type="int" >        2       71       72      108      108 </v>
   <v type="int" >        2       70       72      107      108 </v>
   <v type="int" >        2       72      107      108      109 </v>
   <v type="int" >        2       72      108      108      109 </v>
   <v type="int" >        2       69       70       73      107 </v>
   <v type="int" >        2       70       72       73      107 </v>
   <v type="int" >        2       72       73      107      109 </v>
   <v type="int" >        2       69       73      106      107 </v>
   <v type="int" >        2       73      106      107      110 </v>
   <v type="int" >        2       73      107      109      110 </v>
   <v type="int" >        2       68       69       74      106 </v>
   <v type="int" >        2       69       73       74      106 </v>
   <v type="int" >        2       73       74      106      110 </v>
   <v type="int" >        2       68       74      105      106 </v>
   <v type="int" >        2       74      105      106      111 </v>
   <v type="int" >        2       74      106      110      111 </v>
   <v type="int" >        2       67       67       68      105 </v>
   <v type="int" >        2       67       68       74      105 </v>
   <v type="int" >        2       67       74      105      111 </v>
   <v type="int" >        2       67       67      104      105 </v>
   <v type="int" >        2       67      104      104      105 </v>
   <v type="int" >        2       67      104      105      111 </v>
   <v type="int" >        2       59       66       74       96 </v>
   <v type="int" >        2       59       67       74       96 </v>
   <v type="int" >        2       67       74       96      104 </v>
   <v type="int" >        2       66       74       96      103 </v>
   <v type="int" >        2       74       96      103      111 </v>
   <v type="int" >        2       74       96      104      111 </v>
   <v type="int" >        2       65       66       73      103 </v>
   <v type="int" >        2       66       73       74      103 </v>
   <v type="int" >        2       73       74      103      111 </v>
   <v type="int" >        2       65       73      102      103 </v>
   <v type="int" >        2       73      102      103      110 </v>
   <v type="int" >        2       73      103      110      111 </v>
   <v type="int" >        2       64       65       72      102 </v>
   <v type="int" >        2       65       72       73      102 </v>
   <v type="int" >        2       72       73      102      110 </v>
   <v type="int" >        2       64       72      101      102 </v>
   <v type="int" >        2       72      101      102      109 </v>
   <v type="int" >        2       72      102      109      110 </v>
   <v type="int" >        2       63       64       71      101 </v>
   <v type="int" >        2       64       71       72      101 </v>
   <v type="int" >        2       71       72      101      109 </v>
   <v type="int" >        2       63       71      100      101 </v>
   <v type="int" >        2       71      100      101      108 </v>
   <v type="int" >        2       71      101      108      109 </v>
   <v type="int" >        2       62       63       70      100 </v>
   <v type="int" >        2       63       70       71      100 </v>
   <v type="int" >        2       70       71      100      108 </v>
   <v type="int" >        2       62       70       99      100 </v>
   <v type="int" >        2       70       99      100      107 </v>
   <v type="int" >        2       70      100      107      108 </v>
   <v type="int" >        2       61       62       69       99 </v>
   <v type="int" >        2       62       69       70       99 </v>
   <v type="int" >        2       69       70       99      107 </v>
   <v type="int" >        2       61       69       98       99 </v>
   <v type="int" >        2       69       98       99      106 </v>
   <v type="int" >        2       69       99      106      107 </v>
   <v type="int" >        2       60       61       68       98 </v>
   <v type="int" >        2       61       68       69       98 </v>
   <v type="int" >        2       68       69       98      106 </v>
   <v type="int" >        2       60       68       97       98 </v>
   <v type="int" >        2       68       97       98      105 </v>
   <v type="int" >        2       68       98      105      106 </v>
   <v type="int" >        2       59       60       67       97 </v>
   <v type="int" >        2       60       67       68       97 </v>
   <v type="int" >        2       67       68       97      105 </v>
   <v type="int" >        2       59       67       96       97 </v>
   <v type="int" >        2       67       96       97      104 </v>
   <v type="int" >        2       67       97      104      105 </v>
   <v type="int" >        2       51       58       66       88 </v>
   <v type="int" >        2       51       59       66       88 </v>
   <v type="int" >        2       59       66       88       96 </v>
   <v type="int" >        2       58       66       88       95 </v>
   <v type="int" >        2       66       88       95      103 </v>
   <v type="int" >        2       66       88       96      103 </v>
   <v type="int" >        2       57       58       65       95 </v>
   <v type="int" >        2       58       65       66       95 </v>
   <v type="int" >        2       65       66       95      103 </v>
   <v type="int" >        2       57       65       94       95 </v>
   <v type="int" >        2       65       94       95      102 </v>
   <v type="int" >        2       65       95      102      103 </v>
   <v type="int" >        2       56       57       64       94 </v>
   <v type="int" >        2       57       64       65       94 </v>
   <v type="int" >        2       64       65       94      102 </v>
   <v type="int" >        2       56       64       93       94 </v>
   <v type="int" >        2       64       93       94      101 </v>
   <v type="int" >        2       64       94      101      102 </v>
   <v type="int" >        2       55       56       63       93 </v>
   <v type="int" >        2       56       63       64       93 </v>
   <v type="int" >        2       63       64       93      101 </v>
   <v type="int" >        2       55       63       92       93 </v>
   <v type="int" >        2       63       92       93      100 </v>
   <v type="int" >        2       63       93      100      101 </v>
   <v type="int" >        2       54       55       62       92 </v>
   <v type="int" >        2       55       62       63       92 </v>
   <v type="int" >        2       62       63       92      100 </v>
   <v type="int" >        2       54       62       91       92 </v>
   <v type="int" >        2       62       91       92       99 </v>
   <v type="int" >        2       62       92       99      100 </v>
   <v type="int" >        2       53       54       61       91 </v>
   <v type="int" >        2       54       61       62       91 </v>
   <v type="int" >        2       61       62       91       99 </v>
   <v type="int" >        2       53       61       90       91 </v>
   <v type="int" >        2       61       90       91       98 </v>
   <v type="int" >        2       61       91       98       99 </v>
   <v type="int" >        2       52       53       60       90 </v>
   <v type="int" >        2       53       60       61       90 </v>
   <v type="int" >        2       60       61       90       98 </v>
   <v type="int" >        2       52       60       89       90 </v>
   <v type="int" >        2       60       89       90       97 </v>
   <v type="int" >        2       60       90       97       98 </v>
   <v type="int" >        2       51       52       59       89 </v>
   <v type="int" >        2       52       59       60       89 </v>
   <v type="int" >        2       59       60       89       97 </v>
   <v type="int" >        2       51       59       88       89 </v>
   <v type="int" >        2       59       88       89       96 </v>
   <v type="int" >        2       59       89       96       97 </v>
   <v type="int" >        2       43       50       58       80 </v>
   <v type="int" >        2       43       51       58       80 </v>
   <v type="int" >        2       51       58       80       88 </v>
   <v type="int" >        2       50       58       80       87 </v>
   <v type="int" >        2       58       80       87       95 </v>
   <v type="int" >        2       58       80       88       95 </v>
   <v type="int" >        2       49       50       57       87 </v>
   <v type="int" >        2       50       57       58       87 </v>
   <v type="int" >        2       57       58       87       95 </v>
   <v type="int" >        2       49       57       86       87 </v>
   <v type="int" >        2       57       86       87       94 </v>
   <v type="int" >        2       57       87       94       95 </v>
   <v type="int" >        2       48       49       56       86 </v>
   <v type="int" >        2       49       56       57       86 </v>
   <v type="int" >        2       56       57       86       94 </v>
   <v type="int" >        2       48       56       85       86 </v>
   <v type="int" >        2       56       85       86       93 </v>
   <v type="int" >        2       56       86       93       94 </v>
   <v type="int" >        2       47       48       55       85 </v>
   <v type="int" >        2       48       55       56       85 </v>
   <v type="int" >        2       55       56       85       93 </v>
   <v type="int" >        2       47       55       84       85 </v>
   <v type="int" >        2       55       84       85       92 </v>
   <v type="int" >        2       55       85       92       93 </v>
   <v type="int" >        2       46       47       54       84 </v>
   <v type="int" >        2       47       54       55       84 </v>
   <v type="int" >        2       54       55       84       92 </v>
   <v type="int" >        2       46       54       83       84 </v>
   <v type="int" >        2       54       83       84       91 </v>
   <v type="int" >        2       54       84       91       92 </v>
   <v type="int" >        2       45       46       53       83 </v>
   <v type="int" >        2       46       53       54       83 </v>
   <v type="int" >        2       53       54       83       91 </v>
   <v type="int" >        2       45       53       82       83 </v>
   <v type="int" >        2       53       82       83       90 </v>
   <v type="int" >        2       53       83       90       91 </v>
   <v type="int" >        2       44       45       52       82 </v>
   <v type="int" >        2       45       52       53       82 </v>
   <v type="int" >        2       52       53       82       90 </v>
   <v type="int" >        2       44       52       81       82 </v>
   <v type="int" >        2       52       81       82       89 </v>
   <v type="int" >        2       52       82       89       90 </v>
   <v type="int" >        2       43       44       51       81 </v>
   <v type="int" >        2       44       51       52       81 </v>
   <v type="int" >        2       51       52       81       89 </v>
   <v type="int" >        2       43       51       80       81 </v>
   <v type="int" >        2       51       80       81       88 </v>
   <v type="int" >        2       51       81       88       89 </v>
   <v type="int" >        2       38       39       50       75 </v>
   <v type="int" >        2       38       43       50       75 </v>
   <v type="int" >        2       43       50       75       80 </v>
   <v type="int" >        2       39       50       75       76 </v>
   <v type="int" >        2       50       75       76       87 </v>
   <v type="int" >        2       50       75       80       87 </v>
   <v type="int" >        2       39       40       49       76 </v>
   <v type="int" >        2       39       49       50       76 </v>
   <v type="int" >        2       49       50       76       87 </v>
   <v type="int" >        2       40       49       76       77 </v>
   <v type="int" >        2       49       76       77       86 </v>
   <v type="int" >        2       49       76       86       87 </v>
   <v type="int" >        2       40       41       48       77 </v>
   <v type="int" >        2       40       48       49       77 </v>
   <v type="int" >        2       48       49       77       86 </v>
   <v type="int" >        2       41       48       77       78 </v>
   <v type="int" >        2       48       77       78       85 </v>
   <v type="int" >        2       48       77       85       86 </v>
   <v type="int" >        2       41       42       47       78 </v>
   <v type="int" >        2       41       47       48       78 </v>
   <v type="int" >        2       47       48       78       85 </v>
   <v type="int" >        2       42       47       78       79 </v>
   <v type="int" >        2       47       78       79       84 </v>
   <v type="int" >        2       47       78       84       85 </v>
   <v type="int" >        2       41       42       46       79 </v>
   <v type="int" >        2       42       46       47       79 </v>
   <v type="int" >        2       46       47       79       84 </v>
   <v type="int" >        2       41       46       78       79 </v>
   <v type="int" >        2       46       78       79       83 </v>
   <v type="int" >        2       46       79       83       84 </v>
   <v type="int" >        2       40       41       45       78 </v>
   <v type="int" >        2       41       45       46       78 </v>
   <v type="int" >        2       45       46       78       83 </v>
   <v type="int" >        2       40       45       77       78 </v>
   <v type="int" >        2       45       77       78       82 </v>
   <v type="int" >        2       45       78       82       83 </v>
   <v type="int" >        2       39       40       44       77 </v>
   <v type="int" >        2       40       44       45       77 </v>
   <v type="int" >        2       44       45       77       82 </v>
   <v type="int" >        2       39       44       76       77 </v>
   <v type="int" >        2       44       76       77       81 </v>
   <v type="int" >        2       44       77       81       82 </v>
   <v type="int" >        2       38       39       43       76 </v>
   <v type="int" >        2       39       43       44       76 </v>
   <v type="int" >        2       43       44       76       81 </v>
   <v type="int" >        2       38       43       75       76 </v>
   <v type="int" >        2       43       75       76       80 </v>
   <v type="int" >        2       43       76       80       81 </v>
  </varray>
  <i name="volumeweight">      0.00057870 </i>
 </kpoints>
 <parameters>
  <separator name="general" >
   <i type="string" name="SYSTEM">unknown system</i>
   <i type="logical" name="LCOMPAT"> F  </i>
  </separator>
  <separator name="electronic" >
   <i type="string" name="PREC">accura</i>
   <i name="ENMAX">    520.00000000</i>
   <i name="ENAUG">    628.94500000</i>
   <i name="EDIFF">      0.00001000</i>
   <i type="int" name="IALGO">    68</i>
   <i type="int" name="IWAVPR">    10</i>
   <i type="int" name="NBANDS">    22</i>
   <i type="int" name="NBANDSLOW">    -1</i>
   <i type="int" name="NBANDSHIGH">    -1</i>
   <i name="NELECT">     28.00000000</i>
   <i type="int" name="TURBO">     0</i>
   <i type="int" name="IRESTART">     0</i>
   <i type="int" name="NREBOOT">     0</i>
   <i type="int" name="NMIN">     0</i>
   <i name="EREF">      0.00000000</i>
   <separator name="electronic smearing" >
    <i type="int" name="ISMEAR">    -5</i>
    <i name="SIGMA">      0.05000000</i>
    <i name="KSPACING">      0.50000000</i>
    <i type="logical" name="KGAMMA"> T  </i>
    <i type="logical" name="KBLOWUP"> T  </i>
   </separator>
   <separator name="electronic projectors" >
    <i type="logical" name="LREAL"> T  </i>
    <v name="ROPT">     -0.00025000     -0.00025000</v>
    <i type="int" name="LMAXPAW">  -100</i>
    <i type="int" name="LMAXMIX">     2</i>
    <i type="logical" name="NLSPLINE"> F  </i>
   </separator>
   <separator name="electronic startup" >
    <i type="int" name="ISTART">     0</i>
    <i type="int" name="ICHARG">     2</i>
    <i type="int" name="INIWAV">     1</i>
   </separator>
   <separator name="electronic spin" >
    <i type="int" name="ISPIN">     2</i>
    <i type="logical" name="LNONCOLLINEAR"> F  </i>
    <v name="MAGMOM">      0.60000000      0.60000000      0.60000000      0.60000000      0.60000000      0.60000000      0.60000000      0.60000000</v>
    <i name="NUPDOWN">     -1.00000000</i>
    <i type="logical" name="LSORBIT"> F  </i>
    <v name="SAXIS">      0.00000000      0.00000000      1.00000000</v>
    <i type="logical" name="LSPIRAL"> F  </i>
    <v name="QSPIRAL">      0.00000000      0.00000000      0.00000000</v>
    <i type="logical" name="LZEROZ"> F  </i>
   </separator>
   <separator name="electronic exchange-correlation" >
    <i type="logical" name="LASPH"> T  </i>
    <i type="logical" name="LMETAGGA"> F  </i>
   </separator>
   <separator name="electronic convergence" >
    <i type="int" name="NELM">   100</i>
    <i type="int" name="NELMDL">    -5</i>
    <i type="int" name="NELMIN">     2</i>
    <i name="ENINI">    520.00000000</i>
    <separator name="electronic convergence detail" >
     <i type="logical" name="LDIAG"> T  </i>
     <i type="logical" name="LSUBROT"> F  </i>
     <i name="WEIMIN">      0.00000000</i>
     <i name="EBREAK">      0.00000011</i>
     <i name="DEPER">      0.30000000</i>
     <i type="int" name="NRMM">     4</i>
     <i name="TIME">      0.40000000</i>
    </separator>
   </separator>
   <separator name="electronic mixer" >
    <i name="AMIX">      0.40000000</i>
    <i name="BMIX">      1.00000000</i>
    <i name="AMIN">      0.10000000</i>
    <i name="AMIX_MAG">      1.60000000</i>
    <i name="BMIX_MAG">      1.00000000</i>
    <separator name="electronic mixer details" >
     <i type="int" name="IMIX">     4</i>
     <i type="logical" name="MIXFIRST"> F  </i>
     <i type="int" name="MAXMIX">   -45</i>
     <i name="WC">    100.00000000</i>
     <i type="int" name="INIMIX">     1</i>
     <i type="int" name="MIXPRE">     1</i>
     <i type="int" name="MREMOVE">     5</i>
    </separator>
   </separator>
   <separator name="electronic dipolcorrection" >
    <i type="logical" name="LDIPOL"> F  </i>
    <i type="logical" name="LMONO"> F  </i>
    <i type="int" name="IDIPOL">     0</i>
    <i name="EPSILON">      1.00000000</i>
    <v name="DIPOL">   -100.00000000   -100.00000000   -100.00000000</v>
    <i name="EFIELD">      0.00000000</i>
   </separator>
  </separator>
  <separator name="grids" >
   <i type="int" name="NGX">    36</i>
   <i type="int" name="NGY">    32</i>
   <i type="int" name="NGZ">    56</i>
   <i type="int" name="NGXF">    72</i>
   <i type="int" name="NGYF">    64</i>
   <i type="int" name="NGZF">   112</i>
   <i type="logical" name="ADDGRID"> F  </i>
  </separator>
  <separator name="ionic" >
   <i type="int" name="NSW">     0</i>
   <i type="int" name="IBRION">    -1</i>
   <i type="int" name="MDALGO">     0</i>
   <i type="int" name="ISIF">     2</i>
   <i name="PSTRESS">      0.00000000</i>
   <i name="EDIFFG">      0.00010000</i>
   <i type="int" name="NFREE">     0</i>
   <i name="POTIM">      0.50000000</i>
   <i name="SMASS">     -3.00000000</i>
   <i name="SCALEE">      1.00000000</i>
  </separator>
  <separator name="ionic md" >
   <i name="TEBEG">      0.00010000</i>
   <i name="TEEND">      0.00010000</i>
   <i type="int" name="NBLOCK">     1</i>
   <i type="int" name="KBLOCK">     1</i>
   <i type="int" name="NPACO">   256</i>
   <i name="APACO">     16.00000000</i>
  </separator>
  <separator name="symmetry" >
   <i type="int" name="ISYM">     2</i>
   <i name="SYMPREC">      0.00001000</i>
  </separator>
  <separator name="dos" >
   <i type="int" name="LORBIT">    11</i>
   <v name="RWIGS">     -1.00000000     -1.00000000</v>
   <i type="int" name="NEDOS">   301</i>
   <i name="EMIN">     10.00000000</i>
   <i name="EMAX">    -10.00000000</i>
   <i name="EFERMI">      0.00000000</i>
  </separator>
  <separator name="writing" >
   <i type="int" name="NWRITE">     2</i>
   <i type="logical" name="LWAVE"> F  </i>
   <i type="logical" name="LDOWNSAMPLE"> F  </i>
   <i type="logical" name="LCHARG"> F  </i>
   <i type="logical" name="LPARD"> F  </i>
   <i type="logical" name="LVTOT"> F  </i>
   <i type="logical" name="LVHAR"> F  </i>
   <i type="logical" name="LELF"> F  </i>
   <i type="logical" name="LOPTICS"> F  </i>
   <v name="STM">      0.00000000      0.00000000      0.00000000      0.00000000      0.00000000      0.00000000      0.00000000</v>
  </separator>
  <separator name="performance" >
   <i type="int" name="NPAR">     2</i>
   <i type="int" name="NSIM">     4</i>
   <i type="int" name="NBLK">    -1</i>
   <i type="logical" name="LPLANE"> T  </i>
   <i type="logical" name="LSCALAPACK"> T  </i>
   <i type="logical" name="LSCAAWARE"> F  </i>
   <i type="logical" name="LSCALU"> F  </i>
   <i type="logical" name="LASYNC"> F  </i>
   <i type="logical" name="LORBITALREAL"> F  </i>
  </separator>
  <separator name="miscellaneous" >
   <i type="int" name="IDIOT">     3</i>
   <i type="int" name="PHON_NSTRUCT">    -1</i>
   <i type="logical" name="LMUSIC"> F  </i>
   <v name="POMASS">      7.01000000     30.97400000</v>
   <v name="DARWINR">      0.00000000      0.00000000</v>
   <v name="DARWINV">      1.00000000      1.00000000</v>
   <i type="logical" name="LCORR"> T  </i>
  </separator>
  <i type="logical" name="GGA_COMPAT"> T  </i>
  <i type="logical" name="LBERRY"> F  </i>
  <i type="int" name="ICORELEVEL">     0</i>
  <i type="logical" name="LDAU"> F  </i>
  <i type="int" name="I_CONSTRAINED_M">     0</i>
  <separator name="electronic exchange-correlation" >
   <i type="string" name="GGA">--</i>
   <i type="int" name="VOSKOWN">     0</i>
   <i type="logical" name="LHFCALC"> F  </i>
   <i type="string" name="PRECFOCK"></i>
   <i type="logical" name="LSYMGRAD"> F  </i>
   <i type="logical" name="LHFONE"> F  </i>
   <i type="logical" name="LRHFCALC"> F  </i>
   <i type="logical" name="LTHOMAS"> F  </i>
   <i type="logical" name="LMODELHF"> F  </i>
   <i type="logical" name="LFOCKACE"> F  </i>
   <i name="ENCUT4O">     -1.00000000</i>
   <i type="int" name="EXXOEP">     0</i>
   <i type="int" name="FOURORBIT">     0</i>
   <i name="AEXX">      0.00000000</i>
   <i name="HFALPHA">      0.00000000</i>
   <i name="MCALPHA">      0.00000000</i>
   <i name="ALDAX">      1.00000000</i>
   <i name="AGGAX">      1.00000000</i>
   <i name="ALDAC">      1.00000000</i>
   <i name="AGGAC">      1.00000000</i>
   <i type="int" name="NKREDX">     1</i>
   <i type="int" name="NKREDY">     1</i>
   <i type="int" name="NKREDZ">     1</i>
   <i type="logical" name="SHIFTRED"> F  </i>
   <i type="logical" name="ODDONLY"> F  </i>
   <i type="logical" name="EVENONLY"> F  </i>
   <i type="int" name="LMAXFOCK">     0</i>
   <i type="int" name="NMAXFOCKAE">     0</i>
   <i type="logical" name="LFOCKAEDFT"> F  </i>
   <i name="HFSCREEN">      0.00000000</i>
   <i name="HFSCREENC">      0.00000000</i>
   <i type="int" name="NBANDSGWLOW">     0</i>
  </separator>
  <separator name="vdW DFT" >
   <i type="logical" name="LUSE_VDW"> F  </i>
   <i name="Zab_VDW">     -0.84910000</i>
   <i name="PARAM1">      0.12340000</i>
   <i name="PARAM2">      1.00000000</i>
   <i name="PARAM3">      0.00000000</i>
  </separator>
  <separator name="model GW" >
   <i type="int" name="MODEL_GW">     0</i>
   <i name="MODEL_EPS0">      9.61697089</i>
   <i name="MODEL_ALPHA">      1.00000000</i>
  </separator>
  <separator name="linear response parameters" >
   <i type="logical" name="LEPSILON"> F  </i>
   <i type="logical" name="LRPA"> F  </i>
   <i type="logical" name="LNABLA"> F  </i>
   <i type="logical" name="LVEL"> F  </i>
   <i type="int" name="KINTER">     0</i>
   <i name="CSHIFT">      0.10000000</i>
   <i name="OMEGAMAX">     -1.00000000</i>
   <i name="DEG_THRESHOLD">      0.00200000</i>
   <i name="RTIME">     -0.10000000</i>
   <i name="WPLASMAI">      0.00000000</i>
   <v name="DFIELD">      0.00000000      0.00000000      0.00000000</v>
   <v name="WPLASMA">      0.00000000      0.00000000      0.00000000      0.00000000      0.00000000      0.00000000      0.00000000      0.00000000      0.00000000</v>
  </separator>
  <separator name="orbital magnetization" >
   <i type="logical" name="NUCIND"> F  </i>
   <v name="MAGPOS">      0.00000000      0.00000000      0.00000000</v>
   <i type="logical" name="LNICSALL"> T  </i>
   <i type="logical" name="ORBITALMAG"> F  </i>
   <i type="logical" name="LMAGBLOCH"> F  </i>
   <i type="logical" name="LCHIMAG"> F  </i>
   <i type="logical" name="LGAUGE"> T  </i>
   <i type="int" name="MAGATOM">     0</i>
   <v name="MAGDIPOL">      0.00000000      0.00000000      0.00000000</v>
   <v name="AVECCONST">      0.00000000      0.00000000      0.00000000</v>
  </separator>
  <separator name="response functions" >
   <i type="logical" name="LFINITE_TEMPERATURE"> F  </i>
   <i type="logical" name="LADDER"> F  </i>
   <i type="logical" name="LRPAFORCE"> F  </i>
   <i type="logical" name="LFXC"> F  </i>
   <i type="logical" name="LHARTREE"> T  </i>
   <i type="int" name="IBSE">     0</i>
   <v type="int" name="KPOINT">    -1     0     0     0</v>
   <i type="logical" name="LTCTC"> F  </i>
   <i type="logical" name="LTCTE"> F  </i>
   <i type="logical" name="LTETE"> F  </i>
   <i type="logical" name="LTRIPLET"> F  </i>
   <i type="logical" name="LFXCEPS"> F  </i>
   <i type="logical" name="LFXHEG"> F  </i>
   <i type="int" name="NATURALO">     2</i>
   <i type="logical" name="LHOLEGF"> F  </i>
   <i type="logical" name="L2ORDER"> F  </i>
   <i type="logical" name="LDMP1"> F  </i>
   <i type="logical" name="LMP2LT"> F  </i>
   <i type="logical" name="LSMP2LT"> F  </i>
   <i type="logical" name="LGWLF"> F  </i>
   <i name="ENCUTGW">     -2.00000000</i>
   <i name="ENCUTGWSOFT">     -2.00000000</i>
   <i name="ENCUTLF">     -1.00000000</i>
   <i type="logical" name="LESF_SPLINES"> F  </i>
   <i type="int" name="LMAXMP2">    -1</i>
   <i name="SCISSOR">      0.00000000</i>
   <i type="int" name="NOMEGA">     0</i>
   <i type="int" name="NOMEGAR">     0</i>
   <i type="int" name="NBANDSGW">    -1</i>
   <i type="int" name="NBANDSO">    -1</i>
   <i type="int" name="NBANDSV">    -1</i>
   <i type="int" name="NELM">   100</i>
   <i type="int" name="NELMHF">     1</i>
   <i type="int" name="DIM">     3</i>
   <i type="int" name="IESPILON">     4</i>
   <i type="int" name="ANTIRES">     0</i>
   <i name="OMEGAMAX">    -30.00000000</i>
   <i name="OMEGAMIN">    -30.00000000</i>
   <i name="OMEGATL">   -200.00000000</i>
   <i type="int" name="OMEGAGRID">     0</i>
   <i name="CSHIFT">     -0.10000000</i>
   <i type="logical" name="LSELFENERGY"> F  </i>
   <i type="logical" name="LSPECTRAL"> F  </i>
   <i type="logical" name="LSPECTRALGW"> F  </i>
   <i type="logical" name="LSINGLES"> F  </i>
   <i type="logical" name="LFERMIGW"> F  </i>
   <i type="logical" name="ODDONLYGW"> F  </i>
   <i type="logical" name="EVENONLYGW"> F  </i>
   <i type="int" name="NKREDLFX">     1</i>
   <i type="int" name="NKREDLFY">     1</i>
   <i type="int" name="NKREDLFZ">     1</i>
   <i type="int" name="MAXMEM">  2800</i>
   <i type="int" name="TELESCOPE">     0</i>
   <i type="int" name="NTAUPAR">    -1</i>
   <i type="int" name="NOMEGAPAR">    -1</i>
   <i name="LAMBDA">      1.00000000</i>
  </separator>
  <separator name="External order field" >
   <i name="OFIELD_KAPPA">      0.00000000</i>
   <v name="OFIELD_K">      0.00000000      0.00000000      0.00000000</v>
   <i name="OFIELD_Q6_NEAR">      0.00000000</i>
   <i name="OFIELD_Q6_FAR">      0.00000000</i>
   <i name="OFIELD_A">      0.00000000</i>
  </separator>
 </parameters>
 <atominfo>
  <atoms>       8 </atoms>
  <types>       2 </types>
  <array name="atoms" >
   <dimension dim="1">ion</dimension>
   <field type="string">element</field>
   <field type="int">atomtype</field>
   <set>
    <rc><c>Li</c><c>   1</c></rc>
    <rc><c>Li</c><c>   1</c></rc>
    <rc><c>Li</c><c>   1</c></rc>
    <rc><c>Li</c><c>   1</c></rc>
    <rc><c>Li</c><c>   1</c></rc>
    <rc><c>Li</c><c>   1</c></rc>
    <rc><c>P </c><c>   2</c></rc>
    <rc><c>P </c><c>   2</c></rc>
   </set>
  </array>
  <array name="atomtypes" >
   <dimension dim="1">type</dimension>
   <field type="int">atomspertype</field>
   <field type="string">element</field>
   <field>mass</field>
   <field>valence</field>
   <field type="string">pseudopotential</field>
   <set>
    <rc><c>   6</c><c>Li</c><c>      7.01000000</c><c>      3.00000000</c><c>  PAW_PBE Li_sv 10Sep2004               </c></rc>
    <rc><c>   2</c><c>P </c><c>     30.97400000</c><c>      5.00000000</c><c>  PAW_PBE P 06Sep2000                   </c></rc>
   </set>
  </array>
 </atominfo>
 <structure name="initialpos" >
  <crystal>
   <varray name="basis" >
    <v>       2.30854300      -3.99851300       0.00000000 </v>
    <v>       2.11792900       3.66836100       0.00000000 </v>
    <v>       0.00000000       0.00000000       7.57071800 </v>
   </varray>
   <i name="volume">    128.22627847 </i>
   <varray name="rec_basis" >
    <v>       0.21658686      -0.12504647       0.00000000 </v>
    <v>       0.23607965       0.13630067       0.00000000 </v>
    <v>       0.00000000       0.00000000       0.13208787 </v>
   </varray>
  </crystal>
  <varray name="positions" >
   <v>       0.00000000       0.00000000       0.25000000 </v>
   <v>       0.00000000       0.00000000       0.75000000 </v>
   <v>       0.33333300       0.66666700       0.58411900 </v>
   <v>       0.66666700       0.33333300       0.08411900 </v>
   <v>       0.66666700       0.33333300       0.41588100 </v>
   <v>       0.33333300       0.66666700       0.91588100 </v>
   <v>       0.33333300       0.66666700       0.25000000 </v>
   <v>       0.66666700       0.33333300       0.75000000 </v>
  </varray>
 </structure>
 <calculation>
  <scstep>
   <time name="dav">  573.79 1147.60</time>
   <time name="total">  574.27 1148.57</time>
   <energy>
    <i name="alphaZ">     18.81069683 </i>
    <i name="ewald">   -812.73691125 </i>
    <i name="hartreedc">   -261.45745191 </i>
    <i name="XCdc">     80.79560281 </i>
    <i name="pawpsdc">    757.51528229 </i>
    <i name="pawaedc">   -833.47285019 </i>
    <i name="eentropy">      0.00000000 </i>
    <i name="bandstr">   -363.26642247 </i>
    <i name="atom">   1568.72097452 </i>
    <i name="e_fr_energy">    154.90892063 </i>
    <i name="e_wo_entrp">    154.90892063 </i>
    <i name="e_0_energy">    154.90892063 </i>
   </energy>
  </scstep>
  <scstep>
   <time name="dav">  606.39 1212.84</time>
   <time name="total">  606.43 1212.92</time>
   <energy>
    <i name="e_fr_energy">      1.74227244 </i>
    <i name="e_wo_entrp">      1.74227244 </i>
    <i name="e_0_energy">      1.74227244 </i>
   </energy>
  </scstep>
  <scstep>
