 vasp.5.4.4.18Apr17-6-g9f103f2a35 (build Aug 12 2020 11:57:02) complex          
  
 executed on             LinuxIFC date 2021.01.31  03:09:20
 running on   24 total cores
 distrk:  each k-point on   24 cores,    1 groups
 distr:  one band on NCORES_PER_BAND=   6 cores,    4 groups


--------------------------------------------------------------------------------------------------------


 INCAR:
 POTCAR:    PAW_PBE Li_sv 10Sep2004               
 POTCAR:    PAW_PBE P 06Sep2000                   
 POTCAR:    PAW_PBE N 08Apr2002                   
 POTCAR:    PAW_PBE O 08Apr2002                   
 POTCAR:    PAW_PBE Li_sv 10Sep2004               
   VRHFIN =Li: 1s2s2p                                                           
   LEXCH  = PE                                                                  
   EATOM  =   202.7858 eV,   14.9043 Ry                                         
                                                                                
   TITEL  = PAW_PBE Li_sv 10Sep2004                                             
   LULTRA =        F    use ultrasoft PP ?                                      
   IUNSCR =        0    unscreen: 0-lin 1-nonlin 2-no                           
   RPACOR =    0.000    partial core radius                                     
   POMASS =    7.010; ZVAL   =    3.000    mass and valenz                      
   RCORE  =    1.700    outmost cutoff radius                                   
   RWIGS  =    2.050; RWIGS  =    1.085    wigner-seitz radius (au A)           
   ENMAX  =  499.034; ENMIN  =  374.276 eV                                      
   ICORE  =        2    local potential                                         
   LCOR   =        T    correct aug charges                                     
   LPAW   =        T    paw PP                                                  
   EAUG   =  628.945                                                            
   RMAX   =    1.732    core radius for proj-oper                               
   RAUG   =    1.300    factor for augmentation sphere                          
   RDEP   =    1.728    radius for radial grids                                 
   RDEPT  =    1.329    core radius for aug-charge                              
                                                                                
   Atomic configuration                                                         
    4 entries                                                                   
     n  l   j            E        occ.                                          
     1  0  0.50       -51.8549   2.0000                                         
     2  0  0.50        -2.8742   1.0000                                         
     2  1  0.50        -1.3606   0.0000                                         
     3  2  1.50        -1.3606   0.0000                                         
   Description                                                                  
     l       E           TYP  RCUT    TYP  RCUT                                 
     0    -51.8548813     23  1.400                                             
     0     -2.8742052     23  1.700                                             
     1     -1.3605826     23  1.400                                             
     2     -1.3605826     23  1.400                                             
  local pseudopotential read in
  atomic valenz-charges read in
  non local Contribution for L=           0  read in
    real space projection operators read in
  non local Contribution for L=           0  read in
    real space projection operators read in
  non local Contribution for L=           1  read in
    real space projection operators read in
    PAW grid and wavefunctions read in
 
   number of l-projection  operators is LMAX  =           3
   number of lm-projection operators is LMMAX =           5
 
 POTCAR:    PAW_PBE P 06Sep2000                   
   VRHFIN =P : s2p3                                                             
   LEXCH  = PE                                                                  
   EATOM  =   176.0430 eV,   12.9388 Ry                                         
                                                                                
   TITEL  = PAW_PBE P 06Sep2000                                                 
   LULTRA =        F    use ultrasoft PP ?                                      
   IUNSCR =        1    unscreen: 0-lin 1-nonlin 2-no                           
   RPACOR =    1.500    partial core radius                                     
   POMASS =   30.974; ZVAL   =    5.000    mass and valenz                      
   RCORE  =    1.900    outmost cutoff radius                                   
   RWIGS  =    2.330; RWIGS  =    1.233    wigner-seitz radius (au A)           
   ENMAX  =  255.040; ENMIN  =  191.280 eV                                      
   ICORE  =        2    local potential                                         
   LCOR   =        T    correct aug charges                                     
   LPAW   =        T    paw PP                                                  
   EAUG   =  342.924                                                            
   DEXC   =    0.000                                                            
   RMAX   =    1.935    core radius for proj-oper                               
   RAUG   =    1.300    factor for augmentation sphere                          
   RDEP   =    1.931    radius for radial grids                                 
   RDEPT  =    1.794    core radius for aug-charge                              
                                                                                
   Atomic configuration                                                         
    6 entries                                                                   
     n  l   j            E        occ.                                          
     1  0  0.50     -2084.0982   2.0000                                         
     2  0  0.50      -173.9859   2.0000                                         
     2  1  1.50      -124.4865   6.0000                                         
     3  0  0.50       -13.9692   2.0000                                         
     3  1  0.50        -5.5067   3.0000                                         
     3  2  1.50        -5.4423   0.0000                                         
   Description                                                                  
     l       E           TYP  RCUT    TYP  RCUT                                 
     0    -13.9691527     23  1.900                                             
     0    -11.7794650     23  1.900                                             
     1     -5.5066937     23  1.900                                             
     1     -0.2556953     23  1.900                                             
     2     -5.4423304     23  1.900                                             
  local pseudopotential read in
  partial core-charges read in
  partial kinetic energy density read in
  atomic valenz-charges read in
  non local Contribution for L=           0  read in
    real space projection operators read in
  non local Contribution for L=           0  read in
    real space projection operators read in
  non local Contribution for L=           1  read in
    real space projection operators read in
  non local Contribution for L=           1  read in
    real space projection operators read in
    PAW grid and wavefunctions read in
 
   number of l-projection  operators is LMAX  =           4
   number of lm-projection operators is LMMAX =           8
 
 POTCAR:    PAW_PBE N 08Apr2002                   
   VRHFIN =N: s2p3                                                              
   LEXCH  = PE                                                                  
   EATOM  =   264.5486 eV,   19.4438 Ry                                         
                                                                                
   TITEL  = PAW_PBE N 08Apr2002                                                 
   LULTRA =        F    use ultrasoft PP ?                                      
   IUNSCR =        1    unscreen: 0-lin 1-nonlin 2-no                           
   RPACOR =    1.200    partial core radius                                     
   POMASS =   14.001; ZVAL   =    5.000    mass and valenz                      
   RCORE  =    1.500    outmost cutoff radius                                   
   RWIGS  =    1.400; RWIGS  =    0.741    wigner-seitz radius (au A)           
   ENMAX  =  400.000; ENMIN  =  300.000 eV                                      
   ICORE  =        2    local potential                                         
   LCOR   =        T    correct aug charges                                     
   LPAW   =        T    paw PP                                                  
   EAUG   =  627.112                                                            
   DEXC   =    0.000                                                            
   RMAX   =    1.529    core radius for proj-oper                               
   RAUG   =    1.300    factor for augmentation sphere                          
   RDEP   =    1.514    radius for radial grids                                 
   RDEPT  =    1.338    core radius for aug-charge                              
                                                                                
   Atomic configuration                                                         
    4 entries                                                                   
     n  l   j            E        occ.                                          
     1  0  0.50      -384.7179   2.0000                                         
     2  0  0.50       -18.5828   2.0000                                         
     2  1  0.50        -7.0898   3.0000                                         
     3  2  1.50        -6.8029   0.0000                                         
   Description                                                                  
     l       E           TYP  RCUT    TYP  RCUT                                 
     0    -18.5828119     23  1.200                                             
     0    -13.5018863     23  1.200                                             
     1     -7.0897853     23  1.500                                             
     1      9.5240782     23  1.500                                             
     2     -6.8029130      7  1.500                                             
  local pseudopotential read in
  partial core-charges read in
  partial kinetic energy density read in
  atomic valenz-charges read in
  non local Contribution for L=           0  read in
    real space projection operators read in
  non local Contribution for L=           0  read in
    real space projection operators read in
  non local Contribution for L=           1  read in
    real space projection operators read in
  non local Contribution for L=           1  read in
    real space projection operators read in
    PAW grid and wavefunctions read in
 
   number of l-projection  operators is LMAX  =           4
   number of lm-projection operators is LMMAX =           8
 
 POTCAR:    PAW_PBE O 08Apr2002                   
   VRHFIN =O: s2p4                                                              
   LEXCH  = PE                                                                  
   EATOM  =   432.3788 eV,   31.7789 Ry                                         
                                                                                
   TITEL  = PAW_PBE O 08Apr2002                                                 
   LULTRA =        F    use ultrasoft PP ?                                      
   IUNSCR =        1    unscreen: 0-lin 1-nonlin 2-no                           
   RPACOR =    1.200    partial core radius                                     
   POMASS =   16.000; ZVAL   =    6.000    mass and valenz                      
   RCORE  =    1.520    outmost cutoff radius                                   
   RWIGS  =    1.550; RWIGS  =    0.820    wigner-seitz radius (au A)           
   ENMAX  =  400.000; ENMIN  =  300.000 eV                                      
   ICORE  =        2    local potential                                         
   LCOR   =        T    correct aug charges                                     
   LPAW   =        T    paw PP                                                  
   EAUG   =  605.392                                                            
   DEXC   =    0.000                                                            
   RMAX   =    1.553    core radius for proj-oper                               
   RAUG   =    1.300    factor for augmentation sphere                          
   RDEP   =    1.550    radius for radial grids                                 
   RDEPT  =    1.329    core radius for aug-charge                              
                                                                                
   Atomic configuration                                                         
    4 entries                                                                   
     n  l   j            E        occ.                                          
     1  0  0.50      -514.6923   2.0000                                         
     2  0  0.50       -23.9615   2.0000                                         
     2  1  0.50        -9.0305   4.0000                                         
     3  2  1.50        -9.5241   0.0000                                         
   Description                                                                  
     l       E           TYP  RCUT    TYP  RCUT                                 
     0    -23.9615318     23  1.200                                             
     0     -9.5240782     23  1.200                                             
     1     -9.0304911     23  1.520                                             
     1      8.1634956     23  1.520                                             
     2     -9.5240782      7  1.500                                             
  local pseudopotential read in
  partial core-charges read in
  partial kinetic energy density read in
  kinetic energy density of atom read in
  atomic valenz-charges read in
  non local Contribution for L=           0  read in
    real space projection operators read in
  non local Contribution for L=           0  read in
    real space projection operators read in
  non local Contribution for L=           1  read in
    real space projection operators read in
  non local Contribution for L=           1  read in
    real space projection operators read in
    PAW grid and wavefunctions read in
 
   number of l-projection  operators is LMAX  =           4
   number of lm-projection operators is LMMAX =           8
 
 Optimization of the real space projectors (new method)

 maximal supplied QI-value         = 22.11
 optimisation between [QCUT,QGAM] = [ 11.50, 23.22] = [ 37.02,150.92] Ry 
 Optimized for a Real-space Cutoff    1.08 Angstroem

   l    n(q)    QCUT    max X(q) W(low)/X(q) W(high)/X(q)  e(spline) 
   0      7    11.497    10.506    0.36E-04    0.62E-04    0.14E-07
   0      7    11.497     8.367    0.65E-04    0.14E-03    0.28E-07
   1      7    11.497     8.983    0.21E-03    0.43E-03    0.90E-07
 Optimization of the real space projectors (new method)

 maximal supplied QI-value         = 19.84
 optimisation between [QCUT,QGAM] = [ 11.51, 23.22] = [ 37.09,150.92] Ry 
 Optimized for a Real-space Cutoff    1.21 Angstroem

   l    n(q)    QCUT    max X(q) W(low)/X(q) W(high)/X(q)  e(spline) 
   0      8    11.508   160.924    0.96E-04    0.17E-03    0.52E-07
   0      8    11.508   130.086    0.95E-04    0.17E-03    0.51E-07
   1      8    11.508    74.434    0.16E-03    0.74E-04    0.91E-07
   1      8    11.508    49.120    0.16E-03    0.71E-04    0.89E-07
 Optimization of the real space projectors (new method)

 maximal supplied QI-value         = 25.13
 optimisation between [QCUT,QGAM] = [ 11.56, 23.12] = [ 37.43,149.72] Ry 
 Optimized for a Real-space Cutoff    1.40 Angstroem

   l    n(q)    QCUT    max X(q) W(low)/X(q) W(high)/X(q)  e(spline) 
   0     10    11.561    79.467    0.46E-04    0.78E-04    0.61E-06
   0     10    11.561    66.151    0.45E-04    0.77E-04    0.61E-06
   1      9    11.561    18.886    0.22E-03    0.13E-03    0.12E-05
   1      9    11.561    13.488    0.23E-03    0.13E-03    0.12E-05
 Optimization of the real space projectors (new method)

 maximal supplied QI-value         = 24.76
 optimisation between [QCUT,QGAM] = [ 11.64, 23.27] = [ 37.91,151.63] Ry 
 Optimized for a Real-space Cutoff    1.14 Angstroem

   l    n(q)    QCUT    max X(q) W(low)/X(q) W(high)/X(q)  e(spline) 
   0      8    11.635    20.381    0.10E-03    0.33E-03    0.24E-06
   0      8    11.635    15.268    0.11E-03    0.35E-03    0.26E-06
   1      7    11.635     5.964    0.24E-03    0.31E-03    0.30E-06
   1      7    11.635     5.382    0.22E-03    0.25E-03    0.26E-06
  PAW_PBE Li_sv 10Sep2004               :
 energy of atom  1       EATOM= -202.7858
 kinetic energy error for atom=    0.0130 (will be added to EATOM!!)
  PAW_PBE P 06Sep2000                   :
 energy of atom  2       EATOM= -176.0430
 kinetic energy error for atom=    0.0011 (will be added to EATOM!!)
  PAW_PBE N 08Apr2002                   :
 energy of atom  3       EATOM= -264.5486
 kinetic energy error for atom=    0.0125 (will be added to EATOM!!)
  PAW_PBE O 08Apr2002                   :
 energy of atom  4       EATOM= -432.3788
 kinetic energy error for atom=    0.0208 (will be added to EATOM!!)
 
 
 POSCAR: Li4 P2 N2 O4                            
  positions in direct lattice
  No initial velocities read in
 exchange correlation table for  LEXCH =        8
   RHO(1)=    0.500       N(1)  =     2000
   RHO(2)=  100.500       N(2)  =     4000
 


--------------------------------------------------------------------------------------------------------


 ion  position               nearest neighbor table
   1  0.325  0.994  0.502-   9 1.99  10 2.00  12 2.01   7 2.10
   2  0.994  0.325  0.502-  10 1.99   9 2.00  11 2.01   7 2.10
   3  0.675  0.006  0.002-  11 1.99  12 2.00  10 2.01   8 2.10
   4  0.006  0.675  0.002-  12 1.99  11 2.00   9 2.01   8 2.10
   5  0.654  0.654  0.499-   9 1.57  10 1.57   7 1.64   8 1.64   6 2.91   6 2.91
   6  0.346  0.346  0.999-  11 1.57  12 1.57   8 1.64   7 1.64   5 2.91   5 2.91
   7  0.387  0.387  0.341-   5 1.64   6 1.64   1 2.10   2 2.10
   8  0.613  0.613  0.841-   6 1.64   5 1.64   3 2.10   4 2.10
   9  0.944  0.666  0.419-   5 1.57   1 1.99   2 2.00   4 2.01
  10  0.666  0.944  0.419-   5 1.57   2 1.99   1 2.00   3 2.01
  11  0.056  0.334  0.919-   6 1.57   3 1.99   4 2.00   2 2.01
  12  0.334  0.056  0.919-   6 1.57   4 1.99   3 2.00   1 2.01
 
  LATTYP: Found a base centered orthorhombic cell.
 ALAT       =     5.4610260000
 B/A-ratio  =     1.6765838507
 C/A-ratio  =     0.8696111317
  
  Lattice vectors:
  
 A1 = (   2.7305130000,  -4.5779340000,   0.0000000000)
 A2 = (   2.7305130000,   4.5779340000,   0.0000000000)
 A3 = (   0.0000000000,   0.0000000000,   4.7489690000)


Analysis of symmetry for initial positions (statically):
=====================================================================
 Subroutine PRICEL returns:
 Original cell was already a primitive cell.
 

 Routine SETGRP: Setting up the symmetry group for a 
 base centered orthorhombic supercell.


 Subroutine GETGRP returns: Found  4 space group operations
 (whereof  2 operations were pure point group operations)
 out of a pool of  8 trial point group operations.


The static configuration has the point symmetry C_1h.
 The point group associated with its full space group is C_2v.


Analysis of symmetry for dynamics (positions and initial velocities):
=====================================================================
 Subroutine PRICEL returns:
 Original cell was already a primitive cell.
 

 Routine SETGRP: Setting up the symmetry group for a 
 base centered orthorhombic supercell.


 Subroutine GETGRP returns: Found  4 space group operations
 (whereof  2 operations were pure point group operations)
 out of a pool of  8 trial point group operations.


The dynamic configuration has the point symmetry C_1h.
 The point group associated with its full space group is C_2v.


Analysis of structural, dynamic, and magnetic symmetry:
=====================================================================
 Subroutine PRICEL returns:
 Original cell was already a primitive cell.
 

 Routine SETGRP: Setting up the symmetry group for a 
 base centered orthorhombic supercell.


 Subroutine GETGRP returns: Found  4 space group operations
 (whereof  2 operations were pure point group operations)
 out of a pool of  8 trial point group operations.


The magnetic configuration has the point symmetry C_1h.
 The point group associated with its full space group is C_2v.


 Subroutine INISYM returns: Found  4 space group operations
 (whereof  2 operations are pure point group operations),
 and found     1 'primitive' translations

 
 
 KPOINTS: Fully automatic kpoint scheme           

Automatic generation of k-mesh.
 generate k-points for:    7    7    7
Space group operators:
 irot       det(A)        alpha          n_x          n_y          n_z        tau_x        tau_y        tau_z
    1     1.000000     0.000000     1.000000     0.000000     0.000000     0.000000     0.000000     0.000000
    2    -1.000000   180.000000     0.000000     1.000000     0.000000     0.000000     0.000000     0.000000
    3     1.000000   180.000000     0.000000     0.000000     1.000000     0.000000     0.000000     0.500000
    4    -1.000000   180.000000     1.000000     0.000000     0.000000     0.000000     0.000000     0.500000
 
 Subroutine IBZKPT returns following result:
 ===========================================
 
 Found     64 irreducible k-points:
 
 Following reciprocal coordinates:
            Coordinates               Weight
  0.000000  0.000000  0.000000      1.000000
  0.142857  0.000000  0.000000      4.000000
  0.285714  0.000000  0.000000      4.000000
  0.428571  0.000000  0.000000      4.000000
  0.142857  0.142857  0.000000      2.000000
  0.285714  0.142857  0.000000      4.000000
  0.428571  0.142857  0.000000      4.000000
 -0.428571  0.142857  0.000000      4.000000
 -0.285714  0.142857  0.000000      4.000000
 -0.142857  0.142857  0.000000      2.000000
  0.285714  0.285714  0.000000      2.000000
  0.428571  0.285714  0.000000      4.000000
 -0.428571  0.285714  0.000000      4.000000
 -0.285714  0.285714  0.000000      2.000000
  0.428571  0.428571  0.000000      2.000000
 -0.428571  0.428571  0.000000      2.000000
  0.000000  0.000000  0.142857      2.000000
  0.142857  0.000000  0.142857      8.000000
  0.285714  0.000000  0.142857      8.000000
  0.428571  0.000000  0.142857      8.000000
  0.142857  0.142857  0.142857      4.000000
  0.285714  0.142857  0.142857      8.000000
  0.428571  0.142857  0.142857      8.000000
 -0.428571  0.142857  0.142857      8.000000
 -0.285714  0.142857  0.142857      8.000000
 -0.142857  0.142857  0.142857      4.000000
  0.285714  0.285714  0.142857      4.000000
  0.428571  0.285714  0.142857      8.000000
 -0.428571  0.285714  0.142857      8.000000
 -0.285714  0.285714  0.142857      4.000000
  0.428571  0.428571  0.142857      4.000000
 -0.428571  0.428571  0.142857      4.000000
  0.000000  0.000000  0.285714      2.000000
  0.142857  0.000000  0.285714      8.000000
  0.285714  0.000000  0.285714      8.000000
  0.428571  0.000000  0.285714      8.000000
  0.142857  0.142857  0.285714      4.000000
  0.285714  0.142857  0.285714      8.000000
  0.428571  0.142857  0.285714      8.000000
 -0.428571  0.142857  0.285714      8.000000
 -0.285714  0.142857  0.285714      8.000000
 -0.142857  0.142857  0.285714      4.000000
  0.285714  0.285714  0.285714      4.000000
  0.428571  0.285714  0.285714      8.000000
 -0.428571  0.285714  0.285714      8.000000
 -0.285714  0.285714  0.285714      4.000000
  0.428571  0.428571  0.285714      4.000000
 -0.428571  0.428571  0.285714      4.000000
  0.000000  0.000000  0.428571      2.000000
  0.142857  0.000000  0.428571      8.000000
  0.285714  0.000000  0.428571      8.000000
  0.428571  0.000000  0.428571      8.000000
  0.142857  0.142857  0.428571      4.000000
  0.285714  0.142857  0.428571      8.000000
  0.428571  0.142857  0.428571      8.000000
 -0.428571  0.142857  0.428571      8.000000
 -0.285714  0.142857  0.428571      8.000000
 -0.142857  0.142857  0.428571      4.000000
  0.285714  0.285714  0.428571      4.000000
  0.428571  0.285714  0.428571      8.000000
 -0.428571  0.285714  0.428571      8.000000
 -0.285714  0.285714  0.428571      4.000000
  0.428571  0.428571  0.428571      4.000000
 -0.428571  0.428571  0.428571      4.000000
 
 Following cartesian coordinates:
            Coordinates               Weight
  0.000000  0.000000  0.000000      1.000000
  0.026159 -0.015603  0.000000      4.000000
  0.052319 -0.031206  0.000000      4.000000
  0.078478 -0.046808  0.000000      4.000000
  0.052319  0.000000  0.000000      2.000000
  0.078478 -0.015603  0.000000      4.000000
  0.104638 -0.031206  0.000000      4.000000
 -0.052319  0.062411  0.000000      4.000000
 -0.026159  0.046808  0.000000      4.000000
  0.000000  0.031206  0.000000      2.000000
  0.104638  0.000000  0.000000      2.000000
  0.130797 -0.015603  0.000000      4.000000
 -0.026159  0.078014  0.000000      4.000000
  0.000000  0.062411  0.000000      2.000000
  0.156956  0.000000  0.000000      2.000000
  0.000000  0.093617  0.000000      2.000000
  0.000000  0.000000  0.030082      2.000000
  0.026159 -0.015603  0.030082      8.000000
  0.052319 -0.031206  0.030082      8.000000
  0.078478 -0.046808  0.030082      8.000000
  0.052319  0.000000  0.030082      4.000000
  0.078478 -0.015603  0.030082      8.000000
  0.104638 -0.031206  0.030082      8.000000
 -0.052319  0.062411  0.030082      8.000000
 -0.026159  0.046808  0.030082      8.000000
  0.000000  0.031206  0.030082      4.000000
  0.104638  0.000000  0.030082      4.000000
  0.130797 -0.015603  0.030082      8.000000
 -0.026159  0.078014  0.030082      8.000000
  0.000000  0.062411  0.030082      4.000000
  0.156956  0.000000  0.030082      4.000000
  0.000000  0.093617  0.030082      4.000000
  0.000000  0.000000  0.060163      2.000000
  0.026159 -0.015603  0.060163      8.000000
  0.052319 -0.031206  0.060163      8.000000
  0.078478 -0.046808  0.060163      8.000000
  0.052319  0.000000  0.060163      4.000000
  0.078478 -0.015603  0.060163      8.000000
  0.104638 -0.031206  0.060163      8.000000
 -0.052319  0.062411  0.060163      8.000000
 -0.026159  0.046808  0.060163      8.000000
  0.000000  0.031206  0.060163      4.000000
  0.104638  0.000000  0.060163      4.000000
  0.130797 -0.015603  0.060163      8.000000
 -0.026159  0.078014  0.060163      8.000000
  0.000000  0.062411  0.060163      4.000000
  0.156956  0.000000  0.060163      4.000000
  0.000000  0.093617  0.060163      4.000000
  0.000000  0.000000  0.090245      2.000000
  0.026159 -0.015603  0.090245      8.000000
  0.052319 -0.031206  0.090245      8.000000
  0.078478 -0.046808  0.090245      8.000000
  0.052319  0.000000  0.090245      4.000000
  0.078478 -0.015603  0.090245      8.000000
  0.104638 -0.031206  0.090245      8.000000
 -0.052319  0.062411  0.090245      8.000000
 -0.026159  0.046808  0.090245      8.000000
  0.000000  0.031206  0.090245      4.000000
  0.104638  0.000000  0.090245      4.000000
  0.130797 -0.015603  0.090245      8.000000
 -0.026159  0.078014  0.090245      8.000000
  0.000000  0.062411  0.090245      4.000000
  0.156956  0.000000  0.090245      4.000000
  0.000000  0.093617  0.090245      4.000000
 
 TETIRR: Found    517 inequivalent tetrahedra from     2058


--------------------------------------------------------------------------------------------------------




 Dimension of arrays:
   k-points           NKPTS =     64   k-points in BZ     NKDIM =     64   number of bands    NBANDS=     36
   number of dos      NEDOS =    301   number of ions     NIONS =     12
   non local maximal  LDIM  =      4   non local SUM 2l+1 LMDIM =      8
   total plane-waves  NPLWV =  57600
   max r-space proj   IRMAX =   5670   max aug-charges    IRDMAX=  14962
   dimension x,y,z NGX =    40 NGY =   40 NGZ =   36
   dimension x,y,z NGXF=    80 NGYF=   80 NGZF=   72
   support grid    NGXF=    80 NGYF=   80 NGZF=   72
   ions per type =               4   2   2   4
   NGX,Y,Z   is equivalent  to a cutoff of  12.48, 12.48, 12.60 a.u.
   NGXF,Y,Z  is equivalent  to a cutoff of  24.95, 24.95, 25.20 a.u.

 SYSTEM =  unknown system                          
 POSCAR =  Li4 P2 N2 O4                            

 Startparameter for this run:
   NWRITE =      2    write-flag & timer
   PREC   = accura    normal or accurate (medium, high low for compatibility)
   ISTART =      0    job   : 0-new  1-cont  2-samecut
   ICHARG =      2    charge: 1-file 2-atom 10-const
   ISPIN  =      2    spin polarized calculation?
   LNONCOLLINEAR =      F non collinear calculations
   LSORBIT =      F    spin-orbit coupling
   INIWAV =      1    electr: 0-lowe 1-rand  2-diag
   LASPH  =      T    aspherical Exc in radial PAW
   METAGGA=      F    non-selfconsistent MetaGGA calc.

 Electronic Relaxation 1
   ENCUT  =  520.0 eV  38.22 Ry    6.18 a.u.   9.91  9.91  8.83*2*pi/ulx,y,z
   ENINI  =  520.0     initial cutoff
   ENAUG  =  628.9 eV  augmentation charge cutoff
   NELM   =    100;   NELMIN=  2; NELMDL= -5     # of ELM steps 
   EDIFF  = 0.1E-04   stopping-criterion for ELM
   LREAL  =      T    real-space projection
   NLSPLINE    = F    spline interpolate recip. space projectors
   LCOMPAT=      F    compatible to vasp.4.4
   GGA_COMPAT  = T    GGA compatible to vasp.4.4-vasp.4.6
   LMAXPAW     = -100 max onsite density
   LMAXMIX     =    2 max onsite mixed and CHGCAR
   VOSKOWN=      0    Vosko Wilk Nusair interpolation
   ROPT   =   -0.00025  -0.00025  -0.00025  -0.00025
 Ionic relaxation
   EDIFFG = 0.1E-03   stopping-criterion for IOM
   NSW    =     99    number of steps for IOM
   NBLOCK =      1;   KBLOCK =     99    inner block; outer block 
   IBRION =      2    ionic relax: 0-MD 1-quasi-New 2-CG
   NFREE  =      1    steps in history (QN), initial steepest desc. (CG)
   ISIF   =      3    stress and relaxation
   IWAVPR =     11    prediction:  0-non 1-charg 2-wave 3-comb
   ISYM   =      2    0-nonsym 1-usesym 2-fastsym
   LCORR  =      T    Harris-Foulkes like correction to forces

   POTIM  = 0.5000    time-step for ionic-motion
   TEIN   =    0.0    initial temperature
   TEBEG  =    0.0;   TEEND  =   0.0 temperature during run
   SMASS  =  -3.00    Nose mass-parameter (am)
   estimated Nose-frequenzy (Omega)   =  0.10E-29 period in steps =****** mass=  -0.649E-27a.u.
   SCALEE = 1.0000    scale energy and forces
   NPACO  =    256;   APACO  = 16.0  distance and # of slots for P.C.
   PSTRESS=    0.0 pullay stress

  Mass of Ions in am
   POMASS =   7.01 30.97 14.00 16.00
  Ionic Valenz
   ZVAL   =   3.00  5.00  5.00  6.00
  Atomic Wigner-Seitz radii
   RWIGS  =  -1.00 -1.00 -1.00 -1.00
  virtual crystal weights 
   VCA    =   1.00  1.00  1.00  1.00
   NELECT =      56.0000    total number of electrons
   NUPDOWN=      -1.0000    fix difference up-down

 DOS related values:
   EMIN   =  10.00;   EMAX   =-10.00  energy-range for DOS
   EFERMI =   0.00
   ISMEAR =    -5;   SIGMA  =   0.05  broadening in eV -4-tet -1-fermi 0-gaus

 Electronic relaxation 2 (details)
   IALGO  =     68    algorithm
   LDIAG  =      T    sub-space diagonalisation (order eigenvalues)
   LSUBROT=      F    optimize rotation matrix (better conditioning)
   TURBO    =      0    0=normal 1=particle mesh
   IRESTART =      0    0=no restart 2=restart with 2 vectors
   NREBOOT  =      0    no. of reboots
   NMIN     =      0    reboot dimension
   EREF     =   0.00    reference energy to select bands
   IMIX   =      4    mixing-type and parameters
     AMIX     =   0.40;   BMIX     =  1.00
     AMIX_MAG =   1.60;   BMIX_MAG =  1.00
     AMIN     =   0.10
     WC   =   100.;   INIMIX=   1;  MIXPRE=   1;  MAXMIX= -45

 Intra band minimization:
   WEIMIN = 0.0010     energy-eigenvalue tresh-hold
   EBREAK =  0.69E-07  absolut break condition
   DEPER  =   0.30     relativ break condition  

   TIME   =   0.40     timestep for ELM

  volume/ion in A,a.u.               =       9.89        66.77
  Fermi-wavevector in a.u.,A,eV,Ry     =   1.274353  2.408178 22.095535  1.623976
  Thomas-Fermi vector in A             =   2.407126
 
 Write flags
   LWAVE        =      F    write WAVECAR
   LDOWNSAMPLE  =      F    k-point downsampling of WAVECAR
   LCHARG       =      F    write CHGCAR
   LVTOT        =      F    write LOCPOT, total local potential
   LVHAR        =      F    write LOCPOT, Hartree potential only
   LELF         =      F    write electronic localiz. function (ELF)
   LORBIT       =     11    0 simple, 1 ext, 2 COOP (PROOUT), +10 PAW based schemes


 Dipole corrections
   LMONO  =      F    monopole corrections only (constant potential shift)
   LDIPOL =      F    correct potential (dipole corrections)
   IDIPOL =      0    1-x, 2-y, 3-z, 4-all directions 
   EPSILON=  1.0000000 bulk dielectric constant

 Exchange correlation treatment:
   GGA     =    --    GGA type
   LEXCH   =     8    internal setting for exchange type
   VOSKOWN=      0    Vosko Wilk Nusair interpolation
   LHFCALC =     F    Hartree Fock is set to
   LHFONE  =     F    Hartree Fock one center treatment
   AEXX    =    0.0000 exact exchange contribution

 Linear response parameters
   LEPSILON=     F    determine dielectric tensor
   LRPA    =     F    only Hartree local field effects (RPA)
   LNABLA  =     F    use nabla operator in PAW spheres
   LVEL    =     F    velocity operator in full k-point grid
   LINTERFAST=   F  fast interpolation
   KINTER  =     0    interpolate to denser k-point grid
   CSHIFT  =0.1000    complex shift for real part using Kramers Kronig
   OMEGAMAX=  -1.0    maximum frequency
   DEG_THRESHOLD= 0.2000000E-02 threshold for treating states as degnerate
   RTIME   =   -0.100 relaxation time in fs
  (WPLASMAI=    0.000 imaginary part of plasma frequency in eV, 0.658/RTIME)
   DFIELD  = 0.0000000 0.0000000 0.0000000 field for delta impulse in time
 
 Orbital magnetization related:
   ORBITALMAG=     F  switch on orbital magnetization
   LCHIMAG   =     F  perturbation theory with respect to B field
   DQ        =  0.001000  dq finite difference perturbation B field
   LLRAUG    =     F  two centre corrections for induced B field



--------------------------------------------------------------------------------------------------------


 conjugate gradient relaxation of ions
 charge density and potential will be updated during run
 spin polarized calculation
 RMM-DIIS sequential band-by-band and
  variant of blocked Davidson during initial phase
 perform sub-space diagonalisation
    before iterative eigenvector-optimisation
 modified Broyden-mixing scheme, WC =      100.0
 initial mixing is a Kerker type mixing with AMIX =  0.4000 and BMIX =      1.0000
 Hartree-type preconditioning will be used
 using additional bands            8
 real space projection scheme for non local part
 use partial core corrections
 calculate Harris-corrections to forces 
   (improved forces if not selfconsistent)
 use gradient corrections 
 use of overlap-Matrix (Vanderbilt PP)
 Fermi weights with tetrahedron method with Bloechl corrections


--------------------------------------------------------------------------------------------------------


  energy-cutoff  :      520.00
  volume of cell :      118.73
      direct lattice vectors                 reciprocal lattice vectors
     2.730513000 -4.577934000  0.000000000     0.183115773 -0.109219574  0.000000000
     2.730513000  4.577934000  0.000000000     0.183115773  0.109219574  0.000000000
     0.000000000  0.000000000  4.748969000     0.000000000  0.000000000  0.210572021

  length of vectors
     5.330401575  5.330401575  4.748969000     0.213214216  0.213214216  0.210572021


 
 k-points in units of 2pi/SCALE and weight: Fully automatic kpoint scheme           
   0.00000000  0.00000000  0.00000000       0.003
   0.02615940 -0.01560280  0.00000000       0.012
   0.05231879 -0.03120559  0.00000000       0.012
   0.07847819 -0.04680839  0.00000000       0.012
   0.05231879  0.00000000  0.00000000       0.006
   0.07847819 -0.01560280  0.00000000       0.012
   0.10463758 -0.03120559  0.00000000       0.012
  -0.05231879  0.06241118  0.00000000       0.012
  -0.02615940  0.04680839  0.00000000       0.012
   0.00000000  0.03120559  0.00000000       0.006
   0.10463758  0.00000000  0.00000000       0.006
   0.13079698 -0.01560280  0.00000000       0.012
  -0.02615940  0.07801398  0.00000000       0.012
   0.00000000  0.06241118  0.00000000       0.006
   0.15695638  0.00000000  0.00000000       0.006
   0.00000000  0.09361678  0.00000000       0.006
   0.00000000  0.00000000  0.03008172       0.006
   0.02615940 -0.01560280  0.03008172       0.023
   0.05231879 -0.03120559  0.03008172       0.023
   0.07847819 -0.04680839  0.03008172       0.023
   0.05231879  0.00000000  0.03008172       0.012
   0.07847819 -0.01560280  0.03008172       0.023
   0.10463758 -0.03120559  0.03008172       0.023
  -0.05231879  0.06241118  0.03008172       0.023
  -0.02615940  0.04680839  0.03008172       0.023
   0.00000000  0.03120559  0.03008172       0.012
   0.10463758  0.00000000  0.03008172       0.012
   0.13079698 -0.01560280  0.03008172       0.023
  -0.02615940  0.07801398  0.03008172       0.023
   0.00000000  0.06241118  0.03008172       0.012
   0.15695638  0.00000000  0.03008172       0.012
   0.00000000  0.09361678  0.03008172       0.012
   0.00000000  0.00000000  0.06016343       0.006
   0.02615940 -0.01560280  0.06016343       0.023
   0.05231879 -0.03120559  0.06016343       0.023
   0.07847819 -0.04680839  0.06016343       0.023
   0.05231879  0.00000000  0.06016343       0.012
   0.07847819 -0.01560280  0.06016343       0.023
   0.10463758 -0.03120559  0.06016343       0.023
  -0.05231879  0.06241118  0.06016343       0.023
  -0.02615940  0.04680839  0.06016343       0.023
   0.00000000  0.03120559  0.06016343       0.012
   0.10463758  0.00000000  0.06016343       0.012
   0.13079698 -0.01560280  0.06016343       0.023
  -0.02615940  0.07801398  0.06016343       0.023
   0.00000000  0.06241118  0.06016343       0.012
   0.15695638  0.00000000  0.06016343       0.012
   0.00000000  0.09361678  0.06016343       0.012
   0.00000000  0.00000000  0.09024515       0.006
   0.02615940 -0.01560280  0.09024515       0.023
   0.05231879 -0.03120559  0.09024515       0.023
   0.07847819 -0.04680839  0.09024515       0.023
   0.05231879  0.00000000  0.09024515       0.012
   0.07847819 -0.01560280  0.09024515       0.023
   0.10463758 -0.03120559  0.09024515       0.023
  -0.05231879  0.06241118  0.09024515       0.023
  -0.02615940  0.04680839  0.09024515       0.023
   0.00000000  0.03120559  0.09024515       0.012
   0.10463758  0.00000000  0.09024515       0.012
   0.13079698 -0.01560280  0.09024515       0.023
  -0.02615940  0.07801398  0.09024515       0.023
   0.00000000  0.06241118  0.09024515       0.012
   0.15695638  0.00000000  0.09024515       0.012
   0.00000000  0.09361678  0.09024515       0.012
 
 k-points in reciprocal lattice and weights: Fully automatic kpoint scheme           
   0.00000000  0.00000000  0.00000000       0.003
   0.14285714  0.00000000  0.00000000       0.012
   0.28571429  0.00000000  0.00000000       0.012
   0.42857143  0.00000000  0.00000000       0.012
   0.14285714  0.14285714  0.00000000       0.006
   0.28571429  0.14285714  0.00000000       0.012
   0.42857143  0.14285714  0.00000000       0.012
  -0.42857143  0.14285714  0.00000000       0.012
  -0.28571429  0.14285714  0.00000000       0.012
  -0.14285714  0.14285714  0.00000000       0.006
   0.28571429  0.28571429  0.00000000       0.006
   0.42857143  0.28571429  0.00000000       0.012
  -0.42857143  0.28571429  0.00000000       0.012
  -0.28571429  0.28571429  0.00000000       0.006
   0.42857143  0.42857143  0.00000000       0.006
  -0.42857143  0.42857143  0.00000000       0.006
   0.00000000  0.00000000  0.14285714       0.006
   0.14285714  0.00000000  0.14285714       0.023
   0.28571429  0.00000000  0.14285714       0.023
   0.42857143  0.00000000  0.14285714       0.023
   0.14285714  0.14285714  0.14285714       0.012
   0.28571429  0.14285714  0.14285714       0.023
   0.42857143  0.14285714  0.14285714       0.023
  -0.42857143  0.14285714  0.14285714       0.023
  -0.28571429  0.14285714  0.14285714       0.023
  -0.14285714  0.14285714  0.14285714       0.012
   0.28571429  0.28571429  0.14285714       0.012
   0.42857143  0.28571429  0.14285714       0.023
  -0.42857143  0.28571429  0.14285714       0.023
  -0.28571429  0.28571429  0.14285714       0.012
   0.42857143  0.42857143  0.14285714       0.012
  -0.42857143  0.42857143  0.14285714       0.012
   0.00000000  0.00000000  0.28571429       0.006
   0.14285714  0.00000000  0.28571429       0.023
   0.28571429  0.00000000  0.28571429       0.023
   0.42857143  0.00000000  0.28571429       0.023
   0.14285714  0.14285714  0.28571429       0.012
   0.28571429  0.14285714  0.28571429       0.023
   0.42857143  0.14285714  0.28571429       0.023
  -0.42857143  0.14285714  0.28571429       0.023
  -0.28571429  0.14285714  0.28571429       0.023
  -0.14285714  0.14285714  0.28571429       0.012
   0.28571429  0.28571429  0.28571429       0.012
   0.42857143  0.28571429  0.28571429       0.023
  -0.42857143  0.28571429  0.28571429       0.023
  -0.28571429  0.28571429  0.28571429       0.012
   0.42857143  0.42857143  0.28571429       0.012
  -0.42857143  0.42857143  0.28571429       0.012
   0.00000000  0.00000000  0.42857143       0.006
   0.14285714  0.00000000  0.42857143       0.023
   0.28571429  0.00000000  0.42857143       0.023
   0.42857143  0.00000000  0.42857143       0.023
   0.14285714  0.14285714  0.42857143       0.012
   0.28571429  0.14285714  0.42857143       0.023
   0.42857143  0.14285714  0.42857143       0.023
  -0.42857143  0.14285714  0.42857143       0.023
  -0.28571429  0.14285714  0.42857143       0.023
  -0.14285714  0.14285714  0.42857143       0.012
   0.28571429  0.28571429  0.42857143       0.012
   0.42857143  0.28571429  0.42857143       0.023
  -0.42857143  0.28571429  0.42857143       0.023
  -0.28571429  0.28571429  0.42857143       0.012
   0.42857143  0.42857143  0.42857143       0.012
  -0.42857143  0.42857143  0.42857143       0.012
 
 position of ions in fractional coordinates (direct lattice) 
   0.32513600  0.99379300  0.50155600
   0.99379300  0.32513600  0.50155600
   0.67486400  0.00620700  0.00155600
   0.00620700  0.67486400  0.00155600
   0.65375000  0.65375000  0.49851100
   0.34625000  0.34625000  0.99851100
   0.38700000  0.38700000  0.34117600
   0.61300000  0.61300000  0.84117600
   0.94449700  0.66640300  0.41910100
   0.66640300  0.94449700  0.41910100
   0.05550300  0.33359700  0.91910100
   0.33359700  0.05550300  0.91910100
 
 position of ions in cartesian coordinates  (Angst):
   3.60135278  3.06106761  2.38187390
   3.60135278 -3.06106761  2.38187390
   1.85967322 -3.06106761  0.00738940
   1.85967322  3.06106761  0.00738940
   3.57014575  0.00000000  2.36741329
   1.89088025  0.00000000  4.74189779
   2.11341706  0.00000000  1.62023425
   3.34760894  0.00000000  3.99471875
   4.39858339 -1.27309598  1.99029766
   4.39858339  1.27309598  1.99029766
   1.06244261  1.27309598  4.36478216
   1.06244261 -1.27309598  4.36478216
 


--------------------------------------------------------------------------------------------------------


 k-point  1 :   0.0000 0.0000 0.0000  plane waves:    3223
 k-point  2 :   0.1429 0.0000 0.0000  plane waves:    3194
 k-point  3 :   0.2857 0.0000 0.0000  plane waves:    3197
 k-point  4 :   0.4286 0.0000 0.0000  plane waves:    3184
 k-point  5 :   0.1429 0.1429 0.0000  plane waves:    3184
 k-point  6 :   0.2857 0.1429 0.0000  plane waves:    3178
 k-point  7 :   0.4286 0.1429 0.0000  plane waves:    3194
 k-point  8 :  -0.4286 0.1429 0.0000  plane waves:    3209
 k-point  9 :  -0.2857 0.1429 0.0000  plane waves:    3188
 k-point 10 :  -0.1429 0.1429 0.0000  plane waves:    3205
 k-point 11 :   0.2857 0.2857 0.0000  plane waves:    3198
 k-point 12 :   0.4286 0.2857 0.0000  plane waves:    3205
 k-point 13 :  -0.4286 0.2857 0.0000  plane waves:    3202
 k-point 14 :  -0.2857 0.2857 0.0000  plane waves:    3197
 k-point 15 :   0.4286 0.4286 0.0000  plane waves:    3204
 k-point 16 :  -0.4286 0.4286 0.0000  plane waves:    3201
 k-point 17 :   0.0000 0.0000 0.1429  plane waves:    3183
 k-point 18 :   0.1429 0.0000 0.1429  plane waves:    3188
 k-point 19 :   0.2857 0.0000 0.1429  plane waves:    3184
 k-point 20 :   0.4286 0.0000 0.1429  plane waves:    3198
 k-point 21 :   0.1429 0.1429 0.1429  plane waves:    3173
 k-point 22 :   0.2857 0.1429 0.1429  plane waves:    3182
 k-point 23 :   0.4286 0.1429 0.1429  plane waves:    3202
 k-point 24 :  -0.4286 0.1429 0.1429  plane waves:    3202
 k-point 25 :  -0.2857 0.1429 0.1429  plane waves:    3186
 k-point 26 :  -0.1429 0.1429 0.1429  plane waves:    3198
 k-point 27 :   0.2857 0.2857 0.1429  plane waves:    3198
 k-point 28 :   0.4286 0.2857 0.1429  plane waves:    3199
 k-point 29 :  -0.4286 0.2857 0.1429  plane waves:    3199
 k-point 30 :  -0.2857 0.2857 0.1429  plane waves:    3203
 k-point 31 :   0.4286 0.4286 0.1429  plane waves:    3198
 k-point 32 :  -0.4286 0.4286 0.1429  plane waves:    3190
 k-point 33 :   0.0000 0.0000 0.2857  plane waves:    3174
 k-point 34 :   0.1429 0.0000 0.2857  plane waves:    3185
 k-point 35 :   0.2857 0.0000 0.2857  plane waves:    3197
 k-point 36 :   0.4286 0.0000 0.2857  plane waves:    3194
 k-point 37 :   0.1429 0.1429 0.2857  plane waves:    3182
 k-point 38 :   0.2857 0.1429 0.2857  plane waves:    3206
 k-point 39 :   0.4286 0.1429 0.2857  plane waves:    3198
 k-point 40 :  -0.4286 0.1429 0.2857  plane waves:    3201
 k-point 41 :  -0.2857 0.1429 0.2857  plane waves:    3197
 k-point 42 :  -0.1429 0.1429 0.2857  plane waves:    3201
 k-point 43 :   0.2857 0.2857 0.2857  plane waves:    3203
 k-point 44 :   0.4286 0.2857 0.2857  plane waves:    3198
 k-point 45 :  -0.4286 0.2857 0.2857  plane waves:    3193
 k-point 46 :  -0.2857 0.2857 0.2857  plane waves:    3198
 k-point 47 :   0.4286 0.4286 0.2857  plane waves:    3195
 k-point 48 :  -0.4286 0.4286 0.2857  plane waves:    3199
 k-point 49 :   0.0000 0.0000 0.4286  plane waves:    3190
 k-point 50 :   0.1429 0.0000 0.4286  plane waves:    3191
 k-point 51 :   0.2857 0.0000 0.4286  plane waves:    3202
 k-point 52 :   0.4286 0.0000 0.4286  plane waves:    3206
 k-point 53 :   0.1429 0.1429 0.4286  plane waves:    3193
 k-point 54 :   0.2857 0.1429 0.4286  plane waves:    3208
 k-point 55 :   0.4286 0.1429 0.4286  plane waves:    3205
 k-point 56 :  -0.4286 0.1429 0.4286  plane waves:    3196
 k-point 57 :  -0.2857 0.1429 0.4286  plane waves:    3197
 k-point 58 :  -0.1429 0.1429 0.4286  plane waves:    3183
 k-point 59 :   0.2857 0.2857 0.4286  plane waves:    3210
 k-point 60 :   0.4286 0.2857 0.4286  plane waves:    3203
 k-point 61 :  -0.4286 0.2857 0.4286  plane waves:    3202
 k-point 62 :  -0.2857 0.2857 0.4286  plane waves:    3193
 k-point 63 :   0.4286 0.4286 0.4286  plane waves:    3204
 k-point 64 :  -0.4286 0.4286 0.4286  plane waves:    3201

 maximum and minimum number of plane-waves per node :       550      513

 maximum number of plane-waves:      3223
 maximum index in each direction: 
   IXMAX=   10   IYMAX=    9   IZMAX=    8
   IXMIN=  -10   IYMIN=  -10   IZMIN=   -9


 real space projection operators:
  total allocation   :       2234.50 KBytes
  max/ min on nodes  :        392.45        340.70


 parallel 3D FFT for wavefunctions:
    minimum data exchange during FFTs selected (reduces bandwidth)
 parallel 3D FFT for charge:
    minimum data exchange during FFTs selected (reduces bandwidth)


 total amount of memory used by VASP MPI-rank0    46246. kBytes
=======================================================================

   base      :      30000. kBytes
   nonlr-proj:       1627. kBytes
   fftplans  :       1060. kBytes
   grid      :       3078. kBytes
   one-center:         12. kBytes
   wavefun   :      10469. kBytes
 
     INWAV:  cpu time    0.0000: real time    0.0001
 Broyden mixing: mesh for mixing (old mesh)
   NGX = 19   NGY = 19   NGZ = 17
  (NGX  = 80   NGY  = 80   NGZ  = 72)
  gives a total of   6137 points

 initial charge density was supplied:
 charge density of overlapping atoms calculated
 number of electron      56.0000000 magnetization       0.0000000
 keeping initial charge density in first step


--------------------------------------------------------------------------------------------------------


 Maximum index for non-local projection operator          938
 Maximum index for augmentation-charges          663 (set IRDMAX)


--------------------------------------------------------------------------------------------------------


 First call to EWALD:  gamma=   0.361
 Maximum number of real-space cells 3x 3x 3
 Maximum number of reciprocal cells 3x 3x 3

    FEWALD:  cpu time    0.0068: real time    0.0175


--------------------------------------- Iteration      1(   1)  ---------------------------------------


    POTLOK:  cpu time    0.0590: real time    0.1544
    SETDIJ:  cpu time    0.2631: real time    0.2769
     EDDAV:  cpu time    2.5296: real time    2.7891
 BZINTS: Fermi energy: 18.557822; 56.000000 electrons
         Band energy: -98.350016;  BLOECHL correction: -0.143744
       DOS:  cpu time    0.0719: real time    0.0836
    --------------------------------------------
      LOOP:  cpu time    2.9237: real time    3.3040

 eigenvalue-minimisations  :  9224
 total energy-change (2. order) : 0.4387538E+03  (-0.2834955E+04)
 number of electron      56.0000000 magnetization       0.0000000
 augmentation part       56.0000000 magnetization       0.0000000

 Free energy of the ion-electron system (eV)
  ---------------------------------------------------
  alpha Z        PSCENC =        97.41639043
  Ewald energy   TEWEN  =     -2316.10451326
  -Hartree energ DENC   =      -821.74683388
  -exchange      EXHF   =         0.00000000
  -V(xc)+E(xc)   XCENC  =       210.73491962
  PAW double counting   =      2394.62992819    -2449.50544232
  entropy T*S    EENTRO =         0.00000000
  eigenvalues    EBANDS =       -98.35001620
  atomic energy  EATOM  =      3421.67936747
  Solvation  Ediel_sol  =         0.00000000
  ---------------------------------------------------
  free energy    TOTEN  =       438.75380003 eV

  energy without entropy =      438.75380003  energy(sigma->0) =      438.75380003


--------------------------------------------------------------------------------------------------------




--------------------------------------- Iteration      1(   2)  ---------------------------------------


     EDDAV:  cpu time    2.7923: real time    2.7966
 BZINTS: Fermi energy:  1.623774; 56.000000 electrons
         Band energy:-581.274520;  BLOECHL correction:  0.000000
       DOS:  cpu time    0.0125: real time    0.0125
    --------------------------------------------
      LOOP:  cpu time    2.8048: real time    2.8092

 eigenvalue-minimisations  : 11128
 total energy-change (2. order) :-0.4829245E+03  (-0.4674973E+03)
 number of electron      56.0000000 magnetization       0.0000000
 augmentation part       56.0000000 magnetization       0.0000000

 Free energy of the ion-electron system (eV)
  ---------------------------------------------------
  alpha Z        PSCENC =        97.41639043
  Ewald energy   TEWEN  =     -2316.10451326
  -Hartree energ DENC   =      -821.74683388
  -exchange      EXHF   =         0.00000000
  -V(xc)+E(xc)   XCENC  =       210.73491962
  PAW double counting   =      2394.62992819    -2449.50544232
  entropy T*S    EENTRO =         0.00000000
  eigenvalues    EBANDS =      -581.27452036
  atomic energy  EATOM  =      3421.67936747
  Solvation  Ediel_sol  =         0.00000000
  ---------------------------------------------------
  free energy    TOTEN  =       -44.17070412 eV

  energy without entropy =      -44.17070412  energy(sigma->0) =      -44.17070412


--------------------------------------------------------------------------------------------------------




--------------------------------------- Iteration      1(   3)  ---------------------------------------


     EDDAV:  cpu time    3.2352: real time    3.2369
 BZINTS: Fermi energy:  0.495391; 56.000000 electrons
         Band energy:-620.571832;  BLOECHL correction:  0.000000
       DOS:  cpu time    0.0118: real time    0.0117
    --------------------------------------------
      LOOP:  cpu time    3.2469: real time    3.2486

 eigenvalue-minimisations  : 13388
 total energy-change (2. order) :-0.3929731E+02  (-0.3916648E+02)
 number of electron      56.0000000 magnetization       0.0000000
 augmentation part       56.0000000 magnetization       0.0000000

 Free energy of the ion-electron system (eV)
  ---------------------------------------------------
  alpha Z        PSCENC =        97.41639043
  Ewald energy   TEWEN  =     -2316.10451326
  -Hartree energ DENC   =      -821.74683388
  -exchange      EXHF   =         0.00000000
  -V(xc)+E(xc)   XCENC  =       210.73491962
  PAW double counting   =      2394.62992819    -2449.50544232
  entropy T*S    EENTRO =         0.00000000
  eigenvalues    EBANDS =      -620.57183191
  atomic energy  EATOM  =      3421.67936747
  Solvation  Ediel_sol  =         0.00000000
  ---------------------------------------------------
  free energy    TOTEN  =       -83.46801568 eV

  energy without entropy =      -83.46801568  energy(sigma->0) =      -83.46801568


--------------------------------------------------------------------------------------------------------




--------------------------------------- Iteration      1(   4)  ---------------------------------------


     EDDAV:  cpu time    3.7114: real time    3.7139
 BZINTS: Fermi energy:  0.351771; 56.000000 electrons
         Band energy:-624.106743;  BLOECHL correction:  0.000000
       DOS:  cpu time    0.0094: real time    0.0094
    --------------------------------------------
      LOOP:  cpu time    3.7208: real time    3.7233

 eigenvalue-minimisations  : 15800
 total energy-change (2. order) :-0.3534911E+01  (-0.3525973E+01)
 number of electron      56.0000000 magnetization       0.0000000
 augmentation part       56.0000000 magnetization       0.0000000

 Free energy of the ion-electron system (eV)
  ---------------------------------------------------
  alpha Z        PSCENC =        97.41639043
  Ewald energy   TEWEN  =     -2316.10451326
  -Hartree energ DENC   =      -821.74683388
  -exchange      EXHF   =         0.00000000
  -V(xc)+E(xc)   XCENC  =       210.73491962
  PAW double counting   =      2394.62992819    -2449.50544232
  entropy T*S    EENTRO =         0.00000000
  eigenvalues    EBANDS =      -624.10674311
  atomic energy  EATOM  =      3421.67936747
  Solvation  Ediel_sol  =         0.00000000
  ---------------------------------------------------
  free energy    TOTEN  =       -87.00292688 eV

  energy without entropy =      -87.00292688  energy(sigma->0) =      -87.00292688


--------------------------------------------------------------------------------------------------------




--------------------------------------- Iteration      1(   5)  ---------------------------------------


     EDDAV:  cpu time    3.1269: real time    3.1290
 BZINTS: Fermi energy:  0.461444; 56.000000 electrons
         Band energy:-624.372169;  BLOECHL correction:  0.000000
       DOS:  cpu time    0.0108: real time    0.0108
    CHARGE:  cpu time    0.1391: real time    0.1856
    MIXING:  cpu time    0.0082: real time    0.0228
    --------------------------------------------
      LOOP:  cpu time    3.2850: real time    3.3482

 eigenvalue-minimisations  : 12936
 total energy-change (2. order) :-0.2654260E+00  (-0.2654021E+00)
 number of electron      55.9999964 magnetization       0.0000000
 augmentation part        7.0574430 magnetization      -0.0005606

 Broyden mixing:
  rms(total) = 0.29150E+01    rms(broyden)= 0.29143E+01
  rms(prec ) = 0.45008E+01
  weight for this iteration     100.00

 Free energy of the ion-electron system (eV)
  ---------------------------------------------------
  alpha Z        PSCENC =        97.41639043
  Ewald energy   TEWEN  =     -2316.10451326
  -Hartree energ DENC   =      -821.74683388
  -exchange      EXHF   =         0.00000000
  -V(xc)+E(xc)   XCENC  =       210.73491962
  PAW double counting   =      2394.62992819    -2449.50544232
  entropy T*S    EENTRO =         0.00000000
  eigenvalues    EBANDS =      -624.37216912
  atomic energy  EATOM  =      3421.67936747
  Solvation  Ediel_sol  =         0.00000000
  ---------------------------------------------------
  free energy    TOTEN  =       -87.26835288 eV

  energy without entropy =      -87.26835288  energy(sigma->0) =      -87.26835288


--------------------------------------------------------------------------------------------------------




--------------------------------------- Iteration      1(   6)  ---------------------------------------


    POTLOK:  cpu time    0.0270: real time    0.0271
    SETDIJ:  cpu time    0.2619: real time    0.2621
    EDDIAG:  cpu time    0.5028: real time    0.5208
  RMM-DIIS:  cpu time    1.4506: real time    1.4654
    ORTHCH:  cpu time    0.0593: real time    0.0593
 BZINTS: Fermi energy:  2.559025; 56.000000 electrons
         Band energy:-535.265884;  BLOECHL correction:  0.000000
       DOS:  cpu time    0.0094: real time    0.0094
    CHARGE:  cpu time    0.1193: real time    0.1193
    MIXING:  cpu time    0.0029: real time    0.0086
    --------------------------------------------
      LOOP:  cpu time    2.4331: real time    2.4720

 eigenvalue-minimisations  :  9230
 total energy-change (2. order) : 0.9357728E+01  (-0.4179042E+01)
 number of electron      55.9999966 magnetization       0.0000000
 augmentation part        6.1925320 magnetization       0.0000607

 Broyden mixing:
  rms(total) = 0.11724E+01    rms(broyden)= 0.11721E+01
  rms(prec ) = 0.13770E+01
  weight for this iteration     100.00

 eigenvalues of (default mixing * dielectric matrix)
  average eigenvalue GAMMA=   1.2763
  1.2763

 Free energy of the ion-electron system (eV)
  ---------------------------------------------------
  alpha Z        PSCENC =        97.41639043
  Ewald energy   TEWEN  =     -2316.10451326
  -Hartree energ DENC   =      -905.42288872
  -exchange      EXHF   =         0.00000000
  -V(xc)+E(xc)   XCENC  =       216.79668772
  PAW double counting   =      4064.14034725    -4121.15013234
  entropy T*S    EENTRO =         0.00000000
  eigenvalues    EBANDS =      -535.26588389
  atomic energy  EATOM  =      3421.67936747
  Solvation  Ediel_sol  =         0.00000000
  ---------------------------------------------------
  free energy    TOTEN  =       -77.91062535 eV

  energy without entropy =      -77.91062535  energy(sigma->0) =      -77.91062535


--------------------------------------------------------------------------------------------------------




--------------------------------------- Iteration      1(   7)  ---------------------------------------


    POTLOK:  cpu time    0.0262: real time    0.0268
    SETDIJ:  cpu time    0.2615: real time    0.2617
    EDDIAG:  cpu time    0.4957: real time    0.4959
  RMM-DIIS:  cpu time    1.7665: real time    1.7676
    ORTHCH:  cpu time    0.0510: real time    0.0510
 BZINTS: Fermi energy:  2.821110; 56.000000 electrons
         Band energy:-525.907451;  BLOECHL correction:  0.000000
       DOS:  cpu time    0.0109: real time    0.0109
    CHARGE:  cpu time    0.1197: real time    0.1198
    MIXING:  cpu time    0.0010: real time    0.0008
    --------------------------------------------
      LOOP:  cpu time    2.7324: real time    2.7344

 eigenvalue-minimisations  : 11958
 total energy-change (2. order) : 0.2335338E+00  (-0.2367354E+00)
 number of electron      55.9999966 magnetization      -0.0000000
 augmentation part        6.0449640 magnetization      -0.0000560

 Broyden mixing:
  rms(total) = 0.55001E+00    rms(broyden)= 0.54994E+00
  rms(prec ) = 0.66984E+00
  weight for this iteration     100.00

 eigenvalues of (default mixing * dielectric matrix)
  average eigenvalue GAMMA=   1.5774
  1.1795  1.9754

 Free energy of the ion-electron system (eV)
  ---------------------------------------------------
  alpha Z        PSCENC =        97.41639043
  Ewald energy   TEWEN  =     -2316.10451326
  -Hartree energ DENC   =      -914.85855286
  -exchange      EXHF   =         0.00000000
  -V(xc)+E(xc)   XCENC  =       217.50677984
  PAW double counting   =      5482.56327743    -5539.97238984
  entropy T*S    EENTRO =         0.00000000
  eigenvalues    EBANDS =      -525.90745071
  atomic energy  EATOM  =      3421.67936747
  Solvation  Ediel_sol  =         0.00000000
  ---------------------------------------------------
  free energy    TOTEN  =       -77.67709151 eV

  energy without entropy =      -77.67709151  energy(sigma->0) =      -77.67709151


--------------------------------------------------------------------------------------------------------




--------------------------------------- Iteration      1(   8)  ---------------------------------------


    POTLOK:  cpu time    0.0277: real time    0.0281
    SETDIJ:  cpu time    0.2617: real time    0.2618
    EDDIAG:  cpu time    0.4965: real time    0.4967
  RMM-DIIS:  cpu time    1.6542: real time    1.6551
    ORTHCH:  cpu time    0.0509: real time    0.0510
 BZINTS: Fermi energy:  2.699636; 56.000000 electrons
         Band energy:-527.467747;  BLOECHL correction:  0.000000
       DOS:  cpu time    0.0093: real time    0.0093
    CHARGE:  cpu time    0.1193: real time    0.1193
    MIXING:  cpu time    0.0008: real time    0.0008
    --------------------------------------------
      LOOP:  cpu time    2.6202: real time    2.6220

 eigenvalue-minimisations  : 11239
 total energy-change (2. order) : 0.2259886E-02  (-0.3141738E-01)
 number of electron      55.9999966 magnetization      -0.0000000
 augmentation part        6.0762934 magnetization      -0.0001433

 Broyden mixing:
  rms(total) = 0.10240E+00    rms(broyden)= 0.10237E+00
  rms(prec ) = 0.16315E+00
  weight for this iteration     100.00

 eigenvalues of (default mixing * dielectric matrix)
  average eigenvalue GAMMA=   1.4815
  2.2929  1.0758  1.0758

 Free energy of the ion-electron system (eV)
  ---------------------------------------------------
  alpha Z        PSCENC =        97.41639043
  Ewald energy   TEWEN  =     -2316.10451326
  -Hartree energ DENC   =      -912.97312196
  -exchange      EXHF   =         0.00000000
  -V(xc)+E(xc)   XCENC  =       217.39784711
  PAW double counting   =      6706.37840453    -6764.00145861
  entropy T*S    EENTRO =         0.00000000
  eigenvalues    EBANDS =      -527.46774732
  atomic energy  EATOM  =      3421.67936747
  Solvation  Ediel_sol  =         0.00000000
  ---------------------------------------------------
  free energy    TOTEN  =       -77.67483162 eV

  energy without entropy =      -77.67483162  energy(sigma->0) =      -77.67483162


--------------------------------------------------------------------------------------------------------




--------------------------------------- Iteration      1(   9)  ---------------------------------------


    POTLOK:  cpu time    0.0275: real time    0.0276
    SETDIJ:  cpu time    0.2618: real time    0.2620
    EDDIAG:  cpu time    0.4961: real time    0.4964
  RMM-DIIS:  cpu time    1.9379: real time    1.9391
    ORTHCH:  cpu time    0.0512: real time    0.0512
 BZINTS: Fermi energy:  2.748491; 56.000000 electrons
         Band energy:-523.914446;  BLOECHL correction:  0.000000
       DOS:  cpu time    0.0092: real time    0.0092
    CHARGE:  cpu time    0.1195: real time    0.1196
    MIXING:  cpu time    0.0007: real time    0.0007
    --------------------------------------------
      LOOP:  cpu time    2.9040: real time    2.9058

 eigenvalue-minimisations  : 12976
 total energy-change (2. order) :-0.1037144E-01  (-0.1122238E-01)
 number of electron      55.9999967 magnetization      -0.0000000
 augmentation part        6.0434580 magnetization       0.0000344

 Broyden mixing:
  rms(total) = 0.27337E-01    rms(broyden)= 0.27232E-01
  rms(prec ) = 0.43627E-01
  weight for this iteration     100.00

 eigenvalues of (default mixing * dielectric matrix)
  average eigenvalue GAMMA=   1.4431
  2.3289  1.0640  1.0640  1.3154

 Free energy of the ion-electron system (eV)
  ---------------------------------------------------
  alpha Z        PSCENC =        97.41639043
  Ewald energy   TEWEN  =     -2316.10451326
  -Hartree energ DENC   =      -916.69597261
  -exchange      EXHF   =         0.00000000
  -V(xc)+E(xc)   XCENC  =       217.67700945
  PAW double counting   =      7029.83305262    -7087.57609123
  entropy T*S    EENTRO =         0.00000000
  eigenvalues    EBANDS =      -523.91444593
  atomic energy  EATOM  =      3421.67936747
  Solvation  Ediel_sol  =         0.00000000
  ---------------------------------------------------
  free energy    TOTEN  =       -77.68520306 eV

  energy without entropy =      -77.68520306  energy(sigma->0) =      -77.68520306


--------------------------------------------------------------------------------------------------------




--------------------------------------- Iteration      1(  10)  ---------------------------------------


    POTLOK:  cpu time    0.0266: real time    0.0267
    SETDIJ:  cpu time    0.2616: real time    0.2618
    EDDIAG:  cpu time    0.4959: real time    0.4961
  RMM-DIIS:  cpu time    1.9999: real time    2.0009
    ORTHCH:  cpu time    0.0510: real time    0.0511
 BZINTS: Fermi energy:  2.771177; 56.000000 electrons
         Band energy:-522.689102;  BLOECHL correction:  0.000000
       DOS:  cpu time    0.0092: real time    0.0092
    CHARGE:  cpu time    0.1194: real time    0.1195
    MIXING:  cpu time    0.0007: real time    0.0007
    --------------------------------------------
      LOOP:  cpu time    2.9644: real time    2.9660

 eigenvalue-minimisations  : 13526
 total energy-change (2. order) :-0.7692460E-02  (-0.5261706E-02)
 number of electron      55.9999967 magnetization      -0.0000000
 augmentation part        6.0223933 magnetization      -0.0000051

 Broyden mixing:
  rms(total) = 0.19600E-01    rms(broyden)= 0.19488E-01
  rms(prec ) = 0.28514E-01
  weight for this iteration     100.00

 eigenvalues of (default mixing * dielectric matrix)
  average eigenvalue GAMMA=   1.4922
  2.4020  2.2456  1.0524  1.0524  0.7087

 Free energy of the ion-electron system (eV)
  ---------------------------------------------------
  alpha Z        PSCENC =        97.41639043
  Ewald energy   TEWEN  =     -2316.10451326
  -Hartree energ DENC   =      -918.04793658
  -exchange      EXHF   =         0.00000000
  -V(xc)+E(xc)   XCENC  =       217.78093916
  PAW double counting   =      7020.18365019    -7077.91169078
  entropy T*S    EENTRO =         0.00000000
  eigenvalues    EBANDS =      -522.68910214
  atomic energy  EATOM  =      3421.67936747
  Solvation  Ediel_sol  =         0.00000000
  ---------------------------------------------------
  free energy    TOTEN  =       -77.69289552 eV

  energy without entropy =      -77.69289552  energy(sigma->0) =      -77.69289552


--------------------------------------------------------------------------------------------------------




--------------------------------------- Iteration      1(  11)  ---------------------------------------


    POTLOK:  cpu time    0.0266: real time    0.0267
    SETDIJ:  cpu time    0.2618: real time    0.2620
    EDDIAG:  cpu time    0.4956: real time    0.4959
  RMM-DIIS:  cpu time    2.0462: real time    2.0473
    ORTHCH:  cpu time    0.0532: real time    0.0532
 BZINTS: Fermi energy:  2.772943; 56.000000 electrons
         Band energy:-522.786289;  BLOECHL correction:  0.000000
       DOS:  cpu time    0.0093: real time    0.0093
    CHARGE:  cpu time    0.1205: real time    0.1205
    MIXING:  cpu time    0.0008: real time    0.0008
    --------------------------------------------
      LOOP:  cpu time    3.0139: real time    3.0158

 eigenvalue-minimisations  : 13936
 total energy-change (2. order) :-0.1551038E-02  (-0.1487623E-02)
 number of electron      55.9999967 magnetization      -0.0000000
 augmentation part        6.0190429 magnetization       0.0000535

 Broyden mixing:
  rms(total) = 0.94294E-02    rms(broyden)= 0.93449E-02
  rms(prec ) = 0.12018E-01
  weight for this iteration     100.00

 eigenvalues of (default mixing * dielectric matrix)
  average eigenvalue GAMMA=   1.6377
  3.1372  2.5041  1.3469  1.1031  1.1031  0.6316

 Free energy of the ion-electron system (eV)
  ---------------------------------------------------
  alpha Z        PSCENC =        97.41639043
  Ewald energy   TEWEN  =     -2316.10451326
  -Hartree energ DENC   =      -917.99844222
  -exchange      EXHF   =         0.00000000
  -V(xc)+E(xc)   XCENC  =       217.78071206
  PAW double counting   =      6999.76462616    -7057.44629855
  entropy T*S    EENTRO =         0.00000000
  eigenvalues    EBANDS =      -522.78628865
  atomic energy  EATOM  =      3421.67936747
  Solvation  Ediel_sol  =         0.00000000
  ---------------------------------------------------
  free energy    TOTEN  =       -77.69444656 eV

  energy without entropy =      -77.69444656  energy(sigma->0) =      -77.69444656


--------------------------------------------------------------------------------------------------------




--------------------------------------- Iteration      1(  12)  ---------------------------------------


    POTLOK:  cpu time    0.0277: real time    0.0279
    SETDIJ:  cpu time    0.2619: real time    0.2620
    EDDIAG:  cpu time    0.4954: real time    0.4956
  RMM-DIIS:  cpu time    2.0653: real time    2.0666
    ORTHCH:  cpu time    0.0511: real time    0.0512
 BZINTS: Fermi energy:  2.772874; 56.000000 electrons
         Band energy:-522.921861;  BLOECHL correction:  0.000000
       DOS:  cpu time    0.0092: real time    0.0093
    CHARGE:  cpu time    0.1194: real time    0.1194
    MIXING:  cpu time    0.0008: real time    0.0008
    --------------------------------------------
      LOOP:  cpu time    3.0308: real time    3.0328

 eigenvalue-minimisations  : 13969
 total energy-change (2. order) :-0.5701730E-03  (-0.5290283E-03)
 number of electron      55.9999967 magnetization      -0.0000000
 augmentation part        6.0172559 magnetization       0.0000479

 Broyden mixing:
  rms(total) = 0.68062E-02    rms(broyden)= 0.67637E-02
  rms(prec ) = 0.10367E-01
  weight for this iteration     100.00

 eigenvalues of (default mixing * dielectric matrix)
  average eigenvalue GAMMA=   1.7318
  3.6557  2.5328  2.1950  1.0574  1.0574  0.9933  0.6313

 Free energy of the ion-electron system (eV)
  ---------------------------------------------------
  alpha Z        PSCENC =        97.41639043
  Ewald energy   TEWEN  =     -2316.10451326
  -Hartree energ DENC   =      -917.92188654
  -exchange      EXHF   =         0.00000000
  -V(xc)+E(xc)   XCENC  =       217.77998834
  PAW double counting   =      6983.72270762    -7041.34520995
  entropy T*S    EENTRO =         0.00000000
  eigenvalues    EBANDS =      -522.92186083
  atomic energy  EATOM  =      3421.67936747
  Solvation  Ediel_sol  =         0.00000000
  ---------------------------------------------------
  free energy    TOTEN  =       -77.69501673 eV

  energy without entropy =      -77.69501673  energy(sigma->0) =      -77.69501673


--------------------------------------------------------------------------------------------------------




--------------------------------------- Iteration      1(  13)  ---------------------------------------


    POTLOK:  cpu time    0.0272: real time    0.0272
    SETDIJ:  cpu time    0.2610: real time    0.2617
    EDDIAG:  cpu time    0.4959: real time    0.4974
  RMM-DIIS:  cpu time    2.0897: real time    2.0921
    ORTHCH:  cpu time    0.0510: real time    0.0510
 BZINTS: Fermi energy:  2.772379; 56.000000 electrons
         Band energy:-522.804301;  BLOECHL correction:  0.000000
       DOS:  cpu time    0.0092: real time    0.0092
    CHARGE:  cpu time    0.1194: real time    0.1197
    MIXING:  cpu time    0.0008: real time    0.0008
    --------------------------------------------
      LOOP:  cpu time    3.0543: real time    3.0594

 eigenvalue-minimisations  : 14166
 total energy-change (2. order) :-0.9927410E-04  (-0.1902651E-03)
 number of electron      55.9999967 magnetization      -0.0000000
 augmentation part        6.0132822 magnetization       0.0000008

 Broyden mixing:
  rms(total) = 0.12931E-02    rms(broyden)= 0.12241E-02
  rms(prec ) = 0.17007E-02
  weight for this iteration     100.00

 eigenvalues of (default mixing * dielectric matrix)
  average eigenvalue GAMMA=   1.6882
  3.7403  2.7128  2.4404  1.0760  1.0760  1.0111  0.8197  0.6289

 Free energy of the ion-electron system (eV)
  ---------------------------------------------------
  alpha Z        PSCENC =        97.41639043
  Ewald energy   TEWEN  =     -2316.10451326
  -Hartree energ DENC   =      -918.09794672
  -exchange      EXHF   =         0.00000000
  -V(xc)+E(xc)   XCENC  =       217.79699775
  PAW double counting   =      6992.88798882    -7050.46909967
  entropy T*S    EENTRO =         0.00000000
  eigenvalues    EBANDS =      -522.80430082
  atomic energy  EATOM  =      3421.67936747
  Solvation  Ediel_sol  =         0.00000000
  ---------------------------------------------------
  free energy    TOTEN  =       -77.69511600 eV

  energy without entropy =      -77.69511600  energy(sigma->0) =      -77.69511600


--------------------------------------------------------------------------------------------------------




--------------------------------------- Iteration      1(  14)  ---------------------------------------


    POTLOK:  cpu time    0.0270: real time    0.0297
    SETDIJ:  cpu time    0.2619: real time    0.2621
    EDDIAG:  cpu time    0.4944: real time    0.4947
  RMM-DIIS:  cpu time    1.8922: real time    1.8933
    ORTHCH:  cpu time    0.0511: real time    0.0511
 BZINTS: Fermi energy:  2.769915; 56.000000 electrons
         Band energy:-522.807985;  BLOECHL correction:  0.000000
       DOS:  cpu time    0.0092: real time    0.0092
    CHARGE:  cpu time    0.1192: real time    0.1193
    MIXING:  cpu time    0.0009: real time    0.0009
    --------------------------------------------
      LOOP:  cpu time    2.8560: real time    2.8603

 eigenvalue-minimisations  : 12395
 total energy-change (2. order) :-0.6655734E-04  (-0.6752115E-04)
 number of electron      55.9999967 magnetization       0.0000000
 augmentation part        6.0115973 magnetization       0.0000170

 Broyden mixing:
  rms(total) = 0.10375E-02    rms(broyden)= 0.99669E-03
  rms(prec ) = 0.14229E-02
  weight for this iteration     100.00

 eigenvalues of (default mixing * dielectric matrix)
  average eigenvalue GAMMA=   1.7023
  4.4158  2.8600  2.4335  1.2237  1.0508  1.0508  0.9396  0.6289  0.7177

 Free energy of the ion-electron system (eV)
  ---------------------------------------------------
  alpha Z        PSCENC =        97.41639043
  Ewald energy   TEWEN  =     -2316.10451326
  -Hartree energ DENC   =      -918.10585845
  -exchange      EXHF   =         0.00000000
  -V(xc)+E(xc)   XCENC  =       217.79810803
  PAW double counting   =      6996.42466484    -7053.99535684
  entropy T*S    EENTRO =         0.00000000
  eigenvalues    EBANDS =      -522.80798477
  atomic energy  EATOM  =      3421.67936747
  Solvation  Ediel_sol  =         0.00000000
  ---------------------------------------------------
  free energy    TOTEN  =       -77.69518256 eV

  energy without entropy =      -77.69518256  energy(sigma->0) =      -77.69518256


--------------------------------------------------------------------------------------------------------




--------------------------------------- Iteration      1(  15)  ---------------------------------------


    POTLOK:  cpu time    0.0267: real time    0.0268
    SETDIJ:  cpu time    0.2619: real time    0.2620
    EDDIAG:  cpu time    0.4939: real time    0.4942
  RMM-DIIS:  cpu time    1.5841: real time    1.5852
    ORTHCH:  cpu time    0.0510: real time    0.0510
 BZINTS: Fermi energy:  2.768054; 56.000000 electrons
         Band energy:-522.822467;  BLOECHL correction:  0.000000
       DOS:  cpu time    0.0093: real time    0.0093
    CHARGE:  cpu time    0.1192: real time    0.1193
    MIXING:  cpu time    0.0009: real time    0.0009
    --------------------------------------------
      LOOP:  cpu time    2.5470: real time    2.5486

 eigenvalue-minimisations  : 10459
 total energy-change (2. order) :-0.7239534E-05  (-0.1260239E-04)
 number of electron      55.9999967 magnetization       0.0000000
 augmentation part        6.0111583 magnetization       0.0000024

 Broyden mixing:
  rms(total) = 0.59262E-03    rms(broyden)= 0.58054E-03
  rms(prec ) = 0.75718E-03
  weight for this iteration     100.00

 eigenvalues of (default mixing * dielectric matrix)
  average eigenvalue GAMMA=   1.6904
  4.5376  2.8637  2.4199  1.8110  1.0441  1.0441  0.9327  0.9327  0.6327  0.6858

 Free energy of the ion-electron system (eV)
  ---------------------------------------------------
  alpha Z        PSCENC =        97.41639043
  Ewald energy   TEWEN  =     -2316.10451326
  -Hartree energ DENC   =      -918.10787301
  -exchange      EXHF   =         0.00000000
  -V(xc)+E(xc)   XCENC  =       217.79940993
  PAW double counting   =      6996.68887266    -7054.24437737
  entropy T*S    EENTRO =         0.00000000
  eigenvalues    EBANDS =      -522.82246665
  atomic energy  EATOM  =      3421.67936747
  Solvation  Ediel_sol  =         0.00000000
  ---------------------------------------------------
  free energy    TOTEN  =       -77.69518980 eV

  energy without entropy =      -77.69518980  energy(sigma->0) =      -77.69518980


--------------------------------------------------------------------------------------------------------




--------------------------------------- Iteration      1(  16)  ---------------------------------------


    POTLOK:  cpu time    0.0269: real time    0.0317
    SETDIJ:  cpu time    0.2616: real time    0.2618
    EDDIAG:  cpu time    0.4950: real time    0.4952
  RMM-DIIS:  cpu time    1.2241: real time    1.2249
    ORTHCH:  cpu time    0.0508: real time    0.0509
 BZINTS: Fermi energy:  2.765986; 56.000000 electrons
         Band energy:-522.826383;  BLOECHL correction:  0.000000
       DOS:  cpu time    0.0092: real time    0.0092
    --------------------------------------------
      LOOP:  cpu time    2.0677: real time    2.0737

 eigenvalue-minimisations  :  7658
 total energy-change (2. order) :-0.3643615E-05  (-0.2724824E-05)
[...]
      9     -12.5118      1.00000
     10     -12.1958      1.00000
     11      -5.5858      1.00000
     12      -5.0062      1.00000
     13      -2.4851      1.00000
     14      -2.4550      1.00000
     15      -2.2734      1.00000
     16      -2.1472      1.00000
     17      -0.9205      1.00000
     18      -0.6208      1.00000
     19      -0.0437      1.00000
     20       0.0200      1.00000
     21       0.0475      1.00000
     22       0.3186      1.00000
     23       1.1687      1.00000
     24       1.3120      1.00000
     25       1.6403      1.00000
     26       1.7006      1.00000
     27       2.3894      1.00000
     28       2.5186      1.00000
     29       9.3119      0.00000
     30       9.6522      0.00000
     31      10.2990      0.00000
     32      10.3232      0.00000
     33      10.7848      0.00000
     34      10.8442      0.00000
     35      11.8927      0.00000
     36      12.2721      0.00000

 k-point    60 :       0.4286    0.2857    0.4286
  band No.  band energies     occupation 
      1     -40.1886      1.00000
      2     -40.1865      1.00000
      3     -40.1847      1.00000
      4     -40.1832      1.00000
      5     -16.7521      1.00000
      6     -16.6499      1.00000
      7     -15.0552      1.00000
      8     -15.0153      1.00000
      9     -12.5112      1.00000
     10     -12.1923      1.00000
     11      -5.6105      1.00000
     12      -5.0326      1.00000
     13      -2.4950      1.00000
     14      -2.4441      1.00000
     15      -2.1387      1.00000
     16      -2.0421      1.00000
     17      -0.9431      1.00000
     18      -0.5318      1.00000
     19      -0.1905      1.00000
     20      -0.1097      1.00000
     21       0.0501      1.00000
     22       0.2988      1.00000
     23       1.1033      1.00000
     24       1.2538      1.00000
     25       1.6712      1.00000
     26       1.6976      1.00000
     27       2.4530      1.00000
     28       2.5931      1.00000
     29       9.1683      0.00000
     30       9.4571      0.00000
     31      10.3324      0.00000
     32      10.4708      0.00000
     33      10.7837      0.00000
     34      10.9607      0.00000
     35      12.4557      0.00000
     36      12.8387      0.00000

 k-point    61 :      -0.4286    0.2857    0.4286
  band No.  band energies     occupation 
      1     -40.1904      1.00000
      2     -40.1862      1.00000
      3     -40.1839      1.00000
      4     -40.1824      1.00000
      5     -16.7636      1.00000
      6     -16.6427      1.00000
      7     -15.0552      1.00000
      8     -15.0142      1.00000
      9     -12.4990      1.00000
     10     -12.1782      1.00000
     11      -5.6560      1.00000
     12      -5.0933      1.00000
     13      -2.5148      1.00000
     14      -2.4391      1.00000
     15      -2.0918      1.00000
     16      -1.9715      1.00000
     17      -0.9420      1.00000
     18      -0.4768      1.00000
     19      -0.2320      1.00000
     20      -0.1916      1.00000
     21       0.1261      1.00000
     22       0.2771      1.00000
     23       1.0078      1.00000
     24       1.1138      1.00000
     25       1.6695      1.00000
     26       1.7406      1.00000
     27       2.5549      1.00000
     28       2.6730      1.00000
     29       9.2520      0.00000
     30       9.4182      0.00000
     31      10.4837      0.00000
     32      10.6226      0.00000
     33      10.8137      0.00000
     34      11.2655      0.00000
     35      12.3795      0.00000
     36      12.6259      0.00000

 k-point    62 :      -0.2857    0.2857    0.4286
  band No.  band energies     occupation 
      1     -40.1917      1.00000
      2     -40.1871      1.00000
      3     -40.1825      1.00000
      4     -40.1816      1.00000
      5     -16.7772      1.00000
      6     -16.6437      1.00000
      7     -15.0434      1.00000
      8     -15.0093      1.00000
      9     -12.4841      1.00000
     10     -12.1642      1.00000
     11      -5.6857      1.00000
     12      -5.1380      1.00000
     13      -2.5487      1.00000
     14      -2.4505      1.00000
     15      -2.1775      1.00000
     16      -1.9950      1.00000
     17      -0.9492      1.00000
     18      -0.4601      1.00000
     19      -0.1505      1.00000
     20      -0.1298      1.00000
     21       0.2058      1.00000
     22       0.2887      1.00000
     23       0.9381      1.00000
     24       1.0141      1.00000
     25       1.6666      1.00000
     26       1.7913      1.00000
     27       2.6060      1.00000
     28       2.7099      1.00000
     29       9.3908      0.00000
     30       9.4317      0.00000
     31      10.5347      0.00000
     32      10.7011      0.00000
     33      11.0383      0.00000
     34      11.4984      0.00000
     35      12.1202      0.00000
     36      12.2100      0.00000

 k-point    63 :       0.4286    0.4286    0.4286
  band No.  band energies     occupation 
      1     -40.1891      1.00000
      2     -40.1854      1.00000
      3     -40.1842      1.00000
      4     -40.1842      1.00000
      5     -16.7545      1.00000
      6     -16.6390      1.00000
      7     -15.0679      1.00000
      8     -15.0177      1.00000
      9     -12.5083      1.00000
     10     -12.1861      1.00000
     11      -5.6441      1.00000
     12      -5.0728      1.00000
     13      -2.4527      1.00000
     14      -2.3824      1.00000
     15      -2.0580      1.00000
     16      -1.9652      1.00000
     17      -0.9274      1.00000
     18      -0.4454      1.00000
     19      -0.3232      1.00000
     20      -0.2454      1.00000
     21       0.0313      1.00000
     22       0.2291      1.00000
     23       1.0773      1.00000
     24       1.1857      1.00000
     25       1.6553      1.00000
     26       1.7007      1.00000
     27       2.5513      1.00000
     28       2.6649      1.00000
     29       9.0941      0.00000
     30       9.3003      0.00000
     31      10.5478      0.00000
     32      10.5516      0.00000
     33      10.8440      0.00000
     34      11.1673      0.00000
     35      12.4237      0.00000
     36      13.0535      0.00000

 k-point    64 :      -0.4286    0.4286    0.4286
  band No.  band energies     occupation 
      1     -40.1899      1.00000
      2     -40.1854      1.00000
      3     -40.1843      1.00000
      4     -40.1834      1.00000
      5     -16.7594      1.00000
      6     -16.6360      1.00000
      7     -15.0678      1.00000
      8     -15.0173      1.00000
      9     -12.5028      1.00000
     10     -12.1798      1.00000
     11      -5.6645      1.00000
     12      -5.1006      1.00000
     13      -2.4586      1.00000
     14      -2.3802      1.00000
     15      -2.0315      1.00000
     16      -1.9327      1.00000
     17      -0.9248      1.00000
     18      -0.4411      1.00000
     19      -0.3273      1.00000
     20      -0.2894      1.00000
     21       0.0907      1.00000
     22       0.1997      1.00000
     23       1.0459      1.00000
     24       1.1164      1.00000
     25       1.6460      1.00000
     26       1.7206      1.00000
     27       2.6009      1.00000
     28       2.6913      1.00000
     29       9.1674      0.00000
     30       9.2847      0.00000
     31      10.5884      0.00000
     32      10.6682      0.00000
     33      10.8681      0.00000
     34      11.3701      0.00000
     35      12.2325      0.00000
     36      12.7147      0.00000


--------------------------------------------------------------------------------------------------------


 soft charge-density along one line, spin component           1
         0         1         2         3         4         5         6         7         8         9
 total charge-density along one line
 
 soft charge-density along one line, spin component           2
         0         1         2         3         4         5         6         7         8         9
 total charge-density along one line
 
 pseudopotential strength for first ion, spin component:           1
-37.691   3.760   0.001   0.001   0.000
  3.760 -10.188   0.003   0.003   0.002
  0.001   0.003   0.165   0.000  -0.000
  0.001   0.003   0.000   0.165   0.000
  0.000   0.002  -0.000   0.000   0.164
 pseudopotential strength for first ion, spin component:           2
-37.691   3.760   0.001   0.001   0.000
  3.760 -10.188   0.003   0.003   0.002
  0.001   0.003   0.165   0.000  -0.000
  0.001   0.003   0.000   0.165   0.000
  0.000   0.002  -0.000   0.000   0.164
 total augmentation occupancy for first ion, spin component:           1
  2.000  -0.003  -0.002  -0.002  -0.001
 -0.003   0.743   0.008   0.006   0.006
 -0.002   0.008   0.028  -0.000   0.000
 -0.002   0.006  -0.000   0.024  -0.000
 -0.001   0.006   0.000  -0.000   0.029
 total augmentation occupancy for first ion, spin component:           2
  0.000   0.000  -0.000   0.000   0.000
  0.000   0.000   0.000  -0.000   0.000
 -0.000   0.000   0.000  -0.000   0.000
  0.000  -0.000  -0.000   0.000  -0.000
  0.000   0.000   0.000  -0.000   0.000


------------------------ aborting loop because EDIFF is reached ----------------------------------------


 


 total charge     
 
# of ion       s       p       d       tot
------------------------------------------
    1        2.022   0.058   0.000   2.080
    2        2.023   0.057   0.000   2.079
    3        2.023   0.058   0.000   2.080
    4        2.023   0.057   0.000   2.080
    5        0.919   1.484   0.000   2.403
    6        0.919   1.484   0.000   2.403
    7        1.231   2.700   0.000   3.931
    8        1.231   2.702   0.000   3.933
    9        1.561   3.600   0.000   5.161
   10        1.558   3.598   0.000   5.156
   11        1.561   3.599   0.000   5.161
   12        1.558   3.597   0.000   5.155
--------------------------------------------------
tot         18.629  22.993   0.000  41.622
 


 magnetization (x)
 
# of ion       s       p       d       tot
------------------------------------------
    1        0.000  -0.000   0.000  -0.000
    2        0.000  -0.000   0.000  -0.000
    3        0.000  -0.000   0.000  -0.000
    4        0.000  -0.000   0.000  -0.000
    5       -0.000   0.000   0.000   0.000
    6       -0.000   0.000   0.000   0.000
    7        0.000  -0.000   0.000   0.000
    8        0.000   0.000   0.000   0.000
    9       -0.000  -0.000   0.000  -0.000
   10       -0.000  -0.000   0.000  -0.000
   11       -0.000  -0.000   0.000  -0.000
   12       -0.000  -0.000   0.000  -0.000
--------------------------------------------------
tot          0.000  -0.000   0.000  -0.000
 
    CHARGE:  cpu time    0.1195: real time    0.1196
    FORLOC:  cpu time    0.0024: real time    0.0024
    FORNL :  cpu time    0.5946: real time    0.5949
    STRESS:  cpu time    1.7884: real time    1.7893
    FORCOR:  cpu time    0.0273: real time    0.0273
    FORHAR:  cpu time    0.0044: real time    0.0044
    MIXING:  cpu time    0.0005: real time    0.0005
    OFIELD:  cpu time    0.0000: real time    0.0000

  FORCE on cell =-STRESS in cart. coord.  units (eV):
  Direction    XX          YY          ZZ          XY          YZ          ZX
  --------------------------------------------------------------------------------------
  Alpha Z    98.36790    98.36790    98.36790
  Ewald    -778.33352  -777.53946  -773.25099    -0.00000    -0.00000    -0.00000
  Hartree   297.43064   287.17196   325.48738     0.00000     0.00000    -0.00000
  E(xc)    -257.51115  -257.55792  -257.57443    -0.00000    -0.00000    -0.00000
  Local    -356.38730  -343.60150  -395.33675    -0.00000     0.00000     0.00000
  n-local   -93.35808   -94.46892   -91.12018     0.06399     0.02814     0.01842
  augment    82.00552    80.88360    82.53358    -0.00000    -0.00000    -0.00000
  Kinetic  1007.73374  1006.77497  1010.86831    -0.42947    -0.21822    -0.15233
  Fock        0.00000     0.00000     0.00000     0.00000     0.00000     0.00000
  -------------------------------------------------------------------------------------
  Total      -0.05225     0.03063    -0.02518     0.00000     0.00000     0.00000
  in kB      -0.71198     0.41734    -0.34307     0.00000     0.00000     0.00000
  external pressure =       -0.21 kB  Pullay stress =        0.00 kB


 VOLUME and BASIS-vectors are now :
 -----------------------------------------------------------------------------
  energy-cutoff  :      520.00
  volume of cell :      117.58
      direct lattice vectors                 reciprocal lattice vectors
     2.720708251 -4.555526682  0.000000000     0.183775677 -0.109756793  0.000000000
     2.720708251  4.555526682  0.000000000     0.183775677  0.109756793  0.000000000
     0.000000000  0.000000000  4.743197136     0.000000000  0.000000000  0.210828260

  length of vectors
     5.306135764  5.306135764  4.743197136     0.214056191  0.214056191  0.210828260


 FORCES acting on ions
    electron-ion (+dipol)            ewald-force                    non-local-force                 convergence-correction
 -----------------------------------------------------------------------------------------------
   0.211E+01 0.349E+01 0.670E+01   -.188E+01 -.318E+01 -.639E+01   -.238E+00 -.310E+00 -.303E+00   -.143E-03 -.143E-02 -.312E-03
   0.211E+01 -.349E+01 0.670E+01   -.188E+01 0.318E+01 -.639E+01   -.238E+00 0.310E+00 -.303E+00   -.143E-03 0.143E-02 -.312E-03
   -.211E+01 -.349E+01 0.670E+01   0.188E+01 0.318E+01 -.639E+01   0.238E+00 0.310E+00 -.303E+00   0.143E-03 0.143E-02 -.312E-03
   -.211E+01 0.349E+01 0.670E+01   0.188E+01 -.318E+01 -.639E+01   0.238E+00 -.310E+00 -.303E+00   0.143E-03 -.143E-02 -.312E-03
   0.222E+02 -.565E-12 -.166E+02   -.228E+02 0.200E-14 0.162E+02   0.509E+00 0.000E+00 0.416E+00   0.335E-03 -.390E-12 -.619E-02
   -.222E+02 0.858E-13 -.166E+02   0.228E+02 0.000E+00 0.162E+02   -.509E+00 0.000E+00 0.416E+00   -.335E-03 0.172E-12 -.619E-02
   0.602E+02 -.176E-11 -.370E+02   -.753E+02 -.355E-14 0.477E+02   0.151E+02 0.000E+00 -.107E+02   0.130E-01 0.562E-12 0.128E-01
   -.602E+02 0.782E-12 -.370E+02   0.753E+02 -.355E-14 0.477E+02   -.151E+02 0.000E+00 -.107E+02   -.130E-01 -.959E-12 0.128E-01
   -.567E+02 0.922E+02 0.184E+02   0.730E+02 -.117E+03 -.255E+02   -.163E+02 0.251E+02 0.716E+01   -.949E-03 0.644E-02 -.411E-02
   -.567E+02 -.922E+02 0.184E+02   0.730E+02 0.117E+03 -.255E+02   -.163E+02 -.251E+02 0.716E+01   -.949E-03 -.644E-02 -.411E-02
   0.567E+02 -.922E+02 0.184E+02   -.730E+02 0.117E+03 -.255E+02   0.163E+02 -.251E+02 0.716E+01   0.949E-03 -.644E-02 -.411E-02
   0.567E+02 0.922E+02 0.184E+02   -.730E+02 -.117E+03 -.255E+02   0.163E+02 0.251E+02 0.716E+01   0.949E-03 0.644E-02 -.411E-02
 -----------------------------------------------------------------------------------------------
   0.387E-05 0.170E-11 -.680E+01   -.142E-13 -.142E-13 -.711E-14   0.107E-13 0.355E-14 0.681E+01   0.310E-12 -.156E-11 -.446E-02
 
 
 POSITION                                       TOTAL-FORCE (eV/Angst)
 -----------------------------------------------------------------------------------
      3.58715      3.04688      2.37869        -0.004897     -0.003646      0.002698
      3.58715     -3.04688      2.37869        -0.004897      0.003646      0.002698
      1.85427     -3.04688      0.00709         0.004897      0.003646      0.002698
      1.85427      3.04688      0.00709         0.004897     -0.003646      0.002698
      3.56136      0.00000      2.36797        -0.004889     -0.000000     -0.013452
      1.88006      0.00000      4.73957         0.004889     -0.000000     -0.013452
      2.09951      0.00000      1.62560         0.007146     -0.000000      0.006420
      3.34190      0.00000      3.99720        -0.007146     -0.000000      0.006420
      4.38792     -1.27076      1.98278         0.000053     -0.000588      0.000818
      4.38792      1.27076      1.98278         0.000053      0.000588      0.000818
      1.05350      1.27076      4.35437        -0.000053      0.000588      0.000818
      1.05350     -1.27076      4.35437        -0.000053     -0.000588      0.000818
 -----------------------------------------------------------------------------------
    total drift:                                0.000004      0.000000     -0.002777


--------------------------------------------------------------------------------------------------------



  FREE ENERGIE OF THE ION-ELECTRON SYSTEM (eV)
  ---------------------------------------------------
  free  energy   TOTEN  =       -77.70001913 eV

  energy  without entropy=      -77.70001913  energy(sigma->0) =      -77.70001913
 
 d Force = 0.8499106E-05[-0.411E-05, 0.211E-04]  d Energy = 0.6696680E-05 0.180E-05
 d Force = 0.1031286E+00[ 0.103E+00, 0.103E+00]  d Ewald  =-0.2437594E-01 0.128E+00


--------------------------------------------------------------------------------------------------------


    POTLOK:  cpu time    0.2828: real time    0.2829


--------------------------------------------------------------------------------------------------------




--------------------------------------------------------------------------------------------------------


  
 reached required accuracy - stopping structural energy minimisation
     LOOP+:  cpu time    8.3481: real time    8.3553
    4ORBIT:  cpu time    0.0000: real time    0.0000
 


 total charge     
 
# of ion       s       p       d       tot
------------------------------------------
    1        2.022   0.058   0.000   2.080
    2        2.023   0.057   0.000   2.079
    3        2.023   0.058   0.000   2.080
    4        2.023   0.057   0.000   2.080
    5        0.919   1.484   0.000   2.403
    6        0.919   1.484   0.000   2.403
    7        1.231   2.700   0.000   3.931
    8        1.231   2.702   0.000   3.933
    9        1.561   3.600   0.000   5.161
   10        1.558   3.598   0.000   5.156
   11        1.561   3.599   0.000   5.161
   12        1.558   3.597   0.000   5.155
--------------------------------------------------
tot         18.629  22.993   0.000  41.622
 


 magnetization (x)
 
# of ion       s       p       d       tot
------------------------------------------
    1        0.000  -0.000   0.000  -0.000
    2        0.000  -0.000   0.000  -0.000
    3        0.000  -0.000   0.000  -0.000
    4        0.000  -0.000   0.000  -0.000
    5       -0.000   0.000   0.000   0.000
    6       -0.000   0.000   0.000   0.000
    7        0.000  -0.000   0.000   0.000
    8        0.000   0.000   0.000   0.000
    9       -0.000  -0.000   0.000  -0.000
   10       -0.000  -0.000   0.000  -0.000
   11       -0.000  -0.000   0.000  -0.000
   12       -0.000  -0.000   0.000  -0.000
--------------------------------------------------
tot          0.000  -0.000   0.000  -0.000
 
 BZINTS: Fermi energy:  2.801095; 56.000000 electrons
         Band energy:-519.010178;  BLOECHL correction:  0.000000

 total amount of memory used by VASP MPI-rank0    46246. kBytes
=======================================================================

   base      :      30000. kBytes
   nonlr-proj:       1627. kBytes
   fftplans  :       1060. kBytes
   grid      :       3078. kBytes
   one-center:         12. kBytes
   wavefun   :      10469. kBytes
 
  
  
 General timing and accounting informations for this job:
 ========================================================
  
                  Total CPU time used (sec):      128.119
                            User time (sec):      124.809
                          System time (sec):        3.310
                         Elapsed time (sec):      130.307
  
                   Maximum memory used (kb):       85856.
                   Average memory used (kb):           0.
  
                          Minor page faults:        38056
                          Major page faults:            0
                 Voluntary context switches:        85356
