   96   96    1    2
  0.8658485E+01  0.9405860E-09  0.9405860E-09  0.9405860E-09  0.5000000E-15
  1.000000000000000E-004
  CAR 
 unknown system                          
    368      8    264
 
  0.0000000E+00  0.0000000E+00  0.0000000E+00  0.3703704E-01
    1      -40.856330    -40.856330   1.000000   1.000000
    2      -40.854353    -40.854353   1.000000   1.000000
    3      -40.850769    -40.850769   1.000000   1.000000
    4      -40.849178    -40.849177   1.000000   1.000000
    5      -40.835807    -40.835808   1.000000   1.000000
    6      -40.834536    -40.834537   1.000000   1.000000
    7      -40.830073    -40.830075   1.000000   1.000000
    8      -40.829113    -40.829114   1.000000   1.000000
    9      -40.619771    -40.619771   1.000000   1.000000
   10      -40.619413    -40.619414   1.000000   1.000000
   11      -40.605482    -40.605481   1.000000   1.000000
   12      -40.605003    -40.605002   1.000000   1.000000
   13      -40.567460    -40.567462   1.000000   1.000000
   14      -40.565339    -40.565340   1.000000   1.000000
   15      -40.557993    -40.557993   1.000000   1.000000
   16      -40.557320    -40.557320   1.000000   1.000000
   17      -40.549015    -40.549015   1.000000   1.000000
   18      -40.548272    -40.548271   1.000000   1.000000
   19      -40.540117    -40.540116   1.000000   1.000000
   20      -40.534371    -40.534369   1.000000   1.000000
   21      -40.526617    -40.526617   1.000000   1.000000
   22      -40.525486    -40.525485   1.000000   1.000000
   23      -40.517820    -40.517818   1.000000   1.000000
   24      -40.517819    -40.517817   1.000000   1.000000
   25      -40.509916    -40.509916   1.000000   1.000000
   26      -40.504790    -40.504790   1.000000   1.000000
   27      -40.499186    -40.499185   1.000000   1.000000
   28      -40.498753    -40.498753   1.000000   1.000000
   29      -40.487681    -40.487680   1.000000   1.000000
   30      -40.486449    -40.486448   1.000000   1.000000
   31      -40.473235    -40.473236   1.000000   1.000000
   32      -40.470383    -40.470382   1.000000   1.000000
   33      -40.469896    -40.469896   1.000000   1.000000
   34      -40.469834    -40.469833   1.000000   1.000000
   35      -40.437780    -40.437781   1.000000   1.000000
   36      -40.434730    -40.434730   1.000000   1.000000
   37      -40.434023    -40.434024   1.000000   1.000000
   38      -40.433637    -40.433637   1.000000   1.000000
   39      -40.422333    -40.422332   1.000000   1.000000
   40      -40.422228    -40.422227   1.000000   1.000000
   41      -40.404486    -40.404484   1.000000   1.000000
   42      -40.404269    -40.404267   1.000000   1.000000
   43      -40.378829    -40.378829   1.000000   1.000000
   44      -40.378430    -40.378430   1.000000   1.000000
   45      -40.285107    -40.285111   1.000000   1.000000
   46      -40.284262    -40.284266   1.000000   1.000000
   47      -40.284122    -40.284125   1.000000   1.000000
   48      -40.279992    -40.279995   1.000000   1.000000
   49      -40.279005    -40.279009   1.000000   1.000000
   50      -40.278945    -40.278949   1.000000   1.000000
   51      -39.897575    -39.897575   1.000000   1.000000
   52      -39.897409    -39.897409   1.000000   1.000000
   53      -39.893609    -39.893610   1.000000   1.000000
   54      -39.888014    -39.888014   1.000000   1.000000
   55      -39.887454    -39.887453   1.000000   1.000000
   56      -39.887447    -39.887446   1.000000   1.000000
   57      -12.824240    -12.824247   1.000000   1.000000
   58      -12.819450    -12.819458   1.000000   1.000000
   59      -12.691947    -12.691952   1.000000   1.000000
   60      -12.686406    -12.686413   1.000000   1.000000
   61      -12.685756    -12.685763   1.000000   1.000000
   62      -12.684571    -12.684578   1.000000   1.000000
   63      -12.673339    -12.673346   1.000000   1.000000
   64      -12.672959    -12.672965   1.000000   1.000000
   65       -9.610793     -9.610793   1.000000   1.000000
   66       -9.608941     -9.608942   1.000000   1.000000
   67       -9.592182     -9.592184   1.000000   1.000000
   68       -9.565584     -9.565584   1.000000   1.000000
   69       -9.565154     -9.565153   1.000000   1.000000
   70       -9.524337     -9.524337   1.000000   1.000000
   71       -9.522447     -9.522447   1.000000   1.000000
   72       -9.517461     -9.517462   1.000000   1.000000
   73       -9.505380     -9.505380   1.000000   1.000000
   74       -9.504291     -9.504291   1.000000   1.000000
   75       -9.477716     -9.477716   1.000000   1.000000
   76       -9.457446     -9.457446   1.000000   1.000000
   77       -9.456684     -9.456684   1.000000   1.000000
   78       -9.450236     -9.450236   1.000000   1.000000
   79       -9.447441     -9.447441   1.000000   1.000000
   80       -9.427729     -9.427728   1.000000   1.000000
   81       -9.394262     -9.394260   1.000000   1.000000
   82       -9.374311     -9.374311   1.000000   1.000000
   83       -9.370443     -9.370442   1.000000   1.000000
   84       -9.356914     -9.356913   1.000000   1.000000
   85       -9.328433     -9.328433   1.000000   1.000000
   86       -9.319535     -9.319535   1.000000   1.000000
   87       -9.306969     -9.306969   1.000000   1.000000
   88       -9.294230     -9.294230   1.000000   1.000000
   89       -3.003201     -3.003210   1.000000   1.000000
   90       -2.712415     -2.712423   1.000000   1.000000
   91       -2.700160     -2.700168   1.000000   1.000000
   92       -2.680525     -2.680534   1.000000   1.000000
   93       -2.679411     -2.679419   1.000000   1.000000
   94       -2.597051     -2.597060   1.000000   1.000000
   95       -2.597044     -2.597053   1.000000   1.000000
   96       -2.554683     -2.554695   1.000000   1.000000
   97       -1.152455     -1.152457   1.000000   1.000000
   98       -1.144837     -1.144838   1.000000   1.000000
   99       -1.132108     -1.132109   1.000000   1.000000
  100       -1.106042     -1.106044   1.000000   1.000000
  101       -1.094318     -1.094319   1.000000   1.000000
  102       -1.088567     -1.088569   1.000000   1.000000
  103       -0.931394     -0.931395   1.000000   1.000000
  104       -0.832460     -0.832464   1.000000   1.000000
  105       -0.809581     -0.809583   1.000000   1.000000
  106       -0.804935     -0.804940   1.000000   1.000000
  107       -0.798596     -0.798598   1.000000   1.000000
  108       -0.793213     -0.793217   1.000000   1.000000
  109       -0.768836     -0.768839   1.000000   1.000000
  110       -0.712240     -0.712244   1.000000   1.000000
  111       -0.659032     -0.659036   1.000000   1.000000
  112       -0.607709     -0.607713   1.000000   1.000000
  113       -0.444841     -0.444847   1.000000   1.000000
  114       -0.419797     -0.419803   1.000000   1.000000
  115       -0.415285     -0.415291   1.000000   1.000000
  116       -0.396953     -0.396958   1.000000   1.000000
  117       -0.394251     -0.394256   1.000000   1.000000
  118       -0.312339     -0.312345   1.000000   1.000000
  119       -0.300854     -0.300861   1.000000   1.000000
  120       -0.295614     -0.295621   1.000000   1.000000
  121        1.093260      1.093264   1.000000   1.000000
  122        1.095154      1.095157   1.000000   1.000000
  123        1.315790      1.315793   1.000000   1.000000
  124        1.315941      1.315945   1.000000   1.000000
  125        1.323501      1.323505   1.000000   1.000000
  126        1.341761      1.341763   1.000000   1.000000
  127        1.343543      1.343545   1.000000   1.000000
  128        1.399070      1.399072   1.000000   1.000000
  129        1.426079      1.426081   1.000000   1.000000
  130        1.441942      1.441943   1.000000   1.000000
  131        1.463949      1.463957   1.000000   1.000000
  132        1.467189      1.467197   1.000000   1.000000
  133        1.478627      1.478633   1.000000   1.000000
  134        1.653952      1.653955   1.000000   1.000000
  135        1.709609      1.709612   1.000000   1.000000
  136        1.726513      1.726516   1.000000   1.000000
  137        1.727941      1.727945   1.000000   1.000000
  138        1.753324      1.753325   1.000000   1.000000
  139        1.760776      1.760777   1.000000   1.000000
  140        1.887999      1.888001   1.000000   1.000000
  141        1.902835      1.902839   1.000000   1.000000
  142        1.917935      1.917936   1.000000   1.000000
  143        1.950183      1.950185   1.000000   1.000000
  144        1.960752      1.960754   1.000000   1.000000
  145        1.979177      1.979179   1.000000   1.000000
  146        1.987382      1.987384   1.000000   1.000000
  147        1.995071      1.995073   1.000000   1.000000
  148        2.004521      2.004523   1.000000   1.000000
  149        2.030794      2.030795   1.000000   1.000000
  150        2.080842      2.080842   1.000000   1.000000
  151        2.085969      2.085968   1.000000   1.000000
  152        2.286900      2.286903   1.000000   1.000000
  153        2.320304      2.320307   1.000000   1.000000
  154        2.354679      2.354682   1.000000   1.000000
  155        2.368758      2.368759   1.000000   1.000000
  156        2.400341      2.400343   1.000000   1.000000
  157        2.429490      2.429491   1.000000   1.000000
  158        2.533381      2.533382   1.000000   1.000000
  159        2.538788      2.538790   1.000000   1.000000
  160        2.553717      2.553718   1.000000   1.000000
  161        2.635216      2.635218   1.000000   1.000000
  162        2.640040      2.640042   1.000000   1.000000
  163        2.653560      2.653563   1.000000   1.000000
  164        2.685857      2.685860   1.000000   1.000000
  165        2.895876      2.895879   1.000000   1.000000
  166        2.928809      2.928810   1.000000   1.000000
  167        2.929112      2.929114   1.000000   1.000000
  168        2.937956      2.937957   1.000000   1.000000
  169        2.955084      2.955086   1.000000   1.000000
  170        3.018153      3.018155   1.000000   1.000000
  171        3.171681      3.171683   1.000000   1.000000
  172        3.177443      3.177442   1.000000   1.000000
  173        3.192475      3.192474   1.000000   1.000000
  174        3.312997      3.312997   1.000000   1.000000
  175        3.332528      3.332529   1.000000   1.000000
  176        3.337407      3.337408   1.000000   1.000000
  177        3.372937      3.372937   1.000000   1.000000
  178        3.407836      3.407836   1.000000   1.000000
  179        3.457259      3.457260   1.000000   1.000000
  180        3.458162      3.458164   1.000000   1.000000
  181        3.494516      3.494516   1.000000   1.000000
  182        3.600903      3.600905   1.000000   1.000000
  183        3.621861      3.621861   1.000000   1.000000
  184        3.638854      3.638855   1.000000   1.000000
  185        7.094264      7.094308   0.000000   0.000000
  186        7.109958      7.110009   0.000000   0.000000
  187        7.110162      7.110211   0.000000   0.000000
  188        7.786989      7.787025   0.000000   0.000000
  189        7.991950      7.991995   0.000000   0.000000
  190        8.376706      8.376735   0.000000   0.000000
  191        8.393066      8.393095   0.000000   0.000000
  192        8.428743      8.428769   0.000000   0.000000
  193        8.482040      8.482076   0.000000   0.000000
  194        8.506381      8.506428   0.000000   0.000000
  195        8.921030      8.921156   0.000000   0.000000
  196        8.975091      8.975115   0.000000   0.000000
  197        9.076446      9.076473   0.000000   0.000000
  198        9.153880      9.153910   0.000000   0.000000
  199        9.307766      9.307805   0.000000   0.000000
  200        9.316189      9.316233   0.000000   0.000000
  201        9.342590      9.342643   0.000000   0.000000
  202        9.389482      9.389523   0.000000   0.000000
  203        9.397162      9.397204   0.000000   0.000000
  204        9.400695      9.400742   0.000000   0.000000
  205        9.789826      9.789844   0.000000   0.000000
  206        9.806818      9.806804   0.000000   0.000000
  207        9.862843      9.862880   0.000000   0.000000
  208        9.884562      9.884592   0.000000   0.000000
  209        9.908894      9.908967   0.000000   0.000000
  210        9.946764      9.946834   0.000000   0.000000
  211        9.979449      9.979480   0.000000   0.000000
  212       10.139556     10.139580   0.000000   0.000000
  213       10.200282     10.200300   0.000000   0.000000
  214       10.206649     10.206674   0.000000   0.000000
  215       10.220357     10.220414   0.000000   0.000000
  216       10.238297     10.238315   0.000000   0.000000
  217       11.062692     11.062709   0.000000   0.000000
  218       11.154627     11.154609   0.000000   0.000000
  219       11.245390     11.245377   0.000000   0.000000
  220       11.264930     11.264957   0.000000   0.000000
  221       11.277458     11.277469   0.000000   0.000000
  222       11.308109     11.308165   0.000000   0.000000
  223       11.317192     11.317022   0.000000   0.000000
  224       11.342810     11.342708   0.000000   0.000000
  225       11.380633     11.380115   0.000000   0.000000
  226       11.546362     11.546454   0.000000   0.000000
  227       11.566703     11.566523   0.000000   0.000000
  228       11.613073     11.613163   0.000000   0.000000
  229       11.652390     11.652365   0.000000   0.000000
  230       11.666946     11.666544   0.000000   0.000000
  231       11.674848     11.674494   0.000000   0.000000
  232       11.682076     11.682067   0.000000   0.000000
  233       11.746593     11.746259   0.000000   0.000000
  234       11.756831     11.756824   0.000000   0.000000
  235       11.873647     11.873325   0.000000   0.000000
  236       11.909465     11.909527   0.000000   0.000000
  237       11.960469     11.959468   0.000000   0.000000
  238       12.250779     12.249797   0.000000   0.000000
  239       12.271659     12.271183   0.000000   0.000000
  240       12.289561     12.289364   0.000000   0.000000
  241       12.397660     12.399009   0.000000   0.000000
  242       12.528677     12.531389   0.000000   0.000000
  243       12.570912     12.570348   0.000000   0.000000
  244       12.786081     12.780479   0.000000   0.000000
  245       12.840268     12.837513   0.000000   0.000000
  246       12.883326     12.899926   0.000000   0.000000
  247       12.931198     12.931831   0.000000   0.000000
  248       13.008279     13.003314   0.000000   0.000000
  249       13.016251     13.017063   0.000000   0.000000
  250       13.039289     13.023664   0.000000   0.000000
  251       13.092978     13.084831   0.000000   0.000000
  252       13.108182     13.096377   0.000000   0.000000
  253       13.132949     13.138101   0.000000   0.000000
  254       13.185855     13.167806   0.000000   0.000000
  255       13.202975     13.207155   0.000000   0.000000
  256       13.319092     13.347099   0.000000   0.000000
  257       13.358382     13.349001   0.000000   0.000000
  258       13.415142     13.399327   0.000000   0.000000
  259       13.449240     13.445497   0.000000   0.000000
  260       13.544710     13.555157   0.000000   0.000000
  261       13.707592     13.648204   0.000000   0.000000
  262       13.741053     13.706593   0.000000   0.000000
  263       13.896747     13.835630   0.000000   0.000000
  264       14.008564     13.956354   0.000000   0.000000
 
  0.3333333E+00 -0.6640729E-18  0.0000000E+00  0.1481481E+00
    1      -40.855572    -40.855572   1.000000   1.000000
    2      -40.854548    -40.854548   1.000000   1.000000
    3      -40.850137    -40.850137   1.000000   1.000000
    4      -40.849309    -40.849309   1.000000   1.000000
    5      -40.835860    -40.835861   1.000000   1.000000
    6      -40.835191    -40.835192   1.000000   1.000000
    7      -40.830136    -40.830138   1.000000   1.000000
    8      -40.829629    -40.829630   1.000000   1.000000
    9      -40.619417    -40.619418   1.000000   1.000000
   10      -40.617450    -40.617450   1.000000   1.000000
   11      -40.608125    -40.608124   1.000000   1.000000
   12      -40.605093    -40.605093   1.000000   1.000000
   13      -40.566461    -40.566462   1.000000   1.000000
   14      -40.565338    -40.565339   1.000000   1.000000
   15      -40.557497    -40.557497   1.000000   1.000000
   16      -40.556023    -40.556023   1.000000   1.000000
   17      -40.551240    -40.551240   1.000000   1.000000
   18      -40.548682    -40.548682   1.000000   1.000000
   19      -40.538737    -40.538736   1.000000   1.000000
   20      -40.535730    -40.535728   1.000000   1.000000
   21      -40.524897    -40.524896   1.000000   1.000000
   22      -40.523408    -40.523407   1.000000   1.000000
   23      -40.519606    -40.519604   1.000000   1.000000
   24      -40.519054    -40.519052   1.000000   1.000000
   25      -40.511002    -40.511001   1.000000   1.000000
   26      -40.506608    -40.506608   1.000000   1.000000
   27      -40.499225    -40.499225   1.000000   1.000000
   28      -40.498307    -40.498307   1.000000   1.000000
   29      -40.486572    -40.486571   1.000000   1.000000
   30      -40.484100    -40.484100   1.000000   1.000000
   31      -40.474636    -40.474636   1.000000   1.000000
   32      -40.471023    -40.471023   1.000000   1.000000
   33      -40.470046    -40.470046   1.000000   1.000000
   34      -40.469305    -40.469304   1.000000   1.000000
   35      -40.438431    -40.438431   1.000000   1.000000
   36      -40.435145    -40.435146   1.000000   1.000000
   37      -40.433889    -40.433889   1.000000   1.000000
   38      -40.432830    -40.432831   1.000000   1.000000
   39      -40.421837    -40.421836   1.000000   1.000000
   40      -40.419968    -40.419967   1.000000   1.000000
   41      -40.409055    -40.409054   1.000000   1.000000
   42      -40.404289    -40.404287   1.000000   1.000000
   43      -40.378597    -40.378597   1.000000   1.000000
   44      -40.376137    -40.376136   1.000000   1.000000
   45      -40.285239    -40.285243   1.000000   1.000000
   46      -40.284270    -40.284273   1.000000   1.000000
   47      -40.282905    -40.282909   1.000000   1.000000
   48      -40.280310    -40.280314   1.000000   1.000000
   49      -40.280129    -40.280133   1.000000   1.000000
   50      -40.279047    -40.279050   1.000000   1.000000
   51      -39.897512    -39.897512   1.000000   1.000000
   52      -39.896836    -39.896836   1.000000   1.000000
   53      -39.893623    -39.893623   1.000000   1.000000
   54      -39.888131    -39.888131   1.000000   1.000000
   55      -39.887959    -39.887960   1.000000   1.000000
   56      -39.887468    -39.887467   1.000000   1.000000
   57      -12.822400    -12.822407   1.000000   1.000000
   58      -12.820011    -12.820019   1.000000   1.000000
   59      -12.690795    -12.690798   1.000000   1.000000
   60      -12.686878    -12.686883   1.000000   1.000000
   61      -12.686411    -12.686417   1.000000   1.000000
   62      -12.685105    -12.685112   1.000000   1.000000
   63      -12.673857    -12.673864   1.000000   1.000000
   64      -12.673551    -12.673557   1.000000   1.000000
   65       -9.613647     -9.613648   1.000000   1.000000
   66       -9.596464     -9.596465   1.000000   1.000000
   67       -9.588333     -9.588334   1.000000   1.000000
   68       -9.577999     -9.577999   1.000000   1.000000
   69       -9.546344     -9.546344   1.000000   1.000000
   70       -9.531818     -9.531818   1.000000   1.000000
   71       -9.523547     -9.523547   1.000000   1.000000
   72       -9.521443     -9.521444   1.000000   1.000000
   73       -9.506711     -9.506711   1.000000   1.000000
   74       -9.502759     -9.502759   1.000000   1.000000
   75       -9.481102     -9.481102   1.000000   1.000000
   76       -9.460998     -9.460998   1.000000   1.000000
   77       -9.456244     -9.456244   1.000000   1.000000
   78       -9.446530     -9.446530   1.000000   1.000000
   79       -9.444802     -9.444801   1.000000   1.000000
   80       -9.428467     -9.428466   1.000000   1.000000
   81       -9.400881     -9.400880   1.000000   1.000000
   82       -9.375168     -9.375167   1.000000   1.000000
   83       -9.369615     -9.369614   1.000000   1.000000
   84       -9.346585     -9.346585   1.000000   1.000000
   85       -9.327285     -9.327285   1.000000   1.000000
   86       -9.321646     -9.321646   1.000000   1.000000
   87       -9.310998     -9.310998   1.000000   1.000000
   88       -9.300291     -9.300291   1.000000   1.000000
   89       -2.944184     -2.944193   1.000000   1.000000
   90       -2.809380     -2.809389   1.000000   1.000000
   91       -2.693656     -2.693663   1.000000   1.000000
   92       -2.692038     -2.692046   1.000000   1.000000
   93       -2.646562     -2.646572   1.000000   1.000000
   94       -2.601413     -2.601422   1.000000   1.000000
   95       -2.583398     -2.583407   1.000000   1.000000
   96       -2.577542     -2.577552   1.000000   1.000000
   97       -1.129358     -1.129359   1.000000   1.000000
   98       -1.125226     -1.125227   1.000000   1.000000
   99       -1.087108     -1.087110   1.000000   1.000000
  100       -1.071674     -1.071675   1.000000   1.000000
  101       -1.058600     -1.058602   1.000000   1.000000
  102       -1.045797     -1.045798   1.000000   1.000000
  103       -0.979076     -0.979077   1.000000   1.000000
  104       -0.871300     -0.871303   1.000000   1.000000
  105       -0.861438     -0.861441   1.000000   1.000000
  106       -0.852188     -0.852191   1.000000   1.000000
  107       -0.723143     -0.723147   1.000000   1.000000
  108       -0.714830     -0.714833   1.000000   1.000000
  109       -0.703040     -0.703043   1.000000   1.000000
  110       -0.683951     -0.683955   1.000000   1.000000
  111       -0.634550     -0.634555   1.000000   1.000000
  112       -0.609071     -0.609075   1.000000   1.000000
  113       -0.508640     -0.508645   1.000000   1.000000
  114       -0.481688     -0.481693   1.000000   1.000000
  115       -0.478451     -0.478456   1.000000   1.000000
  116       -0.439553     -0.439558   1.000000   1.000000
  117       -0.379396     -0.379402   1.000000   1.000000
  118       -0.369185     -0.369190   1.000000   1.000000
  119       -0.317755     -0.317761   1.000000   1.000000
  120       -0.294608     -0.294614   1.000000   1.000000
  121        1.122690      1.122695   1.000000   1.000000
  122        1.161211      1.161215   1.000000   1.000000
  123        1.260803      1.260805   1.000000   1.000000
  124        1.272814      1.272817   1.000000   1.000000
  125        1.321736      1.321741   1.000000   1.000000
  126        1.325754      1.325759   1.000000   1.000000
  127        1.355590      1.355594   1.000000   1.000000
  128        1.358719      1.358722   1.000000   1.000000
  129        1.380167      1.380173   1.000000   1.000000
  130        1.385412      1.385418   1.000000   1.000000
  131        1.411490      1.411492   1.000000   1.000000
  132        1.448886      1.448888   1.000000   1.000000
  133        1.544745      1.544746   1.000000   1.000000
  134        1.551333      1.551336   1.000000   1.000000
  135        1.593893      1.593895   1.000000   1.000000
  136        1.690313      1.690314   1.000000   1.000000
  137        1.745704      1.745707   1.000000   1.000000
  138        1.750780      1.750783   1.000000   1.000000
  139        1.796609      1.796610   1.000000   1.000000
  140        1.895146      1.895148   1.000000   1.000000
  141        1.912081      1.912082   1.000000   1.000000
  142        1.914941      1.914943   1.000000   1.000000
  143        1.929718      1.929721   1.000000   1.000000
  144        1.934896      1.934897   1.000000   1.000000
  145        1.946919      1.946921   1.000000   1.000000
  146        1.998256      1.998258   1.000000   1.000000
  147        2.020579      2.020581   1.000000   1.000000
  148        2.026351      2.026354   1.000000   1.000000
  149        2.099794      2.099797   1.000000   1.000000
  150        2.203638      2.203639   1.000000   1.000000
  151        2.238236      2.238238   1.000000   1.000000
  152        2.247523      2.247525   1.000000   1.000000
  153        2.297940      2.297941   1.000000   1.000000
  154        2.332435      2.332437   1.000000   1.000000
  155        2.344758      2.344760   1.000000   1.000000
  156        2.485008      2.485009   1.000000   1.000000
  157        2.496983      2.496984   1.000000   1.000000
  158        2.591965      2.591967   1.000000   1.000000
  159        2.596557      2.596559   1.000000   1.000000
  160        2.609385      2.609387   1.000000   1.000000
  161        2.691791      2.691793   1.000000   1.000000
  162        2.706705      2.706708   1.000000   1.000000
  163        2.739230      2.739232   1.000000   1.000000
  164        2.767966      2.767969   1.000000   1.000000
  165        2.867683      2.867685   1.000000   1.000000
  166        2.897174      2.897175   1.000000   1.000000
  167        2.912443      2.912444   1.000000   1.000000
  168        2.958696      2.958697   1.000000   1.000000
  169        3.048340      3.048342   1.000000   1.000000
  170        3.073175      3.073175   1.000000   1.000000
  171        3.118452      3.118453   1.000000   1.000000
  172        3.159199      3.159201   1.000000   1.000000
  173        3.200126      3.200126   1.000000   1.000000
  174        3.246251      3.246253   1.000000   1.000000
  175        3.268184      3.268184   1.000000   1.000000
  176        3.289429      3.289430   1.000000   1.000000
  177        3.319859      3.319860   1.000000   1.000000
  178        3.357984      3.357984   1.000000   1.000000
  179        3.387559      3.387560   1.000000   1.000000
  180        3.395642      3.395642   1.000000   1.000000
  181        3.515756      3.515756   1.000000   1.000000
  182        3.539649      3.539650   1.000000   1.000000
  183        3.545737      3.545739   1.000000   1.000000
  184        3.572468      3.572469   1.000000   1.000000
  185        7.227147      7.227184   0.000000   0.000000
  186        7.483723      7.483749   0.000000   0.000000
  187        7.498190      7.498216   0.000000   0.000000
  188        7.663907      7.663967   0.000000   0.000000
  189        8.085456      8.085492   0.000000   0.000000
  190        8.378414      8.378454   0.000000   0.000000
  191        8.460118      8.460153   0.000000   0.000000
  192        8.488892      8.488926   0.000000   0.000000
  193        8.557159      8.557186   0.000000   0.000000
  194        8.560252      8.560280   0.000000   0.000000
  195        8.727320      8.727352   0.000000   0.000000
  196        8.837539      8.837572   0.000000   0.000000
  197        8.902487      8.902539   0.000000   0.000000
  198        9.057200      9.057230   0.000000   0.000000
  199        9.071742      9.071766   0.000000   0.000000
  200        9.090734      9.090773   0.000000   0.000000
  201        9.322647      9.322686   0.000000   0.000000
  202        9.342293      9.342324   0.000000   0.000000
  203        9.396731      9.396771   0.000000   0.000000
  204        9.460226      9.460255   0.000000   0.000000
  205        9.521340      9.521384   0.000000   0.000000
  206        9.564715      9.564754   0.000000   0.000000
  207        9.613615      9.613653   0.000000   0.000000
  208        9.663028      9.663057   0.000000   0.000000
  209        9.809295      9.809356   0.000000   0.000000
  210        9.941669      9.941628   0.000000   0.000000
  211        9.968232      9.968269   0.000000   0.000000
  212        9.993694      9.993725   0.000000   0.000000
  213       10.081933     10.081970   0.000000   0.000000
  214       10.204498     10.204524   0.000000   0.000000
  215       10.293808     10.293833   0.000000   0.000000
  216       10.353081     10.353121   0.000000   0.000000
  217       11.027556     11.027487   0.000000   0.000000
  218       11.095451     11.095455   0.000000   0.000000
  219       11.157923     11.157886   0.000000   0.000000
  220       11.193508     11.193432   0.000000   0.000000
  221       11.282584     11.282516   0.000000   0.000000
  222       11.295761     11.295731   0.000000   0.000000
  223       11.447979     11.448333   0.000000   0.000000
  224       11.463794     11.463817   0.000000   0.000000
  225       11.524468     11.524327   0.000000   0.000000
  226       11.574740     11.574142   0.000000   0.000000
  227       11.625738     11.625794   0.000000   0.000000
  228       11.683454     11.683450   0.000000   0.000000
  229       11.697934     11.697760   0.000000   0.000000
  230       11.756777     11.756870   0.000000   0.000000
  231       11.791845     11.791507   0.000000   0.000000
  232       11.827226     11.826433   0.000000   0.000000
  233       11.902516     11.901851   0.000000   0.000000
  234       11.919409     11.920802   0.000000   0.000000
  235       11.940524     11.940813   0.000000   0.000000
  236       11.986955     11.986546   0.000000   0.000000
  237       12.063078     12.062126   0.000000   0.000000
  238       12.214742     12.215477   0.000000   0.000000
  239       12.218675     12.218339   0.000000   0.000000
  240       12.275133     12.273158   0.000000   0.000000
  241       12.423956     12.422148   0.000000   0.000000
  242       12.470852     12.449110   0.000000   0.000000
  243       12.612136     12.606208   0.000000   0.000000
  244       12.681401     12.674787   0.000000   0.000000
  245       12.772144     12.757317   0.000000   0.000000
  246       12.841547     12.836158   0.000000   0.000000
  247       12.883051     12.877894   0.000000   0.000000