    8    8    1    2
  0.9045440E+01  0.4628220E-09  0.4871811E-09  0.4871811E-09  0.5000000E-15
  1.000000000000000E-004
  CAR 
 unknown system                          
     36    362     26
 
  0.0000000E+00  0.0000000E+00  0.0000000E+00  0.1388889E-02
    1      -38.049412    -38.049233   1.000000   1.000000
    2      -38.020016    -38.019840   1.000000   1.000000
    3      -13.925663    -13.925702   1.000000   1.000000
    4       -9.333858     -9.333901   1.000000   1.000000
    5       -9.227756     -9.227800   1.000000   1.000000
    6       -8.826650     -8.826695   1.000000   1.000000
    7       -6.858701     -6.858734   1.000000   1.000000
    8       -2.144340     -2.144366   1.000000   1.000000
    9       -2.032138     -2.032163   1.000000   1.000000
   10       -1.371963     -1.371991   1.000000   1.000000
   11        1.271766      1.271736   1.000000   1.000000
   12        2.470689      2.470680   1.000000   1.000000
   13        2.667972      2.667951   1.000000   1.000000
   14        3.720051      3.720034   1.000000   1.000000
   15        3.783097      3.783071   1.000000   1.000000
   16        4.182262      4.182232   1.000000   1.000000
   17        4.280309      4.280284   1.000000   1.000000
   18        4.464117      4.464078   1.000000   1.000000
   19        9.094707      9.094749   0.000000   0.000000
   20       11.760408     11.760433   0.000000   0.000000
   21       13.970950     13.970685   0.000000   0.000000
   22       14.247154     14.247146   0.000000   0.000000
   23       14.320778     14.320428   0.000000   0.000000
   24       14.430167     14.429405   0.000000   0.000000
   25       15.565216     15.485236   0.000000   0.000000
   26       16.251209     16.085820   0.000000   0.000000
 
  0.1111111E+00  0.5346628E-17  0.5766177E-16  0.2777778E-02
    1      -38.048577    -38.048399   1.000000   1.000000
    2      -38.020788    -38.020612   1.000000   1.000000
    3      -13.851778    -13.851808   1.000000   1.000000
    4       -9.658226     -9.658267   1.000000   1.000000
    5       -9.219041     -9.219084   1.000000   1.000000
    6       -8.869238     -8.869282   1.000000   1.000000
    7       -6.561101     -6.561135   1.000000   1.000000
    8       -2.145858     -2.145883   1.000000   1.000000
    9       -2.032810     -2.032835   1.000000   1.000000
   10       -1.281605     -1.281633   1.000000   1.000000
   11        1.198950      1.198922   1.000000   1.000000
   12        2.561108      2.561095   1.000000   1.000000
   13        2.659379      2.659359   1.000000   1.000000
   14        3.756419      3.756392   1.000000   1.000000
   15        3.798758      3.798731   1.000000   1.000000
   16        4.192382      4.192358   1.000000   1.000000
   17        4.218336      4.218302   1.000000   1.000000
   18        4.344556      4.344533   1.000000   1.000000
   19        9.396825      9.396863   0.000000   0.000000
   20       11.873509     11.873537   0.000000   0.000000
   21       13.518069     13.518065   0.000000   0.000000
   22       14.003013     14.003017   0.000000   0.000000
   23       14.214976     14.214971   0.000000   0.000000
   24       14.798346     14.798976   0.000000   0.000000
   25       15.021507     15.022086   0.000000   0.000000
   26       16.095526     16.111234   0.000000   0.000000
 
  0.2222222E+00  0.2346842E-16  0.7479280E-16  0.2777778E-02
    1      -38.046258    -38.046079   1.000000   1.000000
    2      -38.022967    -38.022792   1.000000   1.000000
    3      -13.636363    -13.636396   1.000000   1.000000
    4      -10.314141    -10.314181   1.000000   1.000000
    5       -9.271741     -9.271784   1.000000   1.000000
    6       -8.930606     -8.930650   1.000000   1.000000
    7       -5.966192     -5.966226   1.000000   1.000000
    8       -2.196208     -2.196234   1.000000   1.000000
    9       -1.935123     -1.935149   1.000000   1.000000
   10       -1.088901     -1.088930   1.000000   1.000000
   11        1.111694      1.111670   1.000000   1.000000
   12        2.613021      2.613000   1.000000   1.000000
   13        2.771388      2.771367   1.000000   1.000000
   14        3.224177      3.224156   1.000000   1.000000
   15        3.803013      3.802980   1.000000   1.000000
   16        3.997135      3.997101   1.000000   1.000000
   17        4.303044      4.303028   1.000000   1.000000
   18        4.701451      4.701425   1.000000   1.000000
   19       10.208954     10.208983   0.000000   0.000000
   20       12.076362     12.076391   0.000000   0.000000
   21       12.683912     12.683902   0.000000   0.000000
   22       13.585639     13.585643   0.000000   0.000000
   23       13.882755     13.882747   0.000000   0.000000
   24       15.036064     15.035977   0.000000   0.000000
   25       15.244101     15.245671   0.000000   0.000000
   26       16.179725     16.374430   0.000000   0.000000
 
  0.3333333E+00  0.1740110E-16  0.1577463E-15  0.2777778E-02
    1      -38.042999    -38.042820   1.000000   1.000000
    2      -38.026120    -38.025946   1.000000   1.000000
    3      -13.306467    -13.306500   1.000000   1.000000
    4      -11.019572    -11.019610   1.000000   1.000000
    5       -9.320698     -9.320740   1.000000   1.000000
    6       -9.002878     -9.002921   1.000000   1.000000
    7       -5.413099     -5.413133   1.000000   1.000000
    8       -2.255798     -2.255827   1.000000   1.000000
    9       -1.697989     -1.698017   1.000000   1.000000
   10       -0.966857     -0.966887   1.000000   1.000000
   11        1.197809      1.197787   1.000000   1.000000
   12        2.354392      2.354372   1.000000   1.000000
   13        2.531280      2.531259   1.000000   1.000000
   14        2.992339      2.992319   1.000000   1.000000
   15        3.702284      3.702261   1.000000   1.000000
   16        3.892187      3.892154   1.000000   1.000000
   17        4.569897      4.569875   1.000000   1.000000
   18        5.135004      5.134969   1.000000   1.000000
   19       11.278427     11.278442   0.000000   0.000000
   20       11.923346     11.923352   0.000000   0.000000
   21       12.292974     12.292999   0.000000   0.000000
   22       13.344410     13.344386   0.000000   0.000000
   23       13.521553     13.521557   0.000000   0.000000
   24       15.174255     15.174699   0.000000   0.000000
   25       15.590837     15.596140   0.000000   0.000000
   26       16.333173     16.339885   0.000000   0.000000
 
  0.4444444E+00  0.4693685E-16  0.1495856E-15  0.2777778E-02
    1      -38.039907    -38.039725   1.000000   1.000000
    2      -38.029164    -38.028992   1.000000   1.000000
    3      -12.967702    -12.967734   1.000000   1.000000
    4      -11.563719    -11.563754   1.000000   1.000000
    5       -9.341995     -9.342037   1.000000   1.000000
    6       -9.058884     -9.058926   1.000000   1.000000
    7       -5.090826     -5.090858   1.000000   1.000000
    8       -2.262099     -2.262132   1.000000   1.000000
    9       -1.449747     -1.449779   1.000000   1.000000
   10       -0.985135     -0.985164   1.000000   1.000000
   11        1.452550      1.452531   1.000000   1.000000
   12        1.801761      1.801744   1.000000   1.000000
   13        2.226305      2.226284   1.000000   1.000000
   14        3.281156      3.281130   1.000000   1.000000
   15        3.589547      3.589521   1.000000   1.000000
   16        3.755546      3.755529   1.000000   1.000000
   17        4.813332      4.813302   1.000000   1.000000
   18        5.370060      5.370019   1.000000   1.000000
   19       11.456810     11.456814   0.000000   0.000000
   20       12.059169     12.059184   0.000000   0.000000
   21       12.759886     12.759884   0.000000   0.000000
   22       13.106188     13.106180   0.000000   0.000000
   23       13.503640     13.503672   0.000000   0.000000
   24       15.107690     15.105923   0.000000   0.000000
   25       15.547274     15.543374   0.000000   0.000000
   26       16.017862     15.876304   0.000000   0.000000
 
  0.9613479E-17  0.1250000E+00  0.1162811E-16  0.2777778E-02
    1      -38.048688    -38.048510   1.000000   1.000000
    2      -38.020742    -38.020567   1.000000   1.000000
    3      -13.852363    -13.852393   1.000000   1.000000
    4       -9.562053     -9.562095   1.000000   1.000000
    5       -9.300464     -9.300508   1.000000   1.000000
    6       -8.939851     -8.939895   1.000000   1.000000
    7       -6.485822     -6.485856   1.000000   1.000000
    8       -2.122430     -2.122455   1.000000   1.000000
    9       -2.027062     -2.027087   1.000000   1.000000
   10       -1.297802     -1.297831   1.000000   1.000000
   11        1.219775      1.219748   1.000000   1.000000
   12        2.580496      2.580482   1.000000   1.000000
   13        2.658891      2.658871   1.000000   1.000000
   14        3.562959      3.562933   1.000000   1.000000
   15        3.805568      3.805542   1.000000   1.000000
   16        4.120016      4.119996   1.000000   1.000000
   17        4.299903      4.299875   1.000000   1.000000
   18        4.428934      4.428904   1.000000   1.000000
   19        9.421148      9.421186   0.000000   0.000000
   20       11.989407     11.989432   0.000000   0.000000
   21       13.358107     13.358129   0.000000   0.000000
   22       13.561635     13.561673   0.000000   0.000000
   23       14.408244     14.408451   0.000000   0.000000
   24       14.707772     14.709673   0.000000   0.000000
   25       15.554126     15.567118   0.000000   0.000000
   26       16.136148     16.362121   0.000000   0.000000
 
  0.1111111E+00  0.1250000E+00  0.4153431E-16  0.2777778E-02
    1      -38.047336    -38.047157   1.000000   1.000000
    2      -38.022021    -38.021846   1.000000   1.000000
    3      -13.730076    -13.730107   1.000000   1.000000
    4      -10.017984    -10.018024   1.000000   1.000000
    5       -9.276525     -9.276568   1.000000   1.000000
    6       -9.000140     -9.000183   1.000000   1.000000
    7       -6.074984     -6.075018   1.000000   1.000000
    8       -2.159716     -2.159741   1.000000   1.000000
    9       -1.887762     -1.887789   1.000000   1.000000
   10       -1.247304     -1.247333   1.000000   1.000000
   11        1.198757      1.198732   1.000000   1.000000
   12        2.574744      2.574725   1.000000   1.000000
   13        2.681690      2.681670   1.000000   1.000000
   14        3.395096      3.395072   1.000000   1.000000
   15        3.767862      3.767831   1.000000   1.000000
   16        4.092335      4.092303   1.000000   1.000000
   17        4.328355      4.328335   1.000000   1.000000
   18        4.434361      4.434339   1.000000   1.000000
   19        9.908938      9.908972   0.000000   0.000000
   20       11.995629     11.995654   0.000000   0.000000
   21       12.950704     12.950704   0.000000   0.000000
   22       13.488463     13.488473   0.000000   0.000000
   23       14.235824     14.235843   0.000000   0.000000
   24       14.791280     14.791291   0.000000   0.000000
   25       15.170765     15.172871   0.000000   0.000000
   26       16.022163     16.501312   0.000000   0.000000
 
  0.2222222E+00  0.1250000E+00  0.9537103E-16  0.2777778E-02
    1      -38.044695    -38.044516   1.000000   1.000000
    2      -38.024571    -38.024396   1.000000   1.000000
    3      -13.471707    -13.471739   1.000000   1.000000
    4      -10.670432    -10.670470   1.000000   1.000000
    5       -9.328732     -9.328775   1.000000   1.000000
    6       -9.039550     -9.039592   1.000000   1.000000
    7       -5.525907     -5.525942   1.000000   1.000000
    8       -2.272803     -2.272830   1.000000   1.000000
    9       -1.683389     -1.683417   1.000000   1.000000
   10       -1.078271     -1.078302   1.000000   1.000000
   11        1.218718      1.218696   1.000000   1.000000
   12        2.398128      2.398108   1.000000   1.000000
   13        2.552663      2.552643   1.000000   1.000000
   14        3.134448      3.134427   1.000000   1.000000
   15        3.663874      3.663845   1.000000   1.000000
   16        4.075581      4.075547   1.000000   1.000000
   17        4.485173      4.485152   1.000000   1.000000
   18        4.783565      4.783537   1.000000   1.000000
   19       10.790003     10.790024   0.000000   0.000000
   20       11.895351     11.895376   0.000000   0.000000
   21       12.417566     12.417568   0.000000   0.000000
   22       13.431557     13.431563   0.000000   0.000000
   23       13.823050     13.823037   0.000000   0.000000
   24       14.710833     14.710816   0.000000   0.000000
   25       15.330073     15.330313   0.000000   0.000000
   26       16.263883     16.251100   0.000000   0.000000
 
  0.3333333E+00  0.1250000E+00  0.1138633E-15  0.2777778E-02
    1      -38.041258    -38.041077   1.000000   1.000000
    2      -38.027833    -38.027660   1.000000   1.000000
    3      -13.115028    -13.115060   1.000000   1.000000
    4      -11.317310    -11.317345   1.000000   1.000000
    5       -9.366774     -9.366816   1.000000   1.000000
    6       -9.093917     -9.093960   1.000000   1.000000
    7       -5.075153     -5.075186   1.000000   1.000000
    8       -2.365598     -2.365630   1.000000   1.000000
    9       -1.454848     -1.454877   1.000000   1.000000
   10       -0.981426     -0.981456   1.000000   1.000000
   11        1.398402      1.398381   1.000000   1.000000
   12        1.798613      1.798600   1.000000   1.000000
   13        2.461459      2.461438   1.000000   1.000000
   14        3.105566      3.105540   1.000000   1.000000
   15        3.662504      3.662482   1.000000   1.000000
   16        4.023119      4.023085   1.000000   1.000000
   17        4.671538      4.671513   1.000000   1.000000
   18        5.154896      5.154859   1.000000   1.000000
   19       11.624222     11.624240   0.000000   0.000000
   20       11.796996     11.797004   0.000000   0.000000
   21       12.197308     12.197318   0.000000   0.000000
   22       13.175103     13.175074   0.000000   0.000000
   23       13.753735     13.753793   0.000000   0.000000
   24       14.774842     14.774820   0.000000   0.000000
   25       15.597956     15.601879   0.000000   0.000000
   26       16.291154     16.223527   0.000000   0.000000
 
  0.4444444E+00  0.1250000E+00  0.1587499E-15  0.2777778E-02
    1      -38.038816    -38.038633   1.000000   1.000000
    2      -38.030238    -38.030067   1.000000   1.000000
    3      -12.831079    -12.831112   1.000000   1.000000
    4      -11.720557    -11.720591   1.000000   1.000000
    5       -9.379859     -9.379900   1.000000   1.000000
    6       -9.119307     -9.119349   1.000000   1.000000
    7       -4.890068     -4.890100   1.000000   1.000000
    8       -2.442790     -2.442825   1.000000   1.000000
    9       -1.336987     -1.337018   1.000000   1.000000
   10       -0.928140     -0.928170   1.000000   1.000000
   11        1.322885      1.322877   1.000000   1.000000
   12        1.774963      1.774938   1.000000   1.000000
   13        2.272350      2.272330   1.000000   1.000000
   14        3.278448      3.278418   1.000000   1.000000
   15        3.659199      3.659178   1.000000   1.000000
   16        3.916965      3.916940   1.000000   1.000000
   17        4.793071      4.793041   1.000000   1.000000
   18        5.309997      5.309957   1.000000   1.000000
   19       11.345800     11.345803   0.000000   0.000000
   20       12.152293     12.152302   0.000000   0.000000
   21       12.613290     12.613285   0.000000   0.000000
   22       13.075157     13.075125   0.000000   0.000000
   23       13.887174     13.887181   0.000000   0.000000
   24       15.036785     15.037380   0.000000   0.000000
   25       15.442854     15.465289   0.000000   0.000000
   26       15.741885     15.997664   0.000000   0.000000
 
 -0.4444444E+00  0.1250000E+00 -0.1934686E-15  0.2777778E-02
    1      -38.040289    -38.040108   1.000000   1.000000
    2      -38.028772    -38.028599   1.000000   1.000000
    3      -13.001281    -13.001315   1.000000   1.000000
    4      -11.479098    -11.479134   1.000000   1.000000
    5       -9.375881     -9.375922   1.000000   1.000000
    6       -9.080916     -9.080959   1.000000   1.000000
    7       -5.044887     -5.044920   1.000000   1.000000
    8       -2.525800     -2.525831   1.000000   1.000000
    9       -1.444825     -1.444854   1.000000   1.000000
   10       -0.819970     -0.820001   1.000000   1.000000
   11        1.156927      1.156908   1.000000   1.000000
   12        1.899052      1.899038   1.000000   1.000000
   13        2.556510      2.556484   1.000000   1.000000
   14        3.392968      3.392939   1.000000   1.000000
   15        3.578913      3.578883   1.000000   1.000000
   16        3.871577      3.871559   1.000000   1.000000
   17        4.710249      4.710222   1.000000   1.000000
   18        5.259600      5.259561   1.000000   1.000000
   19       11.366853     11.366854   0.000000   0.000000
   20       11.977591     11.977600   0.000000   0.000000
   21       12.478679     12.478679   0.000000   0.000000
   22       13.328510     13.328490   0.000000   0.000000
   23       13.882958     13.883074   0.000000   0.000000
   24       15.047187     15.046254   0.000000   0.000000
   25       15.452424     15.449803   0.000000   0.000000
   26       15.671537     15.722547   0.000000   0.000000
 
 -0.3333333E+00  0.1250000E+00 -0.1195945E-15  0.2777778E-02
    1      -38.043650    -38.043470   1.000000   1.000000
    2      -38.025474    -38.025300   1.000000   1.000000
    3      -13.365429    -13.365461   1.000000   1.000000
    4      -10.868281    -10.868318   1.000000   1.000000
    5       -9.344122     -9.344164   1.000000   1.000000
    6       -9.002393     -9.002437   1.000000   1.000000
    7       -5.486180     -5.486214   1.000000   1.000000
    8       -2.551544     -2.551570   1.000000   1.000000
    9       -1.619441     -1.619469   1.000000   1.000000
   10       -0.827525     -0.827556   1.000000   1.000000
   11        0.947329      0.947310   1.000000   1.000000
   12        2.484618      2.484596   1.000000   1.000000
   13        2.829196      2.829170   1.000000   1.000000
   14        3.185330      3.185311   1.000000   1.000000
   15        3.697840      3.697804   1.000000   1.000000
   16        3.887929      3.887905   1.000000   1.000000
   17        4.491855      4.491836   1.000000   1.000000
   18        5.003623      5.003591   1.000000   1.000000
   19       10.918090     10.918111   0.000000   0.000000
   20       12.026019     12.026027   0.000000   0.000000
   21       12.450752     12.450750   0.000000   0.000000
   22       13.454882     13.454897   0.000000   0.000000
   23       13.827505     13.827520   0.000000   0.000000
   24       14.856968     14.857078   0.000000   0.000000
   25       15.476440     15.479275   0.000000   0.000000
   26       16.099444     16.077446   0.000000   0.000000
 
 -0.2222222E+00  0.1250000E+00 -0.5499388E-16  0.2777778E-02
    1      -38.046607    -38.046428   1.000000   1.000000
    2      -38.022600    -38.022425   1.000000   1.000000
    3      -13.660703    -13.660734   1.000000   1.000000
    4      -10.208477    -10.208516   1.000000   1.000000
    5       -9.293921     -9.293963   1.000000   1.000000
    6       -8.925595     -8.925639   1.000000   1.000000
    7       -6.044737     -6.044771   1.000000   1.000000
    8       -2.485443     -2.485466   1.000000   1.000000
    9       -1.777673     -1.777700   1.000000   1.000000
   10       -0.986312     -0.986342   1.000000   1.000000
   11        0.953820      0.953798   1.000000   1.000000
   12        2.771713      2.771689   1.000000   1.000000
   13        2.824114      2.824091   1.000000   1.000000
   14        3.396322      3.396303   1.000000   1.000000
   15        3.784929      3.784896   1.000000   1.000000
   16        3.971031      3.970997   1.000000   1.000000
   17        4.307376      4.307358   1.000000   1.000000
   18        4.636423      4.636401   1.000000   1.000000
   19       10.039583     10.039616   0.000000   0.000000
   20       12.195112     12.195132   0.000000   0.000000
   21       12.934079     12.934073   0.000000   0.000000
   22       13.689425     13.689441   0.000000   0.000000
   23       13.918666     13.918667   0.000000   0.000000
   24       14.460565     14.460604   0.000000   0.000000
   25       15.572206     15.571474   0.000000   0.000000
   26       16.008580     15.976168   0.000000   0.000000
 
 -0.1111111E+00  0.1250000E+00 -0.1553775E-16  0.2777778E-02
    1      -38.048430    -38.048252   1.000000   1.000000
    2      -38.020939    -38.020763   1.000000   1.000000
    3      -13.828499    -13.828529   1.000000   1.000000
    4       -9.678060     -9.678101   1.000000   1.000000
    5       -9.288440     -9.288483   1.000000   1.000000
    6       -8.885734     -8.885779   1.000000   1.000000
    7       -6.474691     -6.474725   1.000000   1.000000
    8       -2.336806     -2.336831   1.000000   1.000000
    9       -1.903993     -1.904019   1.000000   1.000000
   10       -1.186943     -1.186973   1.000000   1.000000
   11        1.112491      1.112465   1.000000   1.000000
   12        2.620281      2.620265   1.000000   1.000000
   13        2.748888      2.748866   1.000000   1.000000
   14        3.574989      3.574965   1.000000   1.000000
   15        3.813036      3.813006   1.000000   1.000000
   16        4.143108      4.143089   1.000000   1.000000
   17        4.288060      4.288026   1.000000   1.000000
   18        4.439564      4.439542   1.000000   1.000000
   19        9.470699      9.470741   0.000000   0.000000
   20       12.050271     12.050293   0.000000   0.000000
   21       13.431224     13.431246   0.000000   0.000000
   22       13.801314     13.801333   0.000000   0.000000
   23       14.205962     14.206286   0.000000   0.000000
   24       14.282744     14.282749   0.000000   0.000000
   25       15.784718     15.793793   0.000000   0.000000
   26       16.317907     16.211278   0.000000   0.000000
 
  0.1922696E-16  0.2500000E+00  0.2325622E-16  0.2777778E-02
    1      -38.046719    -38.046540   1.000000   1.000000
    2      -38.022648    -38.022473   1.000000   1.000000
    3      -13.649058    -13.649089   1.000000   1.000000
    4      -10.225476    -10.225515   1.000000   1.000000
    5       -9.337739     -9.337782   1.000000   1.000000
    6       -9.032002     -9.032045   1.000000   1.000000
    7       -5.813794     -5.813829   1.000000   1.000000
    8       -2.111780     -2.111806   1.000000   1.000000
    9       -1.910016     -1.910043   1.000000   1.000000
   10       -1.154243     -1.154273   1.000000   1.000000
   11        1.180186      1.180162   1.000000   1.000000
   12        2.563740      2.563708   1.000000   1.000000
   13        2.689986      2.689963   1.000000   1.000000
   14        3.046290      3.046282   1.000000   1.000000
   15        3.784888      3.784856   1.000000   1.000000
   16        4.087388      4.087361   1.000000   1.000000
   17        4.268837      4.268819   1.000000   1.000000
   18        4.747015      4.746986   1.000000   1.000000
   19       10.298985     10.299012   0.000000   0.000000
   20       12.068023     12.068031   0.000000   0.000000
   21       12.620327     12.620352   0.000000   0.000000
   22       13.131616     13.131625   0.000000   0.000000
   23       14.038858     14.038852   0.000000   0.000000
   24       15.105641     15.105652   0.000000   0.000000
   25       15.527126     15.527383   0.000000   0.000000
   26       16.352010     16.367972   0.000000   0.000000
 
  0.1111111E+00  0.2500000E+00  0.6457637E-16  0.2777778E-02
    1      -38.045115    -38.044936   1.000000   1.000000
    2      -38.024178    -38.024003   1.000000   1.000000
    3      -13.492377    -13.492409   1.000000   1.000000
    4      -10.610189    -10.610227   1.000000   1.000000
    5       -9.356451     -9.356493   1.000000   1.000000
    6       -9.078990     -9.079032   1.000000   1.000000
    7       -5.461682     -5.461717   1.000000   1.000000
    8       -2.231437     -2.231464   1.000000   1.000000
    9       -1.642034     -1.642063   1.000000   1.000000
   10       -1.132239     -1.132269   1.000000   1.000000
   11        1.250128      1.250106   1.000000   1.000000
   12        2.276891      2.276866   1.000000   1.000000
   13        2.568143      2.568125   1.000000   1.000000
   14        3.120818      3.120801   1.000000   1.000000
   15        3.657535      3.657506   1.000000   1.000000
   16        4.081585      4.081552   1.000000   1.000000
   17        4.464749      4.464730   1.000000   1.000000
   18        4.792303      4.792273   1.000000   1.000000
   19       10.846658     10.846683   0.000000   0.000000
   20       11.797841     11.797853   0.000000   0.000000
   21       12.427095     12.427109   0.000000   0.000000
   22       13.183182     13.183176   0.000000   0.000000
   23       14.024438     14.024431   0.000000   0.000000
   24       14.886678     14.886540   0.000000   0.000000
   25       15.332227     15.328955   0.000000   0.000000
   26       16.248455     16.251440   0.000000   0.000000
 
  0.2222222E+00  0.2500000E+00  0.5641566E-16  0.2777778E-02
    1      -38.042348    -38.042168   1.000000   1.000000
    2      -38.026824    -38.026650   1.000000   1.000000
    3      -13.206176    -13.206210   1.000000   1.000000
    4      -11.133684    -11.133721   1.000000   1.000000
    5       -9.428187     -9.428228   1.000000   1.000000
    6       -9.125499     -9.125541   1.000000   1.000000
    7       -5.001391     -5.001426   1.000000   1.000000
    8       -2.446216     -2.446247   1.000000   1.000000
    9       -1.417733     -1.417761   1.000000   1.000000
   10       -0.984121     -0.984153   1.000000   1.000000
   11        1.350450      1.350430   1.000000   1.000000
   12        1.733999      1.733986   1.000000   1.000000
   13        2.478376      2.478355   1.000000   1.000000
   14        3.343640      3.343614   1.000000   1.000000
   15        3.600824      3.600796   1.000000   1.000000
   16        4.173134      4.173100   1.000000   1.000000
   17        4.644062      4.644034   1.000000   1.000000
   18        4.888928      4.888899   1.000000   1.000000
   19       11.492135     11.492153   0.000000   0.000000
   20       11.698133     11.698156   0.000000   0.000000
   21       12.131315     12.131322   0.000000   0.000000
   22       13.028229     13.028213   0.000000   0.000000
   23       14.219442     14.219434   0.000000   0.000000
   24       14.539580     14.539481   0.000000   0.000000
   25       15.322840     15.323684   0.000000   0.000000
   26       16.364045     16.348433   0.000000   0.000000
 
  0.3333333E+00  0.2500000E+00  0.6751640E-16  0.2777778E-02
    1      -38.038996    -38.038814   1.000000   1.000000
    2      -38.030029    -38.029858   1.000000   1.000000
    3      -12.828052    -12.828085   1.000000   1.000000
    4      -11.674522    -11.674558   1.000000   1.000000
    5       -9.460085     -9.460125   1.000000   1.000000
    6       -9.186859     -9.186900   1.000000   1.000000
    7       -4.619448     -4.619481   1.000000   1.000000
    8       -2.709342     -2.709377   1.000000   1.000000
    9       -1.244863     -1.244891   1.000000   1.000000
   10       -0.877714     -0.877745   1.000000   1.000000
   11        1.244167      1.244159   1.000000   1.000000
   12        1.696707      1.696685   1.000000   1.000000
   13        2.328438      2.328417   1.000000   1.000000
   14        3.327729      3.327698   1.000000   1.000000
   15        3.808995      3.808968   1.000000   1.000000
   16        4.224472      4.224438   1.000000   1.000000
   17        4.657436      4.657409   1.000000   1.000000
   18        5.076481      5.076446   1.000000   1.000000
   19       11.463826     11.463836   0.000000   0.000000
   20       11.939042     11.939055   0.000000   0.000000
   21       12.430388     12.430393   0.000000   0.000000
   22       12.720592     12.720583   0.000000   0.000000
   23       14.283024     14.283202   0.000000   0.000000
   24       14.805229     14.804965   0.000000   0.000000
   25       15.305978     15.302010   0.000000   0.000000
   26       16.313467     16.221531   0.000000   0.000000
 
  0.4444444E+00  0.2500000E+00  0.1907421E-15  0.2777778E-02
    1      -38.037272    -38.037086   1.000000   1.000000
    2      -38.031737    -38.031569   1.000000   1.000000
    3      -12.608008    -12.608043   1.000000   1.000000
    4      -11.933227    -11.933261   1.000000   1.000000
    5       -9.450659     -9.450699   1.000000   1.000000
    6       -9.214564     -9.214605   1.000000   1.000000
    7       -4.524016     -4.524049   1.000000   1.000000
    8       -2.949607     -2.949640   1.000000   1.000000
    9       -1.181130     -1.181158   1.000000   1.000000
   10       -0.743290     -0.743321   1.000000   1.000000
   11        1.130481      1.130472   1.000000   1.000000
   12        1.788543      1.788522   1.000000   1.000000
   13        2.387509      2.387486   1.000000   1.000000
   14        3.227311      3.227279   1.000000   1.000000
   15        3.985243      3.985215   1.000000   1.000000
   16        4.171891      4.171860   1.000000   1.000000
   17        4.691342      4.691316   1.000000   1.000000
   18        5.143916      5.143877   1.000000   1.000000
   19       11.343862     11.343871   0.000000   0.000000
   20       12.030863     12.030865   0.000000   0.000000
   21       12.456867     12.456879   0.000000   0.000000
   22       13.067894     13.067963   0.000000   0.000000
   23       14.496495     14.496412   0.000000   0.000000
   24       14.791250     14.791611   0.000000   0.000000
   25       15.226801     15.238265   0.000000   0.000000