       N       E                     dE             d eps       ncg     rms          rms(c)
DAV:   1     0.211203106499E+03    0.21120E+03   -0.17802E+04 37648   0.138E+03
DAV:   2    -0.413782501368E+02   -0.25258E+03   -0.24469E+03 46014   0.334E+02
DAV:   3    -0.590588986493E+02   -0.17681E+02   -0.17598E+02 62338   0.812E+01
DAV:   4    -0.601002487198E+02   -0.10414E+01   -0.10385E+01 56176   0.161E+01
DAV:   5    -0.601434862666E+02   -0.43238E-01   -0.43235E-01 56484   0.268E+00    0.290E+01
RMM:   6    -0.537247713769E+02    0.64187E+01   -0.20246E+01 41264   0.224E+01    0.131E+01
RMM:   7    -0.540069756762E+02   -0.28220E+00   -0.58184E+00 55232   0.132E+01    0.633E+00
RMM:   8    -0.541054986457E+02   -0.98523E-01   -0.59845E-01 60435   0.541E+00    0.339E+00
RMM:   9    -0.541111263865E+02   -0.56277E-02   -0.25115E-01 59063   0.340E+00    0.108E+00
RMM:  10    -0.541229582199E+02   -0.11832E-01   -0.12123E-01 66790   0.204E+00    0.368E-01
RMM:  11    -0.541271886362E+02   -0.42304E-02   -0.60768E-02 70013   0.116E+00    0.236E-01
RMM:  12    -0.541300658494E+02   -0.28772E-02   -0.24726E-02 72866   0.719E-01    0.196E-01
RMM:  13    -0.541311660850E+02   -0.11002E-02   -0.94339E-03 72383   0.436E-01    0.650E-02
RMM:  14    -0.541315748108E+02   -0.40873E-03   -0.34168E-03 70950   0.287E-01    0.423E-02
RMM:  15    -0.541317542114E+02   -0.17940E-03   -0.16088E-03 70664   0.188E-01    0.286E-02
RMM:  16    -0.541318215284E+02   -0.67317E-04   -0.63593E-04 69894   0.124E-01    0.175E-02
RMM:  17    -0.541318473601E+02   -0.25832E-04   -0.31387E-04 68210   0.883E-02    0.104E-02
RMM:  18    -0.541318659518E+02   -0.18592E-04   -0.13572E-04 60445   0.628E-02    0.530E-03
RMM:  19    -0.541318695566E+02   -0.36048E-05   -0.39681E-05 47117   0.478E-02
   1 F= -.54131870E+02 E0= -.54131870E+02  d E =0.000000E+00  mag=    -0.0000
