 running on   24 total cores
 distrk:  each k-point on   24 cores,    1 groups
 distr:  one band on    6 cores,    4 groups
 using from now: INCAR     
 vasp.6.1.2 22Jul20 (build Mar 31 2021 18:09:49) complex                        
  
 POSCAR found type information on POSCAR LiO 
 POSCAR found :  2 types and       3 ions
 scaLAPACK will be used
 -----------------------------------------------------------------------------
|                                                                             |
|               ----> ADVICE to this user running VASP <----                  |
|                                                                             |
|     You have a (more or less) 'small supercell' and for smaller cells       |
|     it is recommended to use the reciprocal-space projection scheme!        |
|     The real-space optimization is not efficient for small cells and it     |
|     is also less accurate ...                                               |
|     Therefore, set LREAL=.FALSE. in the INCAR file.                         |
|                                                                             |
 -----------------------------------------------------------------------------

 LDA part: xc-table for Pade appr. of Perdew
 generate k-points for:   12   12   12
 POSCAR, INCAR and KPOINTS ok, starting setup
 FFT: planning ...
 WAVECAR not read
 entering main loop
       N       E                     dE             d eps       ncg     rms          rms(c)
DAV:   1     0.447751408650E+02    0.44775E+02   -0.56457E+03 22964   0.103E+03
DAV:   2    -0.963862555784E+01   -0.54414E+02   -0.52415E+02 27464   0.226E+02
DAV:   3    -0.152724158688E+02   -0.56338E+01   -0.55911E+01 43216   0.534E+01
DAV:   4    -0.153241869645E+02   -0.51771E-01   -0.51763E-01 26360   0.647E+00
DAV:   5    -0.153245693716E+02   -0.38241E-03   -0.38240E-03 31808   0.448E-01    0.116E+01
RMM:   6    -0.142062922650E+02    0.11183E+01   -0.35284E+00 24970   0.125E+01    0.500E+00
RMM:   7    -0.143174017105E+02   -0.11111E+00   -0.12459E-01 28012   0.297E+00    0.207E+00
RMM:   8    -0.143207768137E+02   -0.33751E-02   -0.49683E-02 31789   0.221E+00    0.116E+00
RMM:   9    -0.143337217301E+02   -0.12945E-01   -0.30867E-02 32017   0.197E+00    0.249E-01
RMM:  10    -0.143347190475E+02   -0.99732E-03   -0.86432E-03 36881   0.708E-01    0.144E-01
RMM:  11    -0.143357869655E+02   -0.10679E-02   -0.60868E-03 35038   0.608E-01    0.191E-01
RMM:  12    -0.143354997807E+02    0.28718E-03   -0.15897E-03 35860   0.334E-01    0.829E-02
RMM:  13    -0.143354892411E+02    0.10540E-04   -0.80806E-04 36316   0.229E-01    0.200E-02
RMM:  14    -0.143355247815E+02   -0.35540E-04   -0.27998E-04 35336   0.119E-01    0.280E-02
RMM:  15    -0.143355394338E+02   -0.14652E-04   -0.10633E-04 32545   0.769E-02    0.292E-02
RMM:  16    -0.143355421651E+02   -0.27313E-05   -0.50439E-05 29586   0.555E-02
   1 F= -.14335542E+02 E0= -.14335542E+02  d E =0.000000E+00  mag=    -0.0000
