 running on    8 total cores
 distrk:  each k-point on    8 cores,    1 groups
 distr:  one band on    4 cores,    2 groups
 using from now: INCAR     
 vasp.6.1.2 22Jul20 (build Mar 20 2021 11:25:07) complex                        
  
 POSCAR found type information on POSCAR LiP 
 POSCAR found :  2 types and      40 ions
 scaLAPACK will be used
 LDA part: xc-table for Pade appr. of Perdew
 generate k-points for:    4    3    3
 POSCAR, INCAR and KPOINTS ok, starting setup
 FFT: planning ...
 WAVECAR not read
 entering main loop
       N       E                     dE             d eps       ncg     rms          rms(c)
DAV:   1     0.106077694819E+04    0.10608E+04   -0.68677E+04  6832   0.133E+03
DAV:   2    -0.296770425851E+02   -0.10905E+04   -0.10067E+04  7984   0.288E+02
DAV:   3    -0.166440148593E+03   -0.13676E+03   -0.13506E+03  9252   0.968E+01
DAV:   4    -0.182270160820E+03   -0.15830E+02   -0.15729E+02 12368   0.289E+01
DAV:   5    -0.185385992787E+03   -0.31158E+01   -0.31143E+01 11104   0.847E+00    0.339E+01
DAV:   6    -0.185738868849E+03   -0.35288E+00   -0.93342E+00  8944   0.709E+00    0.186E+01
DAV:   7    -0.187927971817E+03   -0.21891E+01   -0.31972E+00  8760   0.430E+00    0.112E+01
DAV:   8    -0.188803516928E+03   -0.87555E+00   -0.14099E+00  8016   0.308E+00    0.247E+00
DAV:   9    -0.188880684352E+03   -0.77167E-01   -0.20461E-01  9632   0.132E+00    0.113E+00
DAV:  10    -0.188894269428E+03   -0.13585E-01   -0.39637E-02  8904   0.515E-01    0.404E-01
DAV:  11    -0.188898267369E+03   -0.39979E-02   -0.57568E-03  8288   0.242E-01    0.202E-01
DAV:  12    -0.188900257450E+03   -0.19901E-02   -0.22216E-03  9248   0.132E-01    0.105E-01
DAV:  13    -0.188901233652E+03   -0.97620E-03   -0.72532E-04  8288   0.696E-02    0.422E-02
DAV:  14    -0.188901549885E+03   -0.31623E-03   -0.29253E-04  8096   0.426E-02    0.226E-02
DAV:  15    -0.188901633047E+03   -0.83162E-04   -0.91914E-05  7280   0.246E-02    0.116E-02
DAV:  16    -0.188901651819E+03   -0.18772E-04   -0.19672E-05  6616   0.128E-02    0.525E-03
DAV:  17    -0.188901656223E+03   -0.44038E-05   -0.49527E-06  5152   0.708E-03
   1 F= -.18890166E+03 E0= -.18890166E+03  d E =0.000000E+00  mag=    -0.0003
