       N       E                     dE             d eps       ncg     rms          rms(c)
DAV:   1     0.187352872664E+03    0.18735E+03   -0.16721E+04 21632   0.111E+03
DAV:   2    -0.407055760770E+02   -0.22806E+03   -0.21756E+03 25808   0.277E+02
DAV:   3    -0.585563417218E+02   -0.17851E+02   -0.17696E+02 34216   0.676E+01
DAV:   4    -0.595801459364E+02   -0.10238E+01   -0.10169E+01 31568   0.131E+01
DAV:   5    -0.596157144813E+02   -0.35569E-01   -0.35567E-01 30856   0.211E+00    0.250E+01
RMM:   6    -0.539679389957E+02    0.56478E+01   -0.14055E+01 22635   0.153E+01    0.101E+01
RMM:   7    -0.541934301391E+02   -0.22549E+00   -0.22747E+00 31316   0.775E+00    0.544E+00
RMM:   8    -0.542521847369E+02   -0.58755E-01   -0.29601E-01 32198   0.314E+00    0.304E+00
RMM:   9    -0.542694909973E+02   -0.17306E-01   -0.92724E-02 32995   0.192E+00    0.668E-01
RMM:  10    -0.542732859214E+02   -0.37949E-02   -0.47202E-02 37513   0.108E+00    0.271E-01
RMM:  11    -0.542753172146E+02   -0.20313E-02   -0.19423E-02 37799   0.615E-01    0.197E-01
RMM:  12    -0.542766007577E+02   -0.12835E-02   -0.80473E-03 40021   0.389E-01    0.107E-01
RMM:  13    -0.542769598497E+02   -0.35909E-03   -0.26494E-03 38060   0.235E-01    0.260E-02
RMM:  14    -0.542771346656E+02   -0.17482E-03   -0.13742E-03 39429   0.160E-01    0.185E-02
RMM:  15    -0.542772147170E+02   -0.80051E-04   -0.57339E-04 38410   0.103E-01    0.113E-02
RMM:  16    -0.542772491329E+02   -0.34416E-04   -0.26285E-04 36999   0.691E-02    0.441E-03
RMM:  17    -0.542772660980E+02   -0.16965E-04   -0.11647E-04 32251   0.488E-02    0.227E-03
RMM:  18    -0.542772729734E+02   -0.68754E-05   -0.52461E-05 27938   0.363E-02
   1 F= -.54277273E+02 E0= -.54277273E+02  d E =0.000000E+00  mag=    -0.0000
