       N       E                     dE             d eps       ncg     rms          rms(c)
DAV:   1     0.402963651421E+03    0.40296E+03   -0.26035E+04 10304   0.137E+03
DAV:   2    -0.353121083084E+01   -0.40649E+03   -0.37371E+03 11624   0.330E+02
DAV:   3    -0.556449093860E+02   -0.52114E+02   -0.51439E+02 14700   0.910E+01
DAV:   4    -0.633200810293E+02   -0.76752E+01   -0.76059E+01 18288   0.341E+01
DAV:   5    -0.640376431029E+02   -0.71756E+00   -0.71725E+00 14802   0.774E+00    0.214E+01
DAV:   6    -0.653557904662E+02   -0.13181E+01   -0.27837E+00 13724   0.666E+00    0.115E+01
DAV:   7    -0.666432297722E+02   -0.12874E+01   -0.74441E-01 12540   0.424E+00    0.616E+00
DAV:   8    -0.668733316006E+02   -0.23010E+00   -0.64802E-01 13388   0.305E+00    0.128E+00
DAV:   9    -0.669053019475E+02   -0.31970E-01   -0.79420E-02 15528   0.114E+00    0.512E-01
DAV:  10    -0.669093805076E+02   -0.40786E-02   -0.64069E-03 13370   0.379E-01    0.211E-01
DAV:  11    -0.669108643016E+02   -0.14838E-02   -0.20222E-03 12592   0.212E-01    0.926E-02
DAV:  12    -0.669111240755E+02   -0.25977E-03   -0.61819E-04 13080   0.109E-01    0.393E-02
DAV:  13    -0.669111657598E+02   -0.41684E-04   -0.91626E-05 12720   0.514E-02    0.203E-02
DAV:  14    -0.669111768160E+02   -0.11056E-04   -0.22072E-05  9616   0.262E-02    0.629E-03
DAV:  15    -0.669111784470E+02   -0.16309E-05   -0.41011E-06  7168   0.127E-02
   1 F= -.66911178E+02 E0= -.66911178E+02  d E =0.000000E+00  mag=    -0.0003
