   16   16    1    2
  0.1516655E+02  0.4907352E-09  0.5532102E-09  0.1013928E-08  0.5000000E-15
  1.000000000000000E-004
  CAR 
 unknown system                          
     64     60     48
 
  0.0000000E+00  0.0000000E+00  0.0000000E+00  0.5102041E-02
    1      -41.272298    -41.271038   1.000000   1.000000
    2      -41.271006    -41.269748   1.000000   1.000000
    3      -41.260534    -41.259276   1.000000   1.000000
    4      -41.260509    -41.259251   1.000000   1.000000
    5      -41.247565    -41.246290   1.000000   1.000000
    6      -41.246283    -41.245009   1.000000   1.000000
    7      -41.244488    -41.243213   1.000000   1.000000
    8      -41.244394    -41.243119   1.000000   1.000000
    9       -8.848506     -8.848924   1.000000   1.000000
   10       -8.543768     -8.544196   1.000000   1.000000
   11       -6.195413     -6.195894   1.000000   1.000000
   12       -5.804239     -5.804793   1.000000   1.000000
   13       -5.632836     -5.633371   1.000000   1.000000
   14       -5.507749     -5.508294   1.000000   1.000000
   15       -2.034175     -2.034708   1.000000   1.000000
   16       -1.790389     -1.791011   1.000000   1.000000
   17       -0.805539     -0.805961   1.000000   1.000000
   18       -0.140781     -0.141199   1.000000   1.000000
   19        0.002583      0.002350   1.000000   1.000000
   20        0.077434      0.077297   1.000000   1.000000
   21        0.786310      0.786263   1.000000   1.000000
   22        1.130464      1.130218   1.000000   1.000000
   23        1.313436      1.313410   1.000000   1.000000
   24        1.594776      1.594470   1.000000   1.000000
   25        2.116019      2.115827   1.000000   1.000000
   26        2.588946      2.588711   1.000000   1.000000
   27        2.778734      2.778440   1.000000   1.000000
   28        3.057655      3.057326   1.000000   1.000000
   29        3.492490      3.492378   1.000000   1.000000
   30        3.643394      3.643045   1.000000   1.000000
   31        3.773865      3.773446   1.000000   1.000000
   32        4.625148      4.624814   1.000000   1.000000
   33        5.748147      5.747898   0.000000   0.000001
   34        6.020792      6.020688   0.000000   0.000000
   35        6.446897      6.446863   0.000000   0.000000
   36        6.592735      6.592810   0.000000   0.000000
   37        6.983690      6.983736   0.000000   0.000000
   38        7.748553      7.748582   0.000000   0.000000
   39        7.778163      7.778710   0.000000   0.000000
   40        7.998677      7.999269   0.000000   0.000000
   41        8.675748      8.675832   0.000000   0.000000
   42        8.740134      8.741032   0.000000   0.000000
   43        9.216719      9.217601   0.000000   0.000000
   44        9.490481      9.492179   0.000000   0.000000
   45        9.620598      9.620718   0.000000   0.000000
   46        9.745864      9.748378   0.000000   0.000000
   47       10.100008     10.248380   0.000000   0.000000
   48       10.379425     10.324918   0.000000   0.000000
 
  0.1428571E+00  0.0000000E+00  0.0000000E+00  0.1020408E-01
    1      -41.272019    -41.270760   1.000000   1.000000
    2      -41.270872    -41.269614   1.000000   1.000000
    3      -41.260748    -41.259489   1.000000   1.000000
    4      -41.260728    -41.259470   1.000000   1.000000
    5      -41.247398    -41.246122   1.000000   1.000000
    6      -41.246183    -41.244908   1.000000   1.000000
    7      -41.244660    -41.243385   1.000000   1.000000
    8      -41.244480    -41.243205   1.000000   1.000000
    9       -8.770635     -8.771058   1.000000   1.000000
   10       -8.470548     -8.470981   1.000000   1.000000
   11       -6.519445     -6.519943   1.000000   1.000000
   12       -6.372375     -6.372899   1.000000   1.000000
   13       -5.229971     -5.230509   1.000000   1.000000
   14       -5.035391     -5.035926   1.000000   1.000000
   15       -2.391242     -2.391794   1.000000   1.000000
   16       -1.901747     -1.902331   1.000000   1.000000
   17       -0.715314     -0.715713   1.000000   1.000000
   18       -0.010172     -0.010283   1.000000   1.000000
   19        0.069603      0.069370   1.000000   1.000000
   20        0.141941      0.141500   1.000000   1.000000
   21        0.597015      0.596940   1.000000   1.000000
   22        1.231863      1.231628   1.000000   1.000000
   23        1.355616      1.355409   1.000000   1.000000
   24        1.485044      1.484883   1.000000   1.000000
   25        2.352358      2.352140   1.000000   1.000000
   26        2.677719      2.677442   1.000000   1.000000
   27        2.711342      2.711098   1.000000   1.000000
   28        3.015311      3.015006   1.000000   1.000000
   29        3.236771      3.236539   1.000000   1.000000
   30        3.445915      3.445823   1.000000   1.000000
   31        3.563818      3.563365   1.000000   1.000000
   32        4.670204      4.669861   1.000000   1.000000
   33        6.076683      6.076407  -0.000000  -0.000000
   34        6.427920      6.427818   0.000000   0.000000
   35        6.581077      6.580992   0.000000   0.000000
   36        6.601360      6.601421   0.000000   0.000000
   37        7.261429      7.261423   0.000000   0.000000
   38        7.602622      7.602748   0.000000   0.000000
   39        7.608170      7.608179   0.000000   0.000000
   40        8.411402      8.411930   0.000000   0.000000
   41        8.685042      8.685436   0.000000   0.000000
   42        8.947994      8.948328   0.000000   0.000000
   43        9.153141      9.153519   0.000000   0.000000
   44        9.441136      9.441534   0.000000   0.000000
   45        9.470591      9.470789   0.000000   0.000000
   46        9.784449      9.785165   0.000000   0.000000
   47       10.282332     10.279236   0.000000   0.000000
   48       10.753461     10.691691   0.000000   0.000000
 
  0.2857143E+00  0.0000000E+00  0.0000000E+00  0.1020408E-01
    1      -41.271343    -41.270084   1.000000   1.000000
    2      -41.270551    -41.269293   1.000000   1.000000
    3      -41.261260    -41.260001   1.000000   1.000000
    4      -41.261241    -41.259983   1.000000   1.000000
    5      -41.246958    -41.245682   1.000000   1.000000
    6      -41.245911    -41.244637   1.000000   1.000000
    7      -41.245049    -41.243773   1.000000   1.000000
    8      -41.244773    -41.243498   1.000000   1.000000
    9       -8.540327     -8.540761   1.000000   1.000000
   10       -8.255414     -8.255859   1.000000   1.000000
   11       -7.094246     -7.094738   1.000000   1.000000
   12       -6.950633     -6.951135   1.000000   1.000000
   13       -4.736158     -4.736678   1.000000   1.000000
   14       -4.381963     -4.382500   1.000000   1.000000
   15       -2.978500     -2.979041   1.000000   1.000000
   16       -2.417732     -2.418284   1.000000   1.000000
   17       -0.340109     -0.340472   1.000000   1.000000
   18       -0.088456     -0.088556   1.000000   1.000000
   19        0.266644      0.266387   1.000000   1.000000
   20        0.483279      0.483172   1.000000   1.000000
   21        0.596906      0.596483   1.000000   1.000000
   22        0.779248      0.779045   1.000000   1.000000
   23        1.402100      1.401842   1.000000   1.000000
   24        1.523288      1.522997   1.000000   1.000000
   25        2.071751      2.071649   1.000000   1.000000
   26        2.498891      2.498753   1.000000   1.000000
   27        2.777399      2.777200   1.000000   1.000000
   28        2.981351      2.981061   1.000000   1.000000
   29        3.285773      3.285433   1.000000   1.000000
   30        3.361098      3.360746   1.000000   1.000000
   31        3.528012      3.527807   1.000000   1.000000
   32        4.691796      4.691429   1.000000   1.000000
   33        6.413682      6.413639   0.000000   0.000000
   34        6.577106      6.577137   0.000000   0.000000
   35        6.700611      6.700362   0.000000   0.000000
   36        7.309783      7.309867   0.000000   0.000000
   37        7.395095      7.394854   0.000000   0.000000
   38        7.968307      7.968260   0.000000   0.000000
   39        7.973691      7.973634   0.000000   0.000000
   40        8.463971      8.464358   0.000000   0.000000
   41        8.807727      8.807829   0.000000   0.000000
   42        8.906961      8.907153   0.000000   0.000000
   43        9.514076      9.514570   0.000000   0.000000
   44        9.664577      9.665110   0.000000   0.000000
   45        9.748700      9.749082   0.000000   0.000000
   46       10.169333     10.169860   0.000000   0.000000
   47       10.446498     10.443144   0.000000   0.000000
   48       10.576026     10.580508   0.000000   0.000000
 
  0.4285714E+00  0.0000000E+00  0.0000000E+00  0.1020408E-01
    1      -41.270639    -41.269381   1.000000   1.000000
    2      -41.270348    -41.269090   1.000000   1.000000
    3      -41.261703    -41.260443   1.000000   1.000000
    4      -41.261700    -41.260440   1.000000   1.000000
    5      -41.246310    -41.245035   1.000000   1.000000
    6      -41.245615    -41.244339   1.000000   1.000000
    7      -41.245546    -41.244272   1.000000   1.000000
    8      -41.245169    -41.243895   1.000000   1.000000
    9       -8.168159     -8.168608   1.000000   1.000000
   10       -7.912539     -7.913000   1.000000   1.000000
   11       -7.674158     -7.674629   1.000000   1.000000
   12       -7.466753     -7.467235   1.000000   1.000000
   13       -4.189468     -4.189983   1.000000   1.000000
   14       -3.724782     -3.725318   1.000000   1.000000
   15       -3.597140     -3.597663   1.000000   1.000000
   16       -3.062205     -3.062745   1.000000   1.000000
   17       -0.016103     -0.016230   1.000000   1.000000
   18        0.043536      0.043278   1.000000   1.000000
   19        0.446711      0.446477   1.000000   1.000000
   20        0.486317      0.486127   1.000000   1.000000
   21        0.548073      0.547794   1.000000   1.000000
   22        0.939409      0.939100   1.000000   1.000000
   23        1.045372      1.044997   1.000000   1.000000
   24        1.398149      1.397812   1.000000   1.000000
   25        1.802970      1.802940   1.000000   1.000000
   26        1.930556      1.930501   1.000000   1.000000
   27        2.815693      2.815521   1.000000   1.000000
   28        2.970574      2.970285   1.000000   1.000000
   29        3.383054      3.382796   1.000000   1.000000
   30        3.606649      3.606358   1.000000   1.000000
   31        4.061593      4.061166   1.000000   1.000000
   32        4.527441      4.527027   1.000000   1.000000
   33        6.593295      6.593156   0.000000   0.000000
   34        6.624105      6.624008   0.000000   0.000000
   35        6.958631      6.958541   0.000000   0.000000
   36        7.160021      7.159931   0.000000   0.000000
   37        7.741172      7.741346   0.000000   0.000000
   38        8.186485      8.186524   0.000000   0.000000
   39        8.489081      8.489363   0.000000   0.000000
   40        8.834420      8.834321   0.000000   0.000000
   41        8.853574      8.853446   0.000000   0.000000
   42        9.393067      9.393162   0.000000   0.000000
   43        9.493168      9.493361   0.000000   0.000000
   44        9.734214      9.734424   0.000000   0.000000
   45       10.029342     10.029641   0.000000   0.000000
   46       10.396345     10.394271   0.000000   0.000000
   47       10.935210     10.828943   0.000000   0.000000
   48       11.087296     11.050697   0.000000   0.000000
 
  0.0000000E+00  0.1428571E+00  0.8570799E-16  0.1020408E-01
    1      -41.271928    -41.270669   1.000000   1.000000
    2      -41.270883    -41.269624   1.000000   1.000000
    3      -41.260844    -41.259586   1.000000   1.000000
    4      -41.260814    -41.259556   1.000000   1.000000
    5      -41.247448    -41.246173   1.000000   1.000000
    6      -41.246439    -41.245165   1.000000   1.000000
    7      -41.244395    -41.243119   1.000000   1.000000
    8      -41.244333    -41.243057   1.000000   1.000000
    9       -8.811020     -8.811440   1.000000   1.000000
   10       -8.556491     -8.556920   1.000000   1.000000
   11       -6.134114     -6.134598   1.000000   1.000000
   12       -5.835589     -5.836135   1.000000   1.000000
   13       -5.671521     -5.672032   1.000000   1.000000
   14       -5.603488     -5.604049   1.000000   1.000000
   15       -1.976573     -1.977119   1.000000   1.000000
   16       -1.707262     -1.707893   1.000000   1.000000
   17       -0.792598     -0.793019   1.000000   1.000000
   18       -0.382734     -0.383118   1.000000   1.000000
   19       -0.000168     -0.000381   1.000000   1.000000
   20        0.232709      0.232568   1.000000   1.000000
   21        0.682197      0.682085   1.000000   1.000000
   22        1.116844      1.116655   1.000000   1.000000
   23        1.348748      1.348634   1.000000   1.000000
   24        1.589220      1.588966   1.000000   1.000000
   25        1.984893      1.984682   1.000000   1.000000
   26        2.688144      2.687870   1.000000   1.000000
   27        2.739895      2.739685   1.000000   1.000000
   28        3.232122      3.231806   1.000000   1.000000
   29        3.621742      3.621603   1.000000   1.000000
   30        3.660069      3.659746   1.000000   1.000000
   31        3.811692      3.811240   1.000000   1.000000
   32        4.460328      4.460008   1.000000   1.000000
   33        6.025075      6.024808  -0.000000  -0.000000
   34        6.059186      6.059109   0.000000   0.000000
   35        6.528857      6.528739   0.000000   0.000000
   36        6.861143      6.861193   0.000000   0.000000
   37        6.876742      6.876765   0.000000   0.000000
   38        7.395858      7.395737   0.000000   0.000000
   39        7.866111      7.866648   0.000000   0.000000
   40        7.923264      7.923856   0.000000   0.000000
   41        9.009369      9.009768   0.000000   0.000000
   42        9.015130      9.015465   0.000000   0.000000
   43        9.053699      9.053939   0.000000   0.000000
   44        9.103967      9.104122   0.000000   0.000000
   45        9.572606      9.573443   0.000000   0.000000
   46        9.960294      9.960697   0.000000   0.000000
   47       10.009622     10.009487   0.000000   0.000000
   48       10.112684     10.113975   0.000000   0.000000
 
  0.1428571E+00  0.1428571E+00  0.8570799E-16  0.2040816E-01
    1      -41.271742    -41.270483   1.000000   1.000000
    2      -41.270717    -41.269459   1.000000   1.000000
    3      -41.261312    -41.260053   1.000000   1.000000
    4      -41.260617    -41.259359   1.000000   1.000000
    5      -41.247311    -41.246035   1.000000   1.000000
    6      -41.246355    -41.245080   1.000000   1.000000
    7      -41.244599    -41.243323   1.000000   1.000000
    8      -41.244385    -41.243110   1.000000   1.000000
    9       -8.733550     -8.733974   1.000000   1.000000
   10       -8.484008     -8.484442   1.000000   1.000000
   11       -6.480675     -6.481173   1.000000   1.000000
   12       -6.405223     -6.405746   1.000000   1.000000
   13       -5.279952     -5.280475   1.000000   1.000000
   14       -5.092387     -5.092926   1.000000   1.000000
   15       -2.323481     -2.324034   1.000000   1.000000
   16       -1.922591     -1.923176   1.000000   1.000000
   17       -0.655743     -0.656133   1.000000   1.000000
   18       -0.258392     -0.258596   1.000000   1.000000
   19        0.007472      0.007137   1.000000   1.000000
   20        0.403078      0.402847   1.000000   1.000000
   21        0.576147      0.576029   1.000000   1.000000
   22        1.155362      1.155112   1.000000   1.000000
   23        1.251977      1.251812   1.000000   1.000000
   24        1.551144      1.550956   1.000000   1.000000
   25        2.226940      2.226752   1.000000   1.000000
   26        2.605070      2.604828   1.000000   1.000000
   27        2.846979      2.846748   1.000000   1.000000
   28        3.225344      3.225007   1.000000   1.000000
   29        3.377308      3.377072   1.000000   1.000000
   30        3.543178      3.542787   1.000000   1.000000
   31        3.598796      3.598597   1.000000   1.000000
   32        4.672426      4.672060   1.000000   1.000000
   33        6.130939      6.130701  -0.000000  -0.000000
   34        6.447315      6.447269   0.000000   0.000000
   35        6.504240      6.504066   0.000000   0.000000
   36        6.763929      6.763905   0.000000   0.000000
   37        7.095668      7.095731   0.000000   0.000000
   38        7.353772      7.353804   0.000000   0.000000
   39        7.940689      7.941070   0.000000   0.000000
   40        8.466464      8.466761   0.000000   0.000000
   41        8.592835      8.593258   0.000000   0.000000
   42        9.111612      9.111605   0.000000   0.000000
   43        9.190474      9.190522   0.000000   0.000000
   44        9.442174      9.442228   0.000000   0.000000
   45        9.736094      9.736096   0.000000   0.000000
   46        9.893089      9.893011   0.000000   0.000000
   47       10.195306     10.161811   0.000000   0.000000
   48       10.495211     10.385610   0.000000   0.000000
 
  0.2857143E+00  0.1428571E+00  0.8570799E-16  0.2040816E-01
    1      -41.271264    -41.270005   1.000000   1.000000
    2      -41.270400    -41.269142   1.000000   1.000000
    3      -41.261755    -41.260496   1.000000   1.000000
    4      -41.260847    -41.259588   1.000000   1.000000
    5      -41.246885    -41.245609   1.000000   1.000000
    6      -41.246141    -41.244866   1.000000   1.000000
    7      -41.245018    -41.243743   1.000000   1.000000
    8      -41.244724    -41.243449   1.000000   1.000000
    9       -8.504702     -8.505136   1.000000   1.000000
   10       -8.271524     -8.271968   1.000000   1.000000
   11       -7.055197     -7.055691   1.000000   1.000000
   12       -6.980217     -6.980717   1.000000   1.000000
   13       -4.758691     -4.759201   1.000000   1.000000
   14       -4.460001     -4.460537   1.000000   1.000000
   15       -2.924865     -2.925404   1.000000   1.000000
   16       -2.503854     -2.504403   1.000000   1.000000
   17       -0.408600     -0.408762   1.000000   1.000000
   18       -0.129104     -0.129400   1.000000   1.000000
   19        0.225621      0.225349   1.000000   1.000000
   20        0.521194      0.520998   1.000000   1.000000
   21        0.602231      0.601994   1.000000   1.000000
   22        0.776879      0.776569   1.000000   1.000000
   23        1.374012      1.373810   1.000000   1.000000
   24        1.575577      1.575264   1.000000   1.000000
   25        2.201294      2.201164   1.000000   1.000000
   26        2.540001      2.539866   1.000000   1.000000
   27        2.930875      2.930667   1.000000   1.000000
   28        3.075326      3.074961   1.000000   1.000000
   29        3.278529      3.278247   1.000000   1.000000
   30        3.369967      3.369682   1.000000   1.000000
   31        3.602251      3.601990   1.000000   1.000000
   32        4.773487      4.773080   1.000000   1.000000
   33        6.466130      6.466006   0.000000   0.000000
   34        6.535178      6.535111   0.000000   0.000000
   35        6.898501      6.898399   0.000000   0.000000
   36        7.139894      7.139775   0.000000   0.000000
   37        7.373694      7.373675   0.000000   0.000000
   38        7.690201      7.690280   0.000000   0.000000
   39        8.241298      8.241358   0.000000   0.000000
   40        8.666334      8.666304   0.000000   0.000000
   41        8.726639      8.726682   0.000000   0.000000
   42        9.093933      9.094255   0.000000   0.000000
   43        9.502725      9.503175   0.000000   0.000000
   44        9.655267      9.655557   0.000000   0.000000
   45        9.893145      9.893854   0.000000   0.000000
   46        9.951730      9.952244   0.000000   0.000000
   47       10.307027     10.308540   0.000000   0.000000
   48       10.783688     10.723139   0.000000   0.000000
 
  0.4285714E+00  0.1428571E+00  0.8570799E-16  0.2040816E-01
    1      -41.270684    -41.269426   1.000000   1.000000
    2      -41.270321    -41.269063   1.000000   1.000000
    3      -41.261802    -41.260543   1.000000   1.000000
    4      -41.261371    -41.260112   1.000000   1.000000
    5      -41.246252    -41.244977   1.000000   1.000000
    6      -41.245877    -41.244602   1.000000   1.000000
    7      -41.245452    -41.244177   1.000000   1.000000
    8      -41.245269    -41.243994   1.000000   1.000000
    9       -8.136862     -8.137317   1.000000   1.000000
   10       -7.939715     -7.940178   1.000000   1.000000
   11       -7.629034     -7.629507   1.000000   1.000000
   12       -7.483339     -7.483820   1.000000   1.000000
   13       -4.188500     -4.189009   1.000000   1.000000
   14       -3.830139     -3.830674   1.000000   1.000000
   15       -3.556552     -3.557071   1.000000   1.000000
   16       -3.160568     -3.161103   1.000000   1.000000
   17       -0.263171     -0.263287   1.000000   1.000000
   18        0.034290      0.034129   1.000000   1.000000
   19        0.269267      0.269060   1.000000   1.000000
   20        0.429110      0.428865   1.000000   1.000000
   21        0.623288      0.622967   1.000000   1.000000
   22        1.120397      1.120048   1.000000   1.000000
   23        1.183174      1.182810   1.000000   1.000000
   24        1.424652      1.424332   1.000000   1.000000
   25        2.071828      2.071749   1.000000   1.000000
   26        2.281633      2.281558   1.000000   1.000000
   27        2.778488      2.778307   1.000000   1.000000
   28        2.964513      2.964233   1.000000   1.000000
   29        3.320814      3.320558   1.000000   1.000000
   30        3.435241      3.434979   1.000000   1.000000
   31        4.141061      4.140641   1.000000   1.000000
   32        4.614616      4.614179   1.000000   1.000000
   33        6.679902      6.679756   0.000000   0.000000
   34        6.768551      6.768477   0.000000   0.000000
   35        7.251202      7.251154   0.000000   0.000000
   36        7.432729      7.432422   0.000000   0.000000
   37        7.774166      7.774279   0.000000   0.000000
   38        8.208741      8.208754   0.000000   0.000000
   39        8.455006      8.454899   0.000000   0.000000
   40        8.695200      8.695306   0.000000   0.000000
   41        8.793029      8.793021   0.000000   0.000000
   42        8.969943      8.970031   0.000000   0.000000
   43        9.329729      9.329563   0.000000   0.000000
   44        9.628836      9.629467   0.000000   0.000000
   45        9.927104      9.927629   0.000000   0.000000
   46       10.115839     10.105418   0.000000   0.000000
   47       10.547341     10.542037   0.000000   0.000000
   48       10.772274     10.675778   0.000000   0.000000
 
  0.0000000E+00  0.2857143E+00  0.1227565E-15  0.1020408E-01
    1      -41.271059    -41.269801   1.000000   1.000000
    2      -41.270530    -41.269271   1.000000   1.000000
    3      -41.261602    -41.260343   1.000000   1.000000
    4      -41.261494    -41.260235   1.000000   1.000000
    5      -41.247064    -41.245789   1.000000   1.000000
    6      -41.246906    -41.245631   1.000000   1.000000
    7      -41.244287    -41.243012   1.000000   1.000000
    8      -41.244054    -41.242779   1.000000   1.000000
    9       -8.719116     -8.719535   1.000000   1.000000
   10       -8.583183     -8.583615   1.000000   1.000000
   11       -6.074955     -6.075463   1.000000   1.000000
   12       -5.936292     -5.936798   1.000000   1.000000
   13       -5.807825     -5.808340   1.000000   1.000000
   14       -5.628248     -5.628800   1.000000   1.000000
   15       -1.966561     -1.967122   1.000000   1.000000
   16       -1.526304     -1.526959   1.000000   1.000000
   17       -0.811452     -0.811855   1.000000   1.000000
   18       -0.630381     -0.630761   1.000000   1.000000
   19        0.055524      0.055343   1.000000   1.000000
   20        0.339399      0.339368   1.000000   1.000000
   21        0.659720      0.659482   1.000000   1.000000
   22        0.963757      0.963632   1.000000   1.000000
   23        1.509934      1.509673   1.000000   1.000000
   24        1.553701      1.553447   1.000000   1.000000
   25        1.745003      1.744817   1.000000   1.000000
   26        2.613352      2.613095   1.000000   1.000000
   27        3.133640      3.133467   1.000000   1.000000
   28        3.170252      3.169984   1.000000   1.000000
   29        3.657483      3.657205   1.000000   1.000000
   30        3.778922      3.778468   1.000000   1.000000
   31        3.986984      3.986750   1.000000   1.000000
   32        4.488650      4.488296   1.000000   1.000000
   33        6.110618      6.110609   0.000000   0.000000
   34        6.186572      6.186417   0.000000   0.000000
   35        6.642615      6.642536   0.000000   0.000000
   36        6.760097      6.759802   0.000000   0.000000
   37        7.206113      7.206139   0.000000   0.000000
   38        7.522795      7.522951   0.000000   0.000000
   39        8.002752      8.003340   0.000000   0.000000
   40        8.142138      8.142715   0.000000   0.000000
   41        8.850005      8.850266   0.000000   0.000000
   42        8.952622      8.952780   0.000000   0.000000
   43        9.166215      9.166919   0.000000   0.000000
   44        9.207559      9.207818   0.000000   0.000000
   45        9.561614      9.562258   0.000000   0.000000
   46        9.763248      9.762441   0.000000   0.000000
   47       10.233719     10.254864   0.000000   0.000000
   48       10.432776     10.423536   0.000000   0.000000
 
  0.1428571E+00  0.2857143E+00  0.1227565E-15  0.2040816E-01
    1      -41.271114    -41.269855   1.000000   1.000000
    2      -41.270353    -41.269095   1.000000   1.000000
    3      -41.261990    -41.260731   1.000000   1.000000
    4      -41.261045    -41.259787   1.000000   1.000000
    5      -41.246988    -41.245713   1.000000   1.000000
    6      -41.246821    -41.245546   1.000000   1.000000
    7      -41.244509    -41.243234   1.000000   1.000000
    8      -41.244216    -41.242942   1.000000   1.000000
    9       -8.642868     -8.643293   1.000000   1.000000
   10       -8.511672     -8.512107   1.000000   1.000000
   11       -6.540476     -6.540988   1.000000   1.000000
   12       -6.350878     -6.351391   1.000000   1.000000
   13       -5.461461     -5.461961   1.000000   1.000000
   14       -5.100352     -5.100889   1.000000   1.000000
   15       -2.219753     -2.220307   1.000000   1.000000
   16       -2.020431     -2.021006   1.000000   1.000000
   17       -0.630479     -0.630841   1.000000   1.000000
   18       -0.356231     -0.356421   1.000000   1.000000
   19       -0.080843     -0.081218   1.000000   1.000000
   20        0.484653      0.484507   1.000000   1.000000
   21        0.794006      0.793802   1.000000   1.000000
   22        0.890290      0.890061   1.000000   1.000000
   23        1.117646      1.117478   1.000000   1.000000
   24        1.658533      1.658298   1.000000   1.000000
   25        2.177673      2.177466   1.000000   1.000000
   26        2.581643      2.581436   1.000000   1.000000
   27        3.177693      3.177494   1.000000   1.000000
   28        3.263095      3.262704   1.000000   1.000000
   29        3.414257      3.413878   1.000000   1.000000
   30        3.679479      3.679252   1.000000   1.000000
   31        3.972683      3.972417   1.000000   1.000000
   32        4.574641      4.574296   1.000000   1.000000
   33        6.305170      6.304938   0.000000   0.000000
   34        6.456328      6.456269   0.000000   0.000000
   35        6.623846      6.623650   0.000000   0.000000
   36        6.883859      6.883771   0.000000   0.000000
   37        7.015377      7.015362   0.000000   0.000000
   38        7.717362      7.717542   0.000000   0.000000
   39        8.030286      8.030740   0.000000   0.000000
   40        8.327380      8.327507   0.000000   0.000000
   41        8.682916      8.683490   0.000000   0.000000
   42        9.086875      9.086644   0.000000   0.000000
   43        9.159797      9.160267   0.000000   0.000000
   44        9.439339      9.439587   0.000000   0.000000
   45        9.571087      9.570770   0.000000   0.000000
   46       10.163630     10.079717   0.000000   0.000000
   47       10.288747     10.227766   0.000000   0.000000
   48       10.629844     10.499509   0.000000   0.000000
 
  0.2857143E+00  0.2857143E+00  0.1227565E-15  0.2040816E-01
    1      -41.271008    -41.269749   1.000000   1.000000
    2      -41.270181    -41.268923   1.000000   1.000000
    3      -41.262017    -41.260757   1.000000   1.000000
    4      -41.260823    -41.259565   1.000000   1.000000
    5      -41.246688    -41.245413   1.000000   1.000000
    6      -41.246572    -41.245296   1.000000   1.000000
    7      -41.245023    -41.243748   1.000000   1.000000
    8      -41.244667    -41.243392   1.000000   1.000000
    9       -8.418520     -8.418955   1.000000   1.000000
   10       -8.301966     -8.302411   1.000000   1.000000
   11       -7.066754     -7.067257   1.000000   1.000000
   12       -6.958591     -6.959086   1.000000   1.000000
   13       -4.895802     -4.896293   1.000000   1.000000
   14       -4.506858     -4.507394   1.000000   1.000000
   15       -2.822745     -2.823275   1.000000   1.000000
   16       -2.704281     -2.704825   1.000000   1.000000
   17       -0.595557     -0.595648   1.000000   1.000000
   18       -0.174604     -0.174901   1.000000   1.000000
   19        0.249138      0.248922   1.000000   1.000000
   20        0.430525      0.430296   1.000000   1.000000
   21        0.540946      0.540604   1.000000   1.000000