    4    4    1    2
  0.1040028E+02  0.3559906E-09  0.3559906E-09  0.3790506E-09  0.5000000E-15
  1.000000000000000E-004
  CAR 
 unknown system                          
     14     70     16
 
  0.0000000E+00  0.0000000E+00  0.0000000E+00  0.1250000E-02
    1      -42.808738    -42.808016   1.000000   1.000000
    2      -42.397160    -42.396412   1.000000   1.000000
    3      -42.290026    -42.289311   1.000000   1.000000
    4       -9.904417     -9.904388   1.000000   1.000000
    5       -0.020325     -0.020264   1.000000   1.000000
    6        1.413512      1.413479   1.000000   1.000000
    7        1.413534      1.413502   1.000000   1.000000
    8        2.860990      2.860567   0.000000   0.000000
    9        9.187157      9.187130   0.000000   0.000000
   10        9.187229      9.187205   0.000000   0.000000
   11       10.292836     10.292675   0.000000   0.000000
   12       14.440841     14.440408   0.000000   0.000000
   13       14.440900     14.440447   0.000000   0.000000
   14       15.342937     15.340857   0.000000   0.000000
   15       16.206750     16.206082   0.000000   0.000000
   16       18.842386     18.841902   0.000000   0.000000
 
  0.1000000E+00 -0.1200072E-16  0.0000000E+00  0.7500000E-02
    1      -42.799466    -42.798743   1.000000   1.000000
    2      -42.405899    -42.405152   1.000000   1.000000
    3      -42.290046    -42.289331   1.000000   1.000000
    4       -9.894869     -9.894842   1.000000   1.000000
    5        0.049992      0.050053   1.000000   1.000000
    6        1.022492      1.022430   1.000000   1.000000
    7        1.285364      1.285333   1.000000   1.000000
    8        3.228711      3.228320   0.000000   0.000000
    9        9.237430      9.237369   0.000000   0.000000
   10        9.494078      9.494039   0.000000   0.000000
   11       10.159513     10.159355   0.000000   0.000000
   12       14.206802     14.206423   0.000000   0.000000
   13       14.334709     14.334279   0.000000   0.000000
   14       15.390772     15.391545   0.000000   0.000000
   15       16.117933     16.117303   0.000000   0.000000
   16       17.692909     17.692603   0.000000   0.000000
 
  0.2000000E+00 -0.2400145E-16  0.0000000E+00  0.7500000E-02
    1      -42.773009    -42.772284   1.000000   1.000000
    2      -42.430956    -42.430210   1.000000   1.000000
    3      -42.290141    -42.289426   1.000000   1.000000
    4       -9.870167     -9.870145   1.000000   1.000000
    5        0.243379      0.243445   1.000000   1.000000
    6        0.352738      0.352676   1.000000   1.000000
    7        0.981715      0.981689   1.000000   1.000000
    8        3.896284      3.895900   0.000000   0.000000
    9        9.111704      9.111527   0.000000   0.000000
   10        9.813325      9.813178   0.000000   0.000000
   11       10.252164     10.252074   0.000000   0.000000
   12       13.933845     13.933555   0.000000   0.000000
   13       14.210200     14.209804   0.000000   0.000000
   14       15.373401     15.373861   0.000000   0.000000
   15       15.852962     15.852740   0.000000   0.000000
   16       16.379715     16.379273   0.000000   0.000000
 
  0.3000000E+00 -0.4652459E-16  0.0000000E+00  0.7500000E-02
    1      -42.733611    -42.732884   1.000000   1.000000
    2      -42.468536    -42.467792   1.000000   1.000000
    3      -42.290272    -42.289557   1.000000   1.000000
    4       -9.839745     -9.839728   1.000000   1.000000
    5       -0.234011     -0.234056   1.000000   1.000000
    6        0.504265      0.504337   1.000000   1.000000
    7        0.654687      0.654665   1.000000   1.000000
    8        4.648833      4.648443   0.000000   0.000000
    9        8.461113      8.460806   0.000000   0.000000
   10        9.377609      9.377475   0.000000   0.000000
   11       11.017183     11.016982   0.000000   0.000000
   12       14.123890     14.123733   0.000000   0.000000
   13       14.389728     14.389519   0.000000   0.000000
   14       14.505484     14.505178   0.000000   0.000000
   15       15.366353     15.366234   0.000000   0.000000
   16       16.972489     16.971982   0.000000   0.000000
 
  0.4000000E+00 -0.5234986E-16  0.0000000E+00  0.7500000E-02
    1      -42.690486    -42.689756   1.000000   1.000000
    2      -42.510210    -42.509469   1.000000   1.000000
    3      -42.290411    -42.289696   1.000000   1.000000
    4       -9.815377     -9.815365   1.000000   1.000000
    5       -0.618742     -0.618772   1.000000   1.000000
    6        0.419102      0.419082   1.000000   1.000000
    7        0.737324      0.737402   1.000000   1.000000
    8        5.494517      5.494123   0.000000   0.000000
    9        7.478630      7.478253   0.000000   0.000000
   10        9.004493      9.004368   0.000000   0.000000
   11       11.382844     11.382532   0.000000   0.000000
   12       13.488044     13.487833   0.000000   0.000000
   13       14.409620     14.409460   0.000000   0.000000
   14       15.437832     15.437605   0.000000   0.000000
   15       15.549929     15.549794   0.000000   0.000000
   16       17.445341     17.448245   0.000000   0.000000
 
  0.5000000E+00 -0.1383881E-15  0.0000000E+00  0.3750000E-02
    1      -42.667290    -42.666559   1.000000   1.000000
    2      -42.532762    -42.532023   1.000000   1.000000
    3      -42.290419    -42.289704   1.000000   1.000000
    4       -9.806076     -9.806066   1.000000   1.000000
    5       -0.751530     -0.751553   1.000000   1.000000
    6        0.334646      0.334627   1.000000   1.000000
    7        0.832664      0.832744   1.000000   1.000000
    8        6.408426      6.408128   0.000000   0.000000
    9        6.488293      6.536049   0.000000   0.000000
   10        8.854239      8.854117   0.000000   0.000000
   11       11.456705     11.456359   0.000000   0.000000
   12       13.187209     13.186998   0.000000   0.000000
   13       14.487073     14.489152   0.000000   0.000000
   14       15.731637     15.732330   0.000000   0.000000
   15       16.134738     16.134551   0.000000   0.000000
   16       17.579098     17.255342   0.000000   0.000000
 
  0.1000000E+00  0.1000000E+00  0.0000000E+00  0.7500000E-02
    1      -42.781607    -42.780883   1.000000   1.000000
    2      -42.422850    -42.422104   1.000000   1.000000
    3      -42.290145    -42.289430   1.000000   1.000000
    4       -9.877866     -9.877843   1.000000   1.000000
    5        0.182004      0.182069   1.000000   1.000000
    6        0.543520      0.543455   1.000000   1.000000
    7        1.054622      1.054596   1.000000   1.000000
    8        3.713119      3.712735   0.000000   0.000000
    9        9.250208      9.250069   0.000000   0.000000
   10        9.926091      9.925941   0.000000   0.000000
   11        9.952811      9.952737   0.000000   0.000000
   12       13.998457     13.998173   0.000000   0.000000
   13       14.154830     14.154437   0.000000   0.000000
   14       15.477202     15.477493   0.000000   0.000000
   15       16.208753     16.208542   0.000000   0.000000
   16       16.241330     16.240740   0.000000   0.000000
 
  0.2000000E+00  0.1000000E+00  0.0000000E+00  0.1500000E-01
    1      -42.748386    -42.747659   1.000000   1.000000
    2      -42.454350    -42.453606   1.000000   1.000000
    3      -42.290254    -42.289539   1.000000   1.000000
    4       -9.850404     -9.850385   1.000000   1.000000
    5       -0.014526     -0.014577   1.000000   1.000000
    6        0.410386      0.410456   1.000000   1.000000
    7        0.713842      0.713820   1.000000   1.000000
    8        4.392864      4.392474   0.000000   0.000000
    9        8.907679      8.907406   0.000000   0.000000
   10        9.568732      9.568593   0.000000   0.000000
   11       10.508451     10.508295   0.000000   0.000000
   12       14.039987     14.039763   0.000000   0.000000
   13       14.275873     14.275592   0.000000   0.000000
   14       14.553724     14.553547   0.000000   0.000000
   15       15.587837     15.588402   0.000000   0.000000
   16       16.754363     16.753985   0.000000   0.000000
 
  0.3000000E+00  0.1000000E+00  0.0000000E+00  0.1500000E-01
    1      -42.705772    -42.705043   1.000000   1.000000
    2      -42.495369    -42.494627   1.000000   1.000000
    3      -42.290483    -42.289768   1.000000   1.000000
    4       -9.823376     -9.823363   1.000000   1.000000
    5       -0.453445     -0.453480   1.000000   1.000000
    6        0.414102      0.414083   1.000000   1.000000
    7        0.660751      0.660827   1.000000   1.000000
    8        5.181114      5.180713   0.000000   0.000000
    9        8.077509      8.077144   0.000000   0.000000
   10        9.220454      9.220325   0.000000   0.000000
   11       10.856687     10.856431   0.000000   0.000000
   12       13.312615     13.312442   0.000000   0.000000
   13       14.369425     14.369372   0.000000   0.000000
   14       14.949062     14.948823   0.000000   0.000000
   15       15.873161     15.873001   0.000000   0.000000
   16       17.354564     17.358010   0.000000   0.000000
 
  0.4000000E+00  0.1000000E+00  0.0000000E+00  0.1500000E-01
    1      -42.667616    -42.666884   1.000000   1.000000
    2      -42.532477    -42.531737   1.000000   1.000000
    3      -42.290586    -42.289871   1.000000   1.000000
    4       -9.806830     -9.806821   1.000000   1.000000
    5       -0.689135     -0.689159   1.000000   1.000000
    6        0.245121      0.245104   1.000000   1.000000
    7        0.828978      0.829058   1.000000   1.000000
    8        6.075549      6.075138   0.000000   0.000000
    9        7.065779      7.065382   0.000000   0.000000
   10        9.001427      9.001304   0.000000   0.000000
   11       10.968241     10.967934   0.000000   0.000000
   12       12.660908     12.660732   0.000000   0.000000
   13       14.529726     14.529777   0.000000   0.000000
   14       15.806071     15.805298   0.000000   0.000000
   15       16.374917     16.374337   0.000000   0.000000
   16       17.560316     17.564041   0.000000   0.000000
 
  0.2000000E+00  0.2000000E+00  0.0000000E+00  0.7500000E-02
    1      -42.711102    -42.710373   1.000000   1.000000
    2      -42.490125    -42.489383   1.000000   1.000000
    3      -42.290522    -42.289808   1.000000   1.000000
    4       -9.826624     -9.826610   1.000000   1.000000
    5       -0.345504     -0.345542   1.000000   1.000000
    6        0.355634      0.355618   1.000000   1.000000
    7        0.631056      0.631131   1.000000   1.000000
    8        5.092399      5.091993   0.000000   0.000000
    9        8.504469      8.504088   0.000000   0.000000
   10        9.364471      9.364338   0.000000   0.000000
   11       10.327669     10.327461   0.000000   0.000000
   12       13.045001     13.044851   0.000000   0.000000
   13       14.395347     14.395232   0.000000   0.000000
   14       14.741851     14.741634   0.000000   0.000000
   15       16.198157     16.198338   0.000000   0.000000
   16       17.389445     17.388772   0.000000   0.000000
 
  0.3000000E+00  0.2000000E+00  0.0000000E+00  0.1500000E-01
    1      -42.668035    -42.667304   1.000000   1.000000
    2      -42.531962    -42.531222   1.000000   1.000000
    3      -42.290797    -42.290082   1.000000   1.000000
    4       -9.807968     -9.807960   1.000000   1.000000
    5       -0.554415     -0.554440   1.000000   1.000000
    6        0.067980      0.067965   1.000000   1.000000
    7        0.823050      0.823130   1.000000   1.000000
    8        5.915810      5.915379   0.000000   0.000000
    9        7.763899      7.763470   0.000000   0.000000
   10        9.303161      9.303034   0.000000   0.000000
   11       10.121952     10.121722   0.000000   0.000000
   12       11.902234     11.902091   0.000000   0.000000
   13       14.619704     14.619663   0.000000   0.000000
   14       15.555084     15.554920   0.000000   0.000000
   15       17.009723     17.010033   0.000000   0.000000
   16       17.844772     17.846475   0.000000   0.000000
 
  0.4000000E+00  0.2000000E+00  0.0000000E+00  0.7500000E-02
    1      -42.641427    -42.640693   1.000000   1.000000
    2      -42.557965    -42.557226   1.000000   1.000000
    3      -42.290862    -42.290148   1.000000   1.000000
    4       -9.800915     -9.800909   1.000000   1.000000
    5       -0.622719     -0.622738   1.000000   1.000000
    6       -0.041361     -0.041376   1.000000   1.000000
    7        0.900018      0.900100   1.000000   1.000000
    8        6.690729      6.690233   0.000000   0.000000
    9        6.984003      6.983622   0.000000   0.000000
   10        9.322441      9.322317   0.000000   0.000000
   11       10.057196     10.056955   0.000000   0.000000
   12       11.454461     11.454318   0.000000   0.000000
   13       14.671811     14.671784   0.000000   0.000000
   14       16.171282     16.171086   0.000000   0.000000
   15       17.428498     17.435773   0.000000   0.000000
   16       17.597570     17.596803   0.000000   0.000000
 
  0.3000000E+00  0.3000000E+00  0.0000000E+00  0.7500000E-02
    1      -42.625548    -42.624814   1.000000   1.000000
    2      -42.573681    -42.572944   1.000000   1.000000
    3      -42.291057    -42.290343   1.000000   1.000000
    4       -9.799013     -9.799008   1.000000   1.000000
    5       -0.505266     -0.505283   1.000000   1.000000
    6       -0.245933     -0.245948   1.000000   1.000000
    7        0.926274      0.926357   1.000000   1.000000
    8        6.699974      6.699500   0.000000   0.000000
    9        7.378412      7.377932   0.000000   0.000000
   10        9.504243      9.504080   0.000000   0.000000
   11        9.714630      9.714504   0.000000   0.000000
   12       10.724146     10.724014   0.000000   0.000000
   13       14.739667     14.739608   0.000000   0.000000
   14       16.347773     16.340030   0.000000   0.000000
   15       17.264902     17.272694   0.000000   0.000000
   16       19.072996     18.820352   0.000000   0.000000
 
  0.0000000E+00  0.0000000E+00  0.1250000E+00  0.2500000E-02
    1      -42.808134    -42.807411   1.000000   1.000000
    2      -42.397120    -42.396372   1.000000   1.000000
    3      -42.290406    -42.289691   1.000000   1.000000
    4       -9.914635     -9.914606   1.000000   1.000000
    5       -0.277807     -0.277801   1.000000   1.000000
    6        1.444139      1.444107   1.000000   1.000000
    7        1.444161      1.444130   1.000000   1.000000
    8        3.313468      3.313101   0.000000   0.000000
    9        9.286548      9.286527   0.000000   0.000000
   10        9.286621      9.286602   0.000000   0.000000
   11       10.137307     10.137182   0.000000   0.000000
   12       14.027859     14.027466   0.000000   0.000000
   13       14.027917     14.027504   0.000000   0.000000
   14       15.605302     15.605944   0.000000   0.000000
   15       15.778415     15.777755   0.000000   0.000000
   16       18.981384     18.981008   0.000000   0.000000
 
  0.1000000E+00 -0.1200072E-16  0.1250000E+00  0.1500000E-01
    1      -42.798901    -42.798178   1.000000   1.000000
    2      -42.405905    -42.405158   1.000000   1.000000
    3      -42.290414    -42.289700   1.000000   1.000000
    4       -9.905971     -9.905944   1.000000   1.000000
    5       -0.210790     -0.210787   1.000000   1.000000
    6        1.137117      1.137085   1.000000   1.000000
    7        1.317846      1.317813   1.000000   1.000000
    8        3.581099      3.580740   0.000000   0.000000
    9        9.325480      9.325417   0.000000   0.000000
   10        9.589333      9.589295   0.000000   0.000000
   11       10.026119     10.026003   0.000000   0.000000
   12       13.824182     13.823816   0.000000   0.000000
   13       13.852869     13.852486   0.000000   0.000000
   14       15.383612     15.383096   0.000000   0.000000
   15       15.634836     15.635303   0.000000   0.000000
   16       18.623853     18.598032   0.000000   0.000000
 
  0.2000000E+00 -0.2400145E-16  0.1250000E+00  0.1500000E-01
    1      -42.772552    -42.771826   1.000000   1.000000
    2      -42.430944    -42.430198   1.000000   1.000000
    3      -42.290414    -42.289699   1.000000   1.000000
    4       -9.883329     -9.883308   1.000000   1.000000
    5       -0.072622     -0.072642   1.000000   1.000000
    6        0.611909      0.611917   1.000000   1.000000
    7        1.018107      1.018082   1.000000   1.000000
    8        4.096674      4.096309   0.000000   0.000000
    9        8.985342      8.985172   0.000000   0.000000
   10        9.946475      9.946348   0.000000   0.000000
   11       10.323867     10.323775   0.000000   0.000000
   12       13.389309     13.389051   0.000000   0.000000
   13       13.603615     13.603288   0.000000   0.000000
   14       15.019140     15.018750   0.000000   0.000000
   15       15.812061     15.812183   0.000000   0.000000
   16       17.657442     17.657113   0.000000   0.000000
 
  0.3000000E+00 -0.4652459E-16  0.1250000E+00  0.1500000E-01
    1      -42.733312    -42.732584   1.000000   1.000000
    2      -42.468484    -42.467741   1.000000   1.000000
    3      -42.290404    -42.289689   1.000000   1.000000
    4       -9.855663     -9.855647   1.000000   1.000000
    5       -0.227625     -0.227673   1.000000   1.000000
    6        0.517291      0.517357   1.000000   1.000000
    7        0.694665      0.694644   1.000000   1.000000
    8        4.651189      4.650811   0.000000   0.000000
    9        8.093199      8.092941   0.000000   0.000000
   10        9.918253      9.918082   0.000000   0.000000
   11       10.985429     10.985209   0.000000   0.000000
   12       13.114428     13.114299   0.000000   0.000000
   13       13.826480     13.826278   0.000000   0.000000
   14       14.737221     14.736933   0.000000   0.000000
   15       15.984098     15.984067   0.000000   0.000000
   16       17.519299     17.518814   0.000000   0.000000
 
  0.4000000E+00 -0.5234986E-16  0.1250000E+00  0.1500000E-01
    1      -42.690328    -42.689597   1.000000   1.000000
    2      -42.510109    -42.509369   1.000000   1.000000
    3      -42.290441    -42.289726   1.000000   1.000000
    4       -9.833602     -9.833592   1.000000   1.000000
    5       -0.536086     -0.536114   1.000000   1.000000
    6        0.461321      0.461303   1.000000   1.000000
    7        0.740809      0.740884   1.000000   1.000000
    8        5.213480      5.213082   0.000000   0.000000
    9        7.117509      7.117205   0.000000   0.000000
   10        9.872133      9.871948   0.000000   0.000000
   11       11.193428     11.193105   0.000000   0.000000
   12       12.674276     12.674142   0.000000   0.000000
   13       14.659203     14.659098   0.000000   0.000000
   14       14.763022     14.762885   0.000000   0.000000
   15       16.216281     16.216043   0.000000   0.000000
   16       17.723801     17.722748   0.000000   0.000000
 
  0.5000000E+00 -0.1383881E-15  0.1250000E+00  0.7500000E-02
    1      -42.667309    -42.666578   1.000000   1.000000
    2      -42.532666    -42.531927   1.000000   1.000000
    3      -42.290474    -42.289760   1.000000   1.000000
    4       -9.825248     -9.825240   1.000000   1.000000
    5       -0.654481     -0.654500   1.000000   1.000000
    6        0.377617      0.377600   1.000000   1.000000
    7        0.850863      0.850943   1.000000   1.000000
    8        5.595887      5.595467   0.000000   0.000000
    9        6.561424      6.561121   0.000000   0.000000
   10        9.860520      9.860337   0.000000   0.000000
   11       11.206547     11.206199   0.000000   0.000000
   12       12.435658     12.435490   0.000000   0.000000
   13       14.806234     14.806139   0.000000   0.000000
   14       15.173524     15.173443   0.000000   0.000000
   15       16.433045     16.430423   0.000000   0.000000
   16       17.715623     17.715432   0.000000   0.000000
 
  0.1000000E+00  0.1000000E+00  0.1250000E+00  0.1500000E-01
    1      -42.781093    -42.780369   1.000000   1.000000
    2      -42.422803    -42.422057   1.000000   1.000000
    3      -42.290414    -42.289699   1.000000   1.000000
    4       -9.890298     -9.890275   1.000000   1.000000
    5       -0.103294     -0.103304   1.000000   1.000000
    6        0.750239      0.750228   1.000000   1.000000
    7        1.091306      1.091280   1.000000   1.000000
    8        3.954977      3.954616   0.000000   0.000000
    9        9.328597      9.328450   0.000000   0.000000
   10        9.624081      9.623978   0.000000   0.000000
   11       10.242140     10.242061   0.000000   0.000000
   12       13.347633     13.347328   0.000000   0.000000
   13       13.752809     13.752494   0.000000   0.000000
   14       15.302895     15.302383   0.000000   0.000000
   15       15.646446     15.646780   0.000000   0.000000
   16       17.819715     17.819345   0.000000   0.000000
 
  0.2000000E+00  0.1000000E+00  0.1250000E+00  0.3000000E-01
    1      -42.748010    -42.747284   1.000000   1.000000
    2      -42.454317    -42.453573   1.000000   1.000000
    3      -42.290424    -42.289710   1.000000   1.000000
    4       -9.865335     -9.865319   1.000000   1.000000
    5       -0.102065     -0.102115   1.000000   1.000000
    6        0.490197      0.490253   1.000000   1.000000
    7        0.757169      0.757149   1.000000   1.000000
    8        4.465375      4.465000   0.000000   0.000000
    9        8.714694      8.714444   0.000000   0.000000
   10        9.579694      9.579533   0.000000   0.000000
   11       10.798847     10.798692   0.000000   0.000000
   12       13.009537     13.009393   0.000000   0.000000
   13       13.803182     13.802954   0.000000   0.000000
   14       15.119885     15.119492   0.000000   0.000000
   15       15.886087     15.886119   0.000000   0.000000
   16       17.365081     17.364172   0.000000   0.000000
 
  0.3000000E+00  0.1000000E+00  0.1250000E+00  0.3000000E-01
    1      -42.705541    -42.704811   1.000000   1.000000
    2      -42.495269    -42.494527   1.000000   1.000000
    3      -42.290495    -42.289780   1.000000   1.000000
    4       -9.840823     -9.840810   1.000000   1.000000
    5       -0.392938     -0.392973   1.000000   1.000000
    6        0.457817      0.457800   1.000000   1.000000
    7        0.666405      0.666477   1.000000   1.000000
    8        5.011861      5.011466   0.000000   0.000000
    9        7.709427      7.709111   0.000000   0.000000
   10        9.680129      9.679943   0.000000   0.000000
   11       10.938445     10.938206   0.000000   0.000000
   12       12.792679     12.792583   0.000000   0.000000
   13       14.211574     14.211463   0.000000   0.000000
   14       15.017052     15.016779   0.000000   0.000000
   15       16.281861     16.281761   0.000000   0.000000
   16       17.601140     17.601070   0.000000   0.000000
 
  0.4000000E+00  0.1000000E+00  0.1250000E+00  0.3000000E-01
    1      -42.667487    -42.666755   1.000000   1.000000
    2      -42.532338    -42.531598   1.000000   1.000000
    3      -42.290539    -42.289824   1.000000   1.000000
    4       -9.825901     -9.825893   1.000000   1.000000
    5       -0.596377     -0.596397   1.000000   1.000000
    6        0.292545      0.292529   1.000000   1.000000
    7        0.850922      0.851002   1.000000   1.000000
    8        5.542355      5.541938   0.000000   0.000000
    9        6.839511      6.839176   0.000000   0.000000
   10        9.888422      9.888239   0.000000   0.000000
   11       10.673571     10.673316   0.000000   0.000000
   12       12.554428     12.554276   0.000000   0.000000
   13       14.577959     14.577907   0.000000   0.000000
   14       15.262670     15.262478   0.000000   0.000000
   15       16.844377     16.843014   0.000000   0.000000
   16       17.704225     17.704938   0.000000   0.000000
 
  0.2000000E+00  0.2000000E+00  0.1250000E+00  0.1500000E-01
    1      -42.710829    -42.710100   1.000000   1.000000
    2      -42.490050    -42.489308   1.000000   1.000000
    3      -42.290535    -42.289821   1.000000   1.000000
    4       -9.843780     -9.843768   1.000000   1.000000
    5       -0.303230     -0.303270   1.000000   1.000000
    6        0.408900      0.408885   1.000000   1.000000
    7        0.641276      0.641347   1.000000   1.000000
    8        4.950863      4.950468   0.000000   0.000000
    9        8.274925      8.274525   0.000000   0.000000
   10        9.157121      9.157010   0.000000   0.000000
   11       10.947630     10.947421   0.000000   0.000000
   12       12.582737     12.582669   0.000000   0.000000
   13       14.142506     14.142445   0.000000   0.000000
   14       15.327241     15.326894   0.000000   0.000000
   15       16.384363     16.384372   0.000000   0.000000
   16       17.603281     17.599717   0.000000   0.000000
 
  0.3000000E+00  0.2000000E+00  0.1250000E+00  0.3000000E-01
    1      -42.667882    -42.667150   1.000000   1.000000
    2      -42.531857    -42.531118   1.000000   1.000000
    3      -42.290708    -42.289993   1.000000   1.000000
    4       -9.827013     -9.827006   1.000000   1.000000
    5       -0.473114     -0.473136   1.000000   1.000000
    6        0.128453      0.128440   1.000000   1.000000
    7        0.848781      0.848862   1.000000   1.000000
    8        5.490513      5.490096   0.000000   0.000000
    9        7.376807      7.376392   0.000000   0.000000
   10        9.394430      9.394286   0.000000   0.000000
   11       10.675289     10.675081   0.000000   0.000000
   12       12.094850     12.094746   0.000000   0.000000
   13       14.404138     14.404076   0.000000   0.000000
   14       15.737740     15.737452   0.000000   0.000000
   15       17.204552     17.204477   0.000000   0.000000
   16       17.877423     17.877466   0.000000   0.000000
 
  0.4000000E+00  0.2000000E+00  0.1250000E+00  0.1500000E-01
    1      -42.641366    -42.640632   1.000000   1.000000
    2      -42.557919    -42.557181   1.000000   1.000000
    3      -42.290796    -42.290081   1.000000   1.000000
    4       -9.820783     -9.820779   1.000000   1.000000
    5       -0.531221     -0.531236   1.000000   1.000000
    6        0.021051      0.021038   1.000000   1.000000
    7        0.939135      0.939220   1.000000   1.000000
    8        5.888025      5.887591   0.000000   0.000000
    9        6.799454      6.799051   0.000000   0.000000
   10        9.821267      9.821088   0.000000   0.000000
   11       10.212920     10.212751   0.000000   0.000000
   12       11.914208     11.914068   0.000000   0.000000
   13       14.491507     14.491460   0.000000   0.000000
   14       16.077132     16.076855   0.000000   0.000000
   15       17.592149     17.590977   0.000000   0.000000
   16       17.778692     17.782050   0.000000   0.000000
 
  0.3000000E+00  0.3000000E+00  0.1250000E+00  0.1500000E-01
    1      -42.625421    -42.624687   1.000000   1.000000
    2      -42.573589    -42.572852   1.000000   1.000000
    3      -42.290898    -42.290184   1.000000   1.000000
    4       -9.819050     -9.819046   1.000000   1.000000
    5       -0.420169     -0.420182   1.000000   1.000000
    6       -0.171138     -0.171149   1.000000   1.000000
    7        0.971509      0.971595   1.000000   1.000000
    8        6.056295      6.055856   0.000000   0.000000
    9        6.807896      6.807443   0.000000   0.000000
   10        9.498341      9.498209   0.000000   0.000000
   11       10.614849     10.614679   0.000000   0.000000
   12       11.252853     11.252728   0.000000   0.000000
   13       14.506865     14.506818   0.000000   0.000000
   14       16.556894     16.556449   0.000000   0.000000
   15       17.411793     17.417997   0.000000   0.000000
   16       18.760607     18.744466   0.000000   0.000000
 
  0.0000000E+00  0.0000000E+00  0.2500000E+00  0.2500000E-02
    1      -42.806609    -42.805886   1.000000   1.000000
    2      -42.397040    -42.396292   1.000000   1.000000
    3      -42.291276    -42.290561   1.000000   1.000000
    4       -9.939167     -9.939140   1.000000   1.000000
    5       -0.732013     -0.732073   1.000000   1.000000
    6        1.520014      1.519984   1.000000   1.000000
    7        1.520036      1.520007   1.000000   1.000000
    8        4.300398      4.300100   0.000000   0.000000
    9        9.553781      9.553778   0.000000   0.000000
   10        9.553858      9.553857   0.000000   0.000000
   11        9.735141      9.735104   0.000000   0.000000
   12       13.226863     13.226523   0.000000   0.000000
   13       13.226919     13.226560   0.000000   0.000000
   14       15.109238     15.108566   0.000000   0.000000
   15       16.301669     16.303117   0.000000   0.000000
   16       17.190336     17.190003   0.000000   0.000000
 
  0.1000000E+00 -0.1200072E-16  0.2500000E+00  0.1500000E-01
    1      -42.797523    -42.796799   1.000000   1.000000
    2      -42.405798    -42.405051   1.000000   1.000000
    3      -42.291201    -42.290487   1.000000   1.000000
    4       -9.932393     -9.932366   1.000000   1.000000
    5       -0.644382     -0.644442   1.000000   1.000000
    6        1.295872      1.295855   1.000000   1.000000
    7        1.398456      1.398429   1.000000   1.000000
    8        4.399173      4.398867   0.000000   0.000000
    9        9.476939      9.476897   0.000000   0.000000
   10        9.817097      9.817060   0.000000   0.000000
   11        9.849710      9.849691   0.000000   0.000000
   12       12.931411     12.931084   0.000000   0.000000
   13       12.932780     12.932437   0.000000   0.000000
   14       14.505710     14.505194   0.000000   0.000000
   15       16.308547     16.308857   0.000000   0.000000
   16       17.779870     17.779439   0.000000   0.000000
 
  0.2000000E+00 -0.2400145E-16  0.2500000E+00  0.1500000E-01