 running on    8 total cores
 distrk:  each k-point on    8 cores,    1 groups
 distr:  one band on    1 cores,    8 groups
 using from now: INCAR     
 vasp.6.1.2 22Jul20 (build Mar 20 2021 11:25:07) complex                        
  
 POSCAR found type information on POSCAR LiN 
 POSCAR found :  2 types and       4 ions
 scaLAPACK will be used
 -----------------------------------------------------------------------------
|                                                                             |
|           W    W    AA    RRRRR   N    N  II  N    N   GGGG   !!!           |
|           W    W   A  A   R    R  NN   N  II  NN   N  G    G  !!!           |
|           W    W  A    A  R    R  N N  N  II  N N  N  G       !!!           |
|           W WW W  AAAAAA  RRRRR   N  N N  II  N  N N  G  GGG   !            |
|           WW  WW  A    A  R   R   N   NN  II  N   NN  G    G                |
|           W    W  A    A  R    R  N    N  II  N    N   GGGG   !!!           |
|                                                                             |
|     The value NCORE = 6 specified in the INCAR file was overwritten,        |
|     because it was not compatible with the 8 processes available:           |
|     NCORE = 1                                                               |
|     was used instead, please check that this makes sense for your           |
|     machine.                                                                |
|                                                                             |
 -----------------------------------------------------------------------------

 -----------------------------------------------------------------------------
|                                                                             |
|           W    W    AA    RRRRR   N    N  II  N    N   GGGG   !!!           |
|           W    W   A  A   R    R  NN   N  II  NN   N  G    G  !!!           |
|           W    W  A    A  R    R  N N  N  II  N N  N  G       !!!           |
|           W WW W  AAAAAA  RRRRR   N  N N  II  N  N N  G  GGG   !            |
|           WW  WW  A    A  R   R   N   NN  II  N   NN  G    G                |
|           W    W  A    A  R    R  N    N  II  N    N   GGGG   !!!           |
|                                                                             |
|     For optimal performance we recommend to set                             |
|       NCORE = 4 - approx SQRT(number of cores).                             |
|     NCORE specifies how many cores store one orbital (NPAR=cpu/NCORE).      |
|     This setting can greatly improve the performance of VASP for DFT.       |
|     The default, NCORE=1 might be grossly inefficient on modern             |
|     multi-core architectures or massively parallel machines. Do your        |
|     own testing!!!!                                                         |
|     Unfortunately you need to use the default for GW and RPA                |
|     calculations (for HF NCORE is supported but not extensively tested      |
|     yet).                                                                   |
|                                                                             |
 -----------------------------------------------------------------------------

 -----------------------------------------------------------------------------
|                                                                             |
|               ----> ADVICE to this user running VASP <----                  |
|                                                                             |
|     You have a (more or less) 'small supercell' and for smaller cells       |
|     it is recommended to use the reciprocal-space projection scheme!        |
|     The real-space optimization is not efficient for small cells and it     |
|     is also less accurate ...                                               |
|     Therefore, set LREAL=.FALSE. in the INCAR file.                         |
|                                                                             |
 -----------------------------------------------------------------------------

 LDA part: xc-table for Pade appr. of Perdew
 -----------------------------------------------------------------------------
|                                                                             |
|           W    W    AA    RRRRR   N    N  II  N    N   GGGG   !!!           |
|           W    W   A  A   R    R  NN   N  II  NN   N  G    G  !!!           |
|           W    W  A    A  R    R  N N  N  II  N N  N  G       !!!           |
|           W WW W  AAAAAA  RRRRR   N  N N  II  N  N N  G  GGG   !            |
|           WW  WW  A    A  R   R   N   NN  II  N   NN  G    G                |
|           W    W  A    A  R    R  N    N  II  N    N   GGGG   !!!           |
|                                                                             |
|     The determination of the symmetry of your systems shows a strong        |
|     dependence on the tolerance parameter SYMPREC. This is often the        |
|     result of "noise" in the structural parameters (lattice vectors         |
|     and/or ionic positions). Set NWRITE=3 for more details.                 |
|                                                                             |
 -----------------------------------------------------------------------------

 generate k-points for:   10   10    8
 POSCAR, INCAR and KPOINTS ok, starting setup
 FFT: planning ...
 WAVECAR not read
 entering main loop
       N       E                     dE             d eps       ncg     rms          rms(c)
DAV:   1     0.658967172452E+02    0.65897E+02   -0.58819E+03  4488   0.900E+02
DAV:   2    -0.813149201155E+01   -0.74028E+02   -0.68861E+02  5824   0.225E+02
DAV:   3    -0.186292322965E+02   -0.10498E+02   -0.10412E+02  8704   0.566E+01
DAV:   4    -0.187534113709E+02   -0.12418E+00   -0.12417E+00  5112   0.917E+00
DAV:   5    -0.187552169609E+02   -0.18056E-02   -0.18056E-02  6888   0.839E-01    0.143E+01
RMM:   6    -0.156586504708E+02    0.30966E+01   -0.55676E+00  5113   0.107E+01    0.660E+00
RMM:   7    -0.156521428656E+02    0.65076E-02   -0.40666E-01  5512   0.549E+00    0.251E+00
RMM:   8    -0.155784792600E+02    0.73664E-01   -0.12531E-01  6375   0.253E+00    0.146E+00
RMM:   9    -0.155880936596E+02   -0.96144E-02   -0.65534E-02  6328   0.192E+00    0.454E-01
RMM:  10    -0.155897994748E+02   -0.17058E-02   -0.20176E-02  7256   0.933E-01    0.235E-01
RMM:  11    -0.155906986270E+02   -0.89915E-03   -0.52755E-03  6966   0.432E-01    0.107E-01
RMM:  12    -0.155912601592E+02   -0.56153E-03   -0.22445E-03  6937   0.336E-01    0.410E-02
RMM:  13    -0.155914121877E+02   -0.15203E-03   -0.10110E-03  7399   0.179E-01    0.272E-02
RMM:  14    -0.155914633270E+02   -0.51139E-04   -0.34397E-04  7126   0.104E-01    0.674E-03
RMM:  15    -0.155914791683E+02   -0.15841E-04   -0.11597E-04  6587   0.613E-02    0.477E-03
RMM:  16    -0.155914837291E+02   -0.45608E-05   -0.39948E-05  5764   0.369E-02
   1 F= -.15591484E+02 E0= -.15591484E+02  d E =0.000000E+00  mag=    -0.0000
