 running on   24 total cores
 distrk:  each k-point on   24 cores,    1 groups
 distr:  one band on    6 cores,    4 groups
 using from now: INCAR     
 vasp.6.1.2 22Jul20 (build Mar 31 2021 18:09:49) complex                        
  
 POSCAR found type information on POSCAR LiP 
 POSCAR found :  2 types and       8 ions
 scaLAPACK will be used
 -----------------------------------------------------------------------------
|                                                                             |
|               ----> ADVICE to this user running VASP <----                  |
|                                                                             |
|     You have a (more or less) 'small supercell' and for smaller cells       |
|     it is recommended to use the reciprocal-space projection scheme!        |
|     The real-space optimization is not efficient for small cells and it     |
|     is also less accurate ...                                               |
|     Therefore, set LREAL=.FALSE. in the INCAR file.                         |
|                                                                             |
 -----------------------------------------------------------------------------

 LDA part: xc-table for Pade appr. of Perdew
 generate k-points for:    9    9    4
 POSCAR, INCAR and KPOINTS ok, starting setup
 FFT: planning ...
 WAVECAR not read
 entering main loop
       N       E                     dE             d eps       ncg     rms          rms(c)
DAV:   1     0.157071303685E+03    0.15707E+03   -0.11806E+04  9120   0.118E+03
DAV:   2     0.186840718067E+01   -0.15520E+03   -0.14644E+03  9776   0.297E+02
DAV:   3    -0.237087615361E+02   -0.25577E+02   -0.25343E+02 16400   0.699E+01
DAV:   4    -0.263873358270E+02   -0.26786E+01   -0.26583E+01 13608   0.308E+01
DAV:   5    -0.265855008810E+02   -0.19817E+00   -0.19815E+00 14576   0.658E+00    0.149E+01
RMM:   6    -0.270489882854E+02   -0.46349E+00   -0.16323E+00 11137   0.630E+00    0.755E+00
RMM:   7    -0.277539516676E+02   -0.70496E+00   -0.49629E-01 12604   0.426E+00    0.284E+00
RMM:   8    -0.278247463697E+02   -0.70795E-01   -0.38878E-01 14383   0.285E+00    0.118E+00
RMM:   9    -0.278335239179E+02   -0.87775E-02   -0.96297E-02 15178   0.169E+00    0.518E-01
RMM:  10    -0.278417760750E+02   -0.82522E-02   -0.42681E-02 15883   0.101E+00    0.267E-01
RMM:  11    -0.278439683448E+02   -0.21923E-02   -0.15882E-02 16217   0.588E-01    0.196E-01
RMM:  12    -0.278447437862E+02   -0.77544E-03   -0.59917E-03 15849   0.448E-01    0.506E-02
RMM:  13    -0.278453363364E+02   -0.59255E-03   -0.33649E-03 16289   0.275E-01    0.186E-02
RMM:  14    -0.278455510338E+02   -0.21470E-03   -0.17370E-03 15974   0.179E-01    0.223E-02
RMM:  15    -0.278456452007E+02   -0.94167E-04   -0.80832E-04 14340   0.120E-01    0.196E-02
RMM:  16    -0.278456938952E+02   -0.48694E-04   -0.42657E-04 14165   0.868E-02    0.272E-02
RMM:  17    -0.278457123439E+02   -0.18449E-04   -0.23867E-04 13822   0.720E-02    0.165E-02
WARNING in EDDRMM: call to ZHEGV failed, returncode =   6  3      3
RMM:  18    -0.278457282412E+02   -0.15897E-04   -0.14647E-04 13031   0.536E-02    0.148E-02
RMM:  19    -0.278457367696E+02   -0.85285E-05   -0.94814E-05 11931   0.443E-02
   1 F= -.27845737E+02 E0= -.27845737E+02  d E =0.000000E+00  mag=    -0.0001
