 running on    8 total cores
 distrk:  each k-point on    8 cores,    1 groups
 distr:  one band on    1 cores,    8 groups
 using from now: INCAR     
 vasp.6.1.2 22Jul20 (build Mar 20 2021 11:25:07) complex                        
  
 POSCAR found type information on POSCAR LiP O 
 POSCAR found :  3 types and      16 ions
 scaLAPACK will be used
 -----------------------------------------------------------------------------
|                                                                             |
|           W    W    AA    RRRRR   N    N  II  N    N   GGGG   !!!           |
|           W    W   A  A   R    R  NN   N  II  NN   N  G    G  !!!           |
|           W    W  A    A  R    R  N N  N  II  N N  N  G       !!!           |
|           W WW W  AAAAAA  RRRRR   N  N N  II  N  N N  G  GGG   !            |
|           WW  WW  A    A  R   R   N   NN  II  N   NN  G    G                |
|           W    W  A    A  R    R  N    N  II  N    N   GGGG   !!!           |
|                                                                             |
|     The value NCORE = 6 specified in the INCAR file was overwritten,        |
|     because it was not compatible with the 8 processes available:           |
|     NCORE = 1                                                               |
|     was used instead, please check that this makes sense for your           |
|     machine.                                                                |
|                                                                             |
 -----------------------------------------------------------------------------

 -----------------------------------------------------------------------------
|                                                                             |
|           W    W    AA    RRRRR   N    N  II  N    N   GGGG   !!!           |
|           W    W   A  A   R    R  NN   N  II  NN   N  G    G  !!!           |
|           W    W  A    A  R    R  N N  N  II  N N  N  G       !!!           |
|           W WW W  AAAAAA  RRRRR   N  N N  II  N  N N  G  GGG   !            |
|           WW  WW  A    A  R   R   N   NN  II  N   NN  G    G                |
|           W    W  A    A  R    R  N    N  II  N    N   GGGG   !!!           |
|                                                                             |
|     For optimal performance we recommend to set                             |
|       NCORE = 4 - approx SQRT(number of cores).                             |
|     NCORE specifies how many cores store one orbital (NPAR=cpu/NCORE).      |
|     This setting can greatly improve the performance of VASP for DFT.       |
|     The default, NCORE=1 might be grossly inefficient on modern             |
|     multi-core architectures or massively parallel machines. Do your        |
|     own testing!!!!                                                         |
|     Unfortunately you need to use the default for GW and RPA                |
|     calculations (for HF NCORE is supported but not extensively tested      |
|     yet).                                                                   |
|                                                                             |
 -----------------------------------------------------------------------------

 LDA part: xc-table for Pade appr. of Perdew
 generate k-points for:    7    6    5
 POSCAR, INCAR and KPOINTS ok, starting setup
 FFT: planning ...
 WAVECAR not read
 entering main loop
       N       E                     dE             d eps       ncg     rms          rms(c)
DAV:   1     0.603048348316E+03    0.60305E+03   -0.36408E+04 14784   0.143E+03
DAV:   2    -0.446591308888E+02   -0.64771E+03   -0.61173E+03 16976   0.373E+02
DAV:   3    -0.102672162385E+03   -0.58013E+02   -0.57673E+02 20336   0.105E+02
DAV:   4    -0.107989894873E+03   -0.53177E+01   -0.52834E+01 24936   0.264E+01
DAV:   5    -0.108480746647E+03   -0.49085E+00   -0.49071E+00 20792   0.556E+00    0.372E+01
RMM:   6    -0.985603494134E+02    0.99204E+01   -0.38293E+01 16150   0.219E+01    0.149E+01
RMM:   7    -0.996045219399E+02   -0.10442E+01   -0.38279E+00 21315   0.754E+00    0.793E+00
RMM:   8    -0.998006566777E+02   -0.19613E+00   -0.86808E-01 23897   0.394E+00    0.394E+00
RMM:   9    -0.998727984728E+02   -0.72142E-01   -0.31637E-01 24233   0.280E+00    0.829E-01
RMM:  10    -0.999014362520E+02   -0.28638E-01   -0.21935E-01 27643   0.162E+00    0.358E-01
RMM:  11    -0.999155153226E+02   -0.14079E-01   -0.97217E-02 28399   0.100E+00    0.282E-01
RMM:  12    -0.999216198669E+02   -0.61045E-02   -0.39674E-02 28657   0.622E-01    0.159E-01
RMM:  13    -0.999238065411E+02   -0.21867E-02   -0.15534E-02 28053   0.419E-01    0.705E-02
RMM:  14    -0.999247509152E+02   -0.94437E-03   -0.77892E-03 28495   0.291E-01    0.332E-02
RMM:  15    -0.999251249251E+02   -0.37401E-03   -0.34104E-03 27900   0.184E-01    0.250E-02
RMM:  16    -0.999252916348E+02   -0.16671E-03   -0.15607E-03 27608   0.123E-01    0.149E-02
RMM:  17    -0.999253677350E+02   -0.76100E-04   -0.65738E-04 26929   0.849E-02    0.998E-03
RMM:  18    -0.999253995509E+02   -0.31816E-04   -0.31750E-04 26361   0.567E-02    0.668E-03
RMM:  19    -0.999254097763E+02   -0.10225E-04   -0.12710E-04 25417   0.406E-02    0.765E-03
RMM:  20    -0.999254168004E+02   -0.70240E-05   -0.47336E-05 20980   0.300E-02
   1 F= -.99925417E+02 E0= -.99925417E+02  d E =0.000000E+00  mag=    -0.0000
