Automatically generated mesh
      64
Reciprocal lattice
    0.00000000000000    0.00000000000000    0.00000000000000             1
    0.14285714285715   -0.00000000000000    0.00000000000000             8
    0.28571428571428    0.00000000000000   -0.00000000000001             8
    0.42857142857143   -0.00000000000000   -0.00000000000000             8
    0.14285714285715    0.14285714285715    0.00000000000000             2
    0.28571428571428    0.14285714285715    0.00000000000000             8
    0.42857142857143    0.14285714285715   -0.00000000000001             8
   -0.42857142857143    0.14285714285715   -0.00000000000000             8
   -0.28571428571428    0.14285714285715    0.00000000000000             8
   -0.14285714285715    0.14285714285715    0.00000000000000             4
    0.28571428571428    0.28571428571428   -0.00000000000000             2
    0.42857142857143    0.28571428571428    0.00000000000000             8
   -0.42857142857143    0.28571428571428   -0.00000000000000             8
   -0.28571428571428    0.28571428571428   -0.00000000000000             4
    0.42857142857143    0.42857142857143    0.00000000000000             2
   -0.42857142857143    0.42857142857143    0.00000000000000             4
    0.14285714285715    0.00000000000000    0.14285714285714             2
    0.28571428571428   -0.00000000000000    0.14285714285715             8
    0.42857142857143   -0.00000000000000    0.14285714285714             8
   -0.42857142857143    0.00000000000000    0.14285714285714             8
   -0.28571428571428    0.00000000000000    0.14285714285714             8
   -0.14285714285715    0.00000000000000    0.14285714285715             4
    0.00000000000000    0.14285714285715    0.14285714285715             2
    0.28571428571428    0.14285714285715    0.14285714285714             4
    0.42857142857143    0.14285714285715    0.14285714285715             8
   -0.42857142857143    0.14285714285715    0.14285714285714             8
   -0.28571428571428    0.14285714285715    0.14285714285714             8
   -0.14285714285715    0.14285714285715    0.14285714285714             8
    0.42857142857143    0.28571428571428    0.14285714285714             4
   -0.42857142857143    0.28571428571428    0.14285714285715             8
   -0.28571428571428    0.28571428571428    0.14285714285714             8
   -0.14285714285715    0.28571428571428    0.14285714285714             4
    0.28571428571428    0.42857142857143    0.14285714285715             4
   -0.42857142857143    0.42857142857143    0.14285714285714             4
   -0.28571428571428    0.42857142857143    0.14285714285715             4
    0.28571428571428   -0.42857142857143    0.14285714285714             8
    0.42857142857143   -0.42857142857143    0.14285714285714             4
    0.28571428571428   -0.28571428571428    0.14285714285714             8
    0.42857142857143   -0.28571428571428    0.14285714285714             4
    0.28571428571428   -0.14285714285715    0.14285714285714             4
    0.28571428571428    0.00000000000000    0.28571428571429             2
    0.42857142857143    0.00000000000000    0.28571428571429             8
   -0.42857142857143    0.00000000000000    0.28571428571428             8
   -0.28571428571428    0.00000000000000    0.28571428571428             4
    0.42857142857143    0.14285714285715    0.28571428571429             4
   -0.42857142857143    0.14285714285715    0.28571428571429             8
   -0.28571428571428    0.14285714285715    0.28571428571428             8
   -0.14285714285715    0.14285714285715    0.28571428571429             4
   -0.00000000000000    0.28571428571428    0.28571428571428             2
   -0.42857142857143    0.28571428571428    0.28571428571429             4
   -0.28571428571428    0.28571428571428    0.28571428571429             8
   -0.14285714285715    0.28571428571428    0.28571428571428             8
   -0.28571428571428    0.42857142857143    0.28571428571429             4
   -0.14285714285715    0.42857142857143    0.28571428571429             4
    0.42857142857143   -0.28571428571428    0.28571428571428             4
    0.42857142857143   -0.14285714285715    0.28571428571428             4
    0.42857142857143    0.00000000000000    0.42857142857143             2
   -0.42857142857143    0.00000000000000    0.42857142857143             4
   -0.42857142857143    0.14285714285715    0.42857142857143             4
   -0.28571428571428    0.14285714285715    0.42857142857143             4
   -0.28571428571428    0.28571428571428    0.42857142857143             4
   -0.14285714285715    0.28571428571428    0.42857142857143             4
   -0.00000000000000    0.42857142857143    0.42857142857143             2
   -0.14285714285715    0.42857142857143    0.42857142857143             4
Tetrahedra
       324    0.00048590864917
         8         1         2         2         5
         8         1         2         2        17
         8         1         2         2        23
         8         2         5         6        24
         8         2         3         6        24
         8         2         3        18        24
         4         2         2         5        24
         4         2         2        17        24
         8         2        17        18        24
         8         3         6         7        25
         8         3         4         7        25
         8         3         4        19        25
         8         3         6        24        25
         8         3        18        24        25
         8         3        18        19        25
         8         4         7         8        26
         8         4         4         8        26
         8         4         4        20        26
         8         4         7        25        26
         8         4        19        25        26
         8         4        19        20        26
         8         4         8         9        27
         8         3         4         9        27
         8         3         4        21        27
         8         4         8        26        27
         8         4        20        26        27
         8         4        20        21        27
         8         3         9        10        28
         8         2         3        10        28
         8         2         3        22        28
         8         3         9        27        28
         8         3        21        27        28
         8         3        21        22        28
         4         2         2        10        23
         8         2        10        23        28
         8         2        22        23        28
         4         2         2        22        23
         8         2         3         6        22
         8         2         5         6        22
         4         2         2         5        22
         8         5         6         6        11
         4         5         6         6        24
         4         5         6         6        22
         8         6        11        12        29
         8         6         7        12        29
         8         6         7        25        29
         4         6         6        11        29
         4         6         6        24        29
         8         6        24        25        29
         8         7        12        13        30
         8         7         8        13        30
         8         7         8        26        30
         8         7        12        29        30
         8         7        25        29        30
         8         7        25        26        30
         8         8        13        14        31
         8         8         9        14        31
         8         8         9        27        31
         8         8        13        30        31
         8         8        26        30        31
         8         8        26        27        31
         4         9         9        14        32
         4         9         9        10        32
         8         9        10        28        32
         8         9        14        31        32
         8         9        27        31        32
         8         9        27        28        32
         4        10        28        28        32
         4        10        23        28        28
         8         3         4         7        21
         8         3         6         7        21
         8         3         6        21        22
         8         6         7        12        33
         8         6        11        12        33
         4         6         6        11        33
         8         6         7        21        33
         8         6        21        22        33
         4         6         6        22        33
         8        11        12        12        15
         4        11        12        12        29
         4        11        12        12        33
         8        12        15        16        34
         8        12        13        16        34
         8        12        13        30        34
         4        12        12        15        34
         4        12        12        29        34
         8        12        29        30        34
         4        13        13        16        35
         4        13        13        14        35
         8        13        14        31        35
         8        13        16        34        35
         8        13        30        34        35
         8        13        30        31        35
         4        14        31        31        35
         4        14        31        31        32
         8         4         4         8        20
         8         4         7         8        20
         8         4         7        20        21
         8         7         8        13        36
         8         7        12        13        36
         8         7        12        33        36
         8         7         8        20        36
         8         7        20        21        36
         8         7        21        33        36
         8        12        13        16        37
         8        12        15        16        37
         4        12        12        15        37
         8        12        13        36        37
         8        12        33        36        37
         4        12        12        33        37
         4        15        15        16        16
         4        15        16        16        34
         4        15        16        16        37
         2        16        16        34        34
         4        16        34        34        35
         8         3         4         9        19
         8         4         8         9        19
         8         4         8        19        20
         8         8         9        14        38
         8         8        13        14        38
         8         8        13        36        38
         8         8         9        19        38
         8         8        19        20        38
         8         8        20        36        38
         4        13        13        14        39
         4        13        13        16        39
         8        13        16        37        39
         8        13        14        38        39
         8        13        36        38        39
         8        13        36        37        39
         4        16        37        37        39
         2        16        16        37        37
         8         2         3        10        18
         8         3         9        10        18
         8         3         9        18        19
         4         9         9        10        40
         4         9         9        14        40
         8         9        14        38        40
         8         9        10        18        40
         8         9        18        19        40
         8         9        19        38        40
         4        14        38        38        40
         4        14        38        38        39
         4         2         2        10        17
         8         2        10        17        18
         4        10        17        18        18
         4        10        18        18        40
         4        17        18        18        24
         8        17        18        18        41
         8        18        24        25        45
         8        18        19        25        45
         8        18        19        42        45
         4        18        18        24        45
         4        18        18        41        45
         8        18        41        42        45
         8        19        25        26        46
         8        19        20        26        46
         8        19        20        43        46
         8        19        25        45        46
         8        19        42        45        46
         8        19        42        43        46
         8        20        26        27        47
         8        20        21        27        47
         8        20        21        44        47
         8        20        26        46        47
         8        20        43        46        47
         8        20        43        44        47
         8        21        27        28        48
         8        21        22        28        48
         4        21        21        22        48
         8        21        27        47        48
         8        21        44        47        48
         4        21        21        44        48
         4        22        23        28        28
         4        22        28        28        48
         8        23        28        28        49
         4        24        25        25        29
         4        24        25        25        45
         8        25        29        30        50
         8        25        26        30        50
         8        25        26        46        50
         4        25        25        29        50
         4        25        25        45        50
         8        25        45        46        50
         8        26        30        31        51
         8        26        27        31        51
         8        26        27        47        51
         8        26        30        50        51
         8        26        46        50        51
         8        26        46        47        51
         8        27        31        32        52
         8        27        28        32        52
         8        27        28        48        52
         8        27        31        51        52
         8        27        47        51        52
         8        27        47        48        52
         4        28        28        32        49
         8        28        32        49        52
         8        28        48        49        52
         4        28        28        48        49
         4        21        21        22        33
         4        29        30        30        34
         4        29        30        30        50
         8        30        34        35        53
         8        30        31        35        53
         8        30        31        51        53
         4        30        30        34        53
         4        30        30        50        53
         8        30        50        51        53
         4        31        31        35        54
         4        31        31        32        54
         8        31        32        52        54
         8        31        35        53        54
         8        31        51        53        54
         8        31        51        52        54
         4        32        52        52        54
         4        32        49        52        52
         8        20        21        36        44
         8        21        33        36        44
         4        21        21        33        44
         4        33        36        36        37
         4        33        36        36        44
         2        34        34        35        35
         4        34        35        35        53
         2        35        35        53        53
         4        35        53        53        54
         8        19        20        38        43
         8        20        36        38        43
         8        20        36        43        44
         8        36        38        39        55
         8        36        37        39        55
         4        36        36        37        55
         8        36        38        43        55
         8        36        43        44        55
         4        36        36        44        55
         2        37        37        39        39
         4        37        39        39        55
         8        18        19        40        42
         8        19        38        40        42
         8        19        38        42        43
         4        38        38        40        56
         4        38        38        39        56
         8        38        39        55        56
         8        38        40        42        56
         8        38        42        43        56
         8        38        43        55        56
         4        39        55        55        56
         2        39        39        55        55
         4        18        18        40        41
         8        18        40        41        42
         4        40        41        42        42
         4        40        42        42        56
         4        41        42        42        45
         8        41        42        42        57
         8        42        45        46        59
         8        42        43        46        59
         8        42        43        58        59
         4        42        42        45        59
         4        42        42        57        59
         8        42        57        58        59
         8        43        46        47        60
         8        43        44        47        60
         4        43        43        44        60
         8        43        46        59        60
         8        43        58        59        60
         4        43        43        58        60
         4        44        47        47        48
         4        44        47        47        60
         4        45        46        46        50
         4        45        46        46        59
         8        46        50        51        61
         8        46        47        51        61
         8        46        47        60        61
         4        46        46        50        61
         4        46        46        59        61
         8        46        59        60        61
         8        47        51        52        62
         8        47        48        52        62
         4        47        47        48        62
         8        47        51        61        62
         8        47        60        61        62
         4        47        47        60        62
         4        48        49        52        52
         4        48        52        52        62
         8        49        52        52        63
         4        50        51        51        53
         4        50        51        51        61
         8        51        53        54        64
         8        51        52        54        64
         8        51        52        62        64
         4        51        51        53        64
         4        51        51        61        64
         8        51        61        62        64
         4        52        52        54        63
         8        52        54        63        64
         8        52        62        63        64
         4        52        52        62        63
         2        53        53        54        54
         4        53        54        54        64
         2        54        54        64        64
         4        54        63        64        64
         4        43        43        44        55
         8        42        43        56        58
         8        43        55        56        58
         4        43        43        55        58
         2        55        55        56        56
         4        55        56        56        58
         4        42        42        56        57
         8        42        56        57        58
         4        56        57        58        58
         2        56        56        58        58
         4        57        58        58        59
         4        57        57        58        58
         4        58        59        59        60
         2        58        58        59        59
         4        59        60        60        61
         2        59        59        60        60
         4        60        61        61        62
         2        60        60        61        61
         4        61        62        62        64
         2        61        61        62        62
         4        62        63        64        64
         2        62        62        64        64
         4        63        63        64        64
