       N       E                     dE             d eps       ncg     rms          rms(c)
DAV:   1     0.188747263761E+03    0.18875E+03   -0.16983E+04 31856   0.133E+03
DAV:   2    -0.388502517762E+02   -0.22760E+03   -0.22007E+03 43602   0.309E+02
DAV:   3    -0.498823739005E+02   -0.11032E+02   -0.10984E+02 40496   0.740E+01
DAV:   4    -0.500119060687E+02   -0.12953E+00   -0.12937E+00 39644   0.887E+00
DAV:   5    -0.500144672730E+02   -0.25612E-02   -0.25606E-02 40070   0.120E+00    0.305E+01
RMM:   6    -0.434429313066E+02    0.65715E+01   -0.20144E+01 32272   0.265E+01    0.138E+01
RMM:   7    -0.436361809627E+02   -0.19325E+00   -0.56768E+00 36574   0.144E+01    0.552E+00
RMM:   8    -0.436083971238E+02    0.27784E-01   -0.44197E-01 37223   0.496E+00    0.331E+00
RMM:   9    -0.436104055218E+02   -0.20084E-02   -0.14331E-01 38091   0.270E+00    0.921E-01
RMM:  10    -0.436101751236E+02    0.23040E-03   -0.24180E-02 40118   0.114E+00    0.275E-01
RMM:  11    -0.436103937515E+02   -0.21863E-03   -0.14757E-02 39154   0.721E-01    0.240E-01
RMM:  12    -0.436104413722E+02   -0.47621E-04   -0.15853E-03 39168   0.301E-01    0.120E-01
RMM:  13    -0.436104404712E+02    0.90107E-06   -0.51817E-04 38946   0.164E-01    0.320E-02
RMM:  14    -0.436104524821E+02   -0.12011E-04   -0.10766E-04 40145   0.685E-02    0.167E-02
RMM:  15    -0.436104525705E+02   -0.88373E-07   -0.19214E-05 28448   0.305E-02
   1 F= -.43610453E+02 E0= -.43610453E+02  d E =0.000000E+00  mag=    -0.0001
