Automatically generated mesh
     433
Reciprocal lattice
    0.00000000000000    0.00000000000000    0.00000000000000             1
    0.09090909090909   -0.00000000000000    0.00000000000000             2
    0.18181818181818    0.00000000000000    0.00000000000000             2
    0.27272727272727    0.00000000000000   -0.00000000000000             2
    0.36363636363637   -0.00000000000000   -0.00000000000000             2
    0.45454545454545    0.00000000000000   -0.00000000000000             2
   -0.00000000000000    0.08333333333334   -0.00000000000000             4
    0.09090909090909    0.08333333333334   -0.00000000000000             4
    0.18181818181818    0.08333333333334   -0.00000000000000             4
    0.27272727272727    0.08333333333334    0.00000000000000             4
    0.36363636363637    0.08333333333334    0.00000000000001             4
    0.45454545454545    0.08333333333334   -0.00000000000001             4
   -0.45454545454545    0.08333333333334   -0.00000000000000             4
   -0.36363636363637    0.08333333333334    0.00000000000000             4
   -0.27272727272727    0.08333333333334    0.00000000000000             4
   -0.18181818181818    0.08333333333334   -0.00000000000000             4
   -0.09090909090909    0.08333333333334   -0.00000000000000             4
    0.00000000000000    0.16666666666666    0.00000000000000             4
    0.09090909090909    0.16666666666666   -0.00000000000000             4
    0.18181818181818    0.16666666666666   -0.00000000000000             4
    0.27272727272727    0.16666666666666    0.00000000000000             4
    0.36363636363637    0.16666666666666    0.00000000000000             4
    0.45454545454545    0.16666666666666    0.00000000000000             4
   -0.45454545454545    0.16666666666666   -0.00000000000000             4
   -0.36363636363637    0.16666666666666   -0.00000000000000             4
   -0.27272727272727    0.16666666666666   -0.00000000000000             4
   -0.18181818181818    0.16666666666666    0.00000000000000             4
   -0.09090909090909    0.16666666666666    0.00000000000000             4
   -0.00000000000000    0.25000000000000   -0.00000000000000             4
    0.09090909090909    0.25000000000000    0.00000000000000             4
    0.18181818181818    0.25000000000000    0.00000000000000             4
    0.27272727272727    0.25000000000000   -0.00000000000000             4
    0.36363636363637    0.25000000000000   -0.00000000000000             4
    0.45454545454545    0.25000000000000   -0.00000000000000             4
   -0.45454545454545    0.25000000000000    0.00000000000000             4
   -0.36363636363637    0.25000000000000    0.00000000000000             4
   -0.27272727272727    0.25000000000000   -0.00000000000001             4
   -0.18181818181818    0.25000000000000   -0.00000000000000             4
   -0.09090909090909    0.25000000000000   -0.00000000000000             4
   -0.00000000000000    0.33333333333334   -0.00000000000000             4
    0.09090909090909    0.33333333333334   -0.00000000000000             4
    0.18181818181818    0.33333333333334   -0.00000000000000             4
    0.27272727272727    0.33333333333334    0.00000000000000             4
    0.36363636363637    0.33333333333334    0.00000000000001             4
    0.45454545454545    0.33333333333334   -0.00000000000001             4
   -0.45454545454545    0.33333333333334   -0.00000000000000             4
   -0.36363636363637    0.33333333333334    0.00000000000000             4
   -0.27272727272727    0.33333333333334   -0.00000000000000             4
   -0.18181818181818    0.33333333333334   -0.00000000000000             4
   -0.09090909090909    0.33333333333334   -0.00000000000000             4
    0.00000000000000    0.41666666666666    0.00000000000000             4
    0.09090909090909    0.41666666666666   -0.00000000000000             4
    0.18181818181818    0.41666666666666   -0.00000000000000             4
    0.27272727272727    0.41666666666666    0.00000000000000             4
    0.36363636363637    0.41666666666666    0.00000000000000             4
    0.45454545454545    0.41666666666666    0.00000000000000             4
   -0.45454545454545    0.41666666666666   -0.00000000000000             4
   -0.36363636363637    0.41666666666666   -0.00000000000000             4
   -0.27272727272727    0.41666666666666   -0.00000000000000             4
   -0.18181818181818    0.41666666666666    0.00000000000000             4
   -0.09090909090909    0.41666666666666    0.00000000000000             4
   -0.00000000000000    0.50000000000000   -0.00000000000000             2
    0.09090909090909    0.50000000000000    0.00000000000000             4
    0.18181818181818    0.50000000000000    0.00000000000000             4
    0.27272727272727    0.50000000000000   -0.00000000000000             4
    0.36363636363637    0.50000000000000   -0.00000000000000             4
    0.45454545454545    0.50000000000000   -0.00000000000000             4
   -0.00000000000000    0.08333333333334    0.08333333333334             2
    0.09090909090909    0.08333333333334    0.08333333333333             2
    0.18181818181818    0.08333333333334    0.08333333333333             2
    0.27272727272727    0.08333333333334    0.08333333333333             2
    0.36363636363637    0.08333333333334    0.08333333333334             2
    0.45454545454545    0.08333333333334    0.08333333333334             2
   -0.45454545454545    0.08333333333334    0.08333333333333             2
   -0.36363636363637    0.08333333333334    0.08333333333333             2
   -0.27272727272727    0.08333333333334    0.08333333333334             2
   -0.18181818181818    0.08333333333334    0.08333333333333             2
   -0.09090909090909    0.08333333333334    0.08333333333333             2
    0.00000000000000    0.16666666666666    0.08333333333333             4
    0.09090909090909    0.16666666666666    0.08333333333334             4
    0.18181818181818    0.16666666666666    0.08333333333334             4
    0.27272727272727    0.16666666666666    0.08333333333333             4
    0.36363636363637    0.16666666666666    0.08333333333333             4
    0.45454545454545    0.16666666666666    0.08333333333333             4
   -0.45454545454545    0.16666666666666    0.08333333333334             4
   -0.36363636363637    0.16666666666666    0.08333333333334             4
   -0.27272727272727    0.16666666666666    0.08333333333333             4
   -0.18181818181818    0.16666666666666    0.08333333333333             4
   -0.09090909090909    0.16666666666666    0.08333333333333             4
   -0.00000000000000    0.25000000000000    0.08333333333333             4
    0.09090909090909    0.25000000000000    0.08333333333333             4
    0.18181818181818    0.25000000000000    0.08333333333333             4
    0.27272727272727    0.25000000000000    0.08333333333334             4
    0.36363636363637    0.25000000000000    0.08333333333334             4
    0.45454545454545    0.25000000000000    0.08333333333333             4
   -0.45454545454545    0.25000000000000    0.08333333333333             4
   -0.36363636363637    0.25000000000000    0.08333333333333             4
   -0.27272727272727    0.25000000000000    0.08333333333333             4
   -0.18181818181818    0.25000000000000    0.08333333333333             4
   -0.09090909090909    0.25000000000000    0.08333333333333             4
   -0.00000000000000    0.33333333333334    0.08333333333334             4
    0.09090909090909    0.33333333333334    0.08333333333333             4
    0.18181818181818    0.33333333333334    0.08333333333333             4
    0.27272727272727    0.33333333333334    0.08333333333333             4
    0.36363636363637    0.33333333333334    0.08333333333334             4
    0.45454545454545    0.33333333333334    0.08333333333334             4
   -0.45454545454545    0.33333333333334    0.08333333333333             4
   -0.36363636363637    0.33333333333334    0.08333333333333             4
   -0.27272727272727    0.33333333333334    0.08333333333334             4
   -0.18181818181818    0.33333333333334    0.08333333333333             4
   -0.09090909090909    0.33333333333334    0.08333333333333             4
    0.00000000000000    0.41666666666666    0.08333333333333             4
    0.09090909090909    0.41666666666666    0.08333333333334             4
    0.18181818181818    0.41666666666666    0.08333333333334             4
    0.27272727272727    0.41666666666666    0.08333333333333             4
    0.36363636363637    0.41666666666666    0.08333333333333             4
    0.45454545454545    0.41666666666666    0.08333333333333             4
   -0.45454545454545    0.41666666666666    0.08333333333334             4
   -0.36363636363637    0.41666666666666    0.08333333333334             4
   -0.27272727272727    0.41666666666666    0.08333333333333             4
   -0.18181818181818    0.41666666666666    0.08333333333333             4
   -0.09090909090909    0.41666666666666    0.08333333333333             4
    0.00000000000000    0.50000000000000    0.08333333333333             4
    0.09090909090909    0.50000000000000    0.08333333333333             4
    0.18181818181818    0.50000000000000    0.08333333333333             4
    0.27272727272727    0.50000000000000    0.08333333333334             4
    0.36363636363637    0.50000000000000    0.08333333333334             4
    0.45454545454545    0.50000000000000    0.08333333333333             4
   -0.45454545454545    0.50000000000000    0.08333333333333             4
   -0.36363636363637    0.50000000000000    0.08333333333333             4
   -0.27272727272727    0.50000000000000    0.08333333333333             4
   -0.18181818181818    0.50000000000000    0.08333333333333             4
   -0.09090909090909    0.50000000000000    0.08333333333333             4
   -0.00000000000000   -0.41666666666666    0.08333333333334             4
    0.09090909090909   -0.41666666666666    0.08333333333333             4
    0.18181818181818   -0.41666666666666    0.08333333333333             4
    0.27272727272727   -0.41666666666666    0.08333333333333             4
    0.36363636363637   -0.41666666666666    0.08333333333334             4
    0.45454545454545   -0.41666666666666    0.08333333333334             4
   -0.45454545454545   -0.41666666666666    0.08333333333333             4
   -0.36363636363637   -0.41666666666666    0.08333333333333             4
   -0.27272727272727   -0.41666666666666    0.08333333333333             4
   -0.18181818181818   -0.41666666666666    0.08333333333333             4
   -0.09090909090909   -0.41666666666666    0.08333333333333             4
   -0.00000000000000   -0.33333333333334    0.08333333333333             4
    0.09090909090909   -0.33333333333334    0.08333333333334             4
    0.18181818181818   -0.33333333333334    0.08333333333334             4
    0.27272727272727   -0.33333333333334    0.08333333333333             4
    0.36363636363637   -0.33333333333334    0.08333333333333             4
    0.45454545454545   -0.33333333333334    0.08333333333333             4
   -0.45454545454545   -0.33333333333334    0.08333333333334             4
   -0.36363636363637   -0.33333333333334    0.08333333333334             4
   -0.27272727272727   -0.33333333333334    0.08333333333333             4
   -0.18181818181818   -0.33333333333334    0.08333333333333             4
   -0.09090909090909   -0.33333333333334    0.08333333333333             4
    0.00000000000000   -0.25000000000000    0.08333333333333             4
    0.09090909090909   -0.25000000000000    0.08333333333333             4
    0.18181818181818   -0.25000000000000    0.08333333333333             4
    0.27272727272727   -0.25000000000000    0.08333333333334             4
    0.36363636363637   -0.25000000000000    0.08333333333334             4
    0.45454545454545   -0.25000000000000    0.08333333333333             4
   -0.45454545454545   -0.25000000000000    0.08333333333333             4
   -0.36363636363637   -0.25000000000000    0.08333333333333             4
   -0.27272727272727   -0.25000000000000    0.08333333333333             4
   -0.18181818181818   -0.25000000000000    0.08333333333333             4
   -0.09090909090909   -0.25000000000000    0.08333333333333             4
    0.00000000000000   -0.16666666666666    0.08333333333334             4
    0.09090909090909   -0.16666666666666    0.08333333333333             4
    0.18181818181818   -0.16666666666666    0.08333333333333             4
    0.27272727272727   -0.16666666666666    0.08333333333333             4
    0.36363636363637   -0.16666666666666    0.08333333333334             4
    0.45454545454545   -0.16666666666666    0.08333333333334             4
   -0.45454545454545   -0.16666666666666    0.08333333333333             4
   -0.36363636363637   -0.16666666666666    0.08333333333333             4
   -0.27272727272727   -0.16666666666666    0.08333333333333             4
   -0.18181818181818   -0.16666666666666    0.08333333333333             4
   -0.09090909090909   -0.16666666666666    0.08333333333333             4
    0.00000000000000   -0.08333333333334    0.08333333333333             2
    0.09090909090909   -0.08333333333334    0.08333333333334             4
    0.18181818181818   -0.08333333333334    0.08333333333334             4
    0.27272727272727   -0.08333333333334    0.08333333333333             4
    0.36363636363637   -0.08333333333334    0.08333333333333             4
    0.45454545454545   -0.08333333333334    0.08333333333333             4
   -0.00000000000000    0.16666666666666    0.16666666666666             2
    0.09090909090909    0.16666666666666    0.16666666666667             2
    0.18181818181818    0.16666666666666    0.16666666666667             2
    0.27272727272727    0.16666666666666    0.16666666666667             2
    0.36363636363637    0.16666666666666    0.16666666666667             2
    0.45454545454545    0.16666666666666    0.16666666666666             2
   -0.45454545454545    0.16666666666666    0.16666666666667             2
   -0.36363636363637    0.16666666666666    0.16666666666667             2
   -0.27272727272727    0.16666666666666    0.16666666666667             2
   -0.18181818181818    0.16666666666666    0.16666666666666             2
   -0.09090909090909    0.16666666666666    0.16666666666666             2
   -0.00000000000000    0.25000000000000    0.16666666666667             4
    0.09090909090909    0.25000000000000    0.16666666666666             4
    0.18181818181818    0.25000000000000    0.16666666666666             4
    0.27272727272727    0.25000000000000    0.16666666666667             4
    0.36363636363637    0.25000000000000    0.16666666666667             4
    0.45454545454545    0.25000000000000    0.16666666666667             4
   -0.45454545454545    0.25000000000000    0.16666666666666             4
   -0.36363636363637    0.25000000000000    0.16666666666667             4
   -0.27272727272727    0.25000000000000    0.16666666666666             4
   -0.18181818181818    0.25000000000000    0.16666666666667             4
   -0.09090909090909    0.25000000000000    0.16666666666667             4
   -0.00000000000000    0.33333333333334    0.16666666666667             4
    0.09090909090909    0.33333333333334    0.16666666666667             4
    0.18181818181818    0.33333333333334    0.16666666666667             4
    0.27272727272727    0.33333333333334    0.16666666666666             4
    0.36363636363637    0.33333333333334    0.16666666666667             4
    0.45454545454545    0.33333333333334    0.16666666666667             4
   -0.45454545454545    0.33333333333334    0.16666666666667             4
   -0.36363636363637    0.33333333333334    0.16666666666667             4
   -0.27272727272727    0.33333333333334    0.16666666666667             4
   -0.18181818181818    0.33333333333334    0.16666666666666             4
   -0.09090909090909    0.33333333333334    0.16666666666667             4
    0.00000000000000    0.41666666666666    0.16666666666666             4
    0.09090909090909    0.41666666666666    0.16666666666667             4
    0.18181818181818    0.41666666666666    0.16666666666667             4
    0.27272727272727    0.41666666666666    0.16666666666667             4
    0.36363636363637    0.41666666666666    0.16666666666667             4
    0.45454545454545    0.41666666666666    0.16666666666666             4
   -0.45454545454545    0.41666666666666    0.16666666666667             4
   -0.36363636363637    0.41666666666666    0.16666666666667             4
   -0.27272727272727    0.41666666666666    0.16666666666667             4
   -0.18181818181818    0.41666666666666    0.16666666666666             4
   -0.09090909090909    0.41666666666666    0.16666666666666             4
   -0.00000000000000    0.50000000000000    0.16666666666667             4
    0.09090909090909    0.50000000000000    0.16666666666666             4
    0.18181818181818    0.50000000000000    0.16666666666666             4
    0.27272727272727    0.50000000000000    0.16666666666667             4
    0.36363636363637    0.50000000000000    0.16666666666667             4
    0.45454545454545    0.50000000000000    0.16666666666667             4
   -0.45454545454545    0.50000000000000    0.16666666666666             4
   -0.36363636363637    0.50000000000000    0.16666666666667             4
   -0.27272727272727    0.50000000000000    0.16666666666666             4
   -0.18181818181818    0.50000000000000    0.16666666666667             4
   -0.09090909090909    0.50000000000000    0.16666666666667             4
   -0.00000000000000   -0.41666666666666    0.16666666666667             4
    0.09090909090909   -0.41666666666666    0.16666666666667             4
    0.18181818181818   -0.41666666666666    0.16666666666667             4
    0.27272727272727   -0.41666666666666    0.16666666666666             4
    0.36363636363637   -0.41666666666666    0.16666666666666             4
    0.45454545454545   -0.41666666666666    0.16666666666667             4
   -0.45454545454545   -0.41666666666666    0.16666666666667             4
   -0.36363636363637   -0.41666666666666    0.16666666666667             4
   -0.27272727272727   -0.41666666666666    0.16666666666667             4
   -0.18181818181818   -0.41666666666666    0.16666666666666             4
   -0.09090909090909   -0.41666666666666    0.16666666666667             4
   -0.00000000000000   -0.33333333333334    0.16666666666666             4
    0.09090909090909   -0.33333333333334    0.16666666666667             4
    0.18181818181818   -0.33333333333334    0.16666666666667             4
    0.27272727272727   -0.33333333333334    0.16666666666667             4
    0.36363636363637   -0.33333333333334    0.16666666666667             4
    0.45454545454545   -0.33333333333334    0.16666666666666             4
   -0.45454545454545   -0.33333333333334    0.16666666666667             4
   -0.36363636363637   -0.33333333333334    0.16666666666667             4
   -0.27272727272727   -0.33333333333334    0.16666666666667             4
   -0.18181818181818   -0.33333333333334    0.16666666666666             4
   -0.09090909090909   -0.33333333333334    0.16666666666666             4
   -0.00000000000000   -0.25000000000000    0.16666666666667             4
    0.09090909090909   -0.25000000000000    0.16666666666666             4
    0.18181818181818   -0.25000000000000    0.16666666666666             4
    0.27272727272727   -0.25000000000000    0.16666666666667             4
    0.36363636363637   -0.25000000000000    0.16666666666667             4
    0.45454545454545   -0.25000000000000    0.16666666666667             4
   -0.45454545454545   -0.25000000000000    0.16666666666666             4
   -0.36363636363637   -0.25000000000000    0.16666666666667             4
   -0.27272727272727   -0.25000000000000    0.16666666666666             4
   -0.18181818181818   -0.25000000000000    0.16666666666667             4
   -0.09090909090909   -0.25000000000000    0.16666666666667             4
    0.00000000000000   -0.16666666666666    0.16666666666667             2
    0.09090909090909   -0.16666666666666    0.16666666666667             4
    0.18181818181818   -0.16666666666666    0.16666666666667             4
    0.27272727272727   -0.16666666666666    0.16666666666666             4
    0.36363636363637   -0.16666666666666    0.16666666666667             4
    0.45454545454545   -0.16666666666666    0.16666666666667             4
   -0.00000000000000    0.25000000000000    0.25000000000000             2
    0.09090909090909    0.25000000000000    0.25000000000000             2
    0.18181818181818    0.25000000000000    0.25000000000000             2
    0.27272727272727    0.25000000000000    0.25000000000000             2
    0.36363636363637    0.25000000000000    0.25000000000000             2
    0.45454545454545    0.25000000000000    0.25000000000000             2
   -0.45454545454545    0.25000000000000    0.25000000000000             2
   -0.36363636363637    0.25000000000000    0.25000000000000             2
   -0.27272727272727    0.25000000000000    0.25000000000000             2
   -0.18181818181818    0.25000000000000    0.25000000000000             2
   -0.09090909090909    0.25000000000000    0.25000000000000             2
    0.00000000000000    0.33333333333334    0.25000000000000             4
    0.09090909090909    0.33333333333334    0.25000000000000             4
    0.18181818181818    0.33333333333334    0.25000000000000             4
    0.27272727272727    0.33333333333334    0.25000000000000             4
    0.36363636363637    0.33333333333334    0.25000000000001             4
    0.45454545454545    0.33333333333334    0.24999999999999             4
   -0.45454545454545    0.33333333333334    0.25000000000000             4
   -0.36363636363637    0.33333333333334    0.25000000000000             4
   -0.27272727272727    0.33333333333334    0.25000000000000             4
   -0.18181818181818    0.33333333333334    0.25000000000000             4
   -0.09090909090909    0.33333333333334    0.25000000000000             4
   -0.00000000000000    0.41666666666666    0.25000000000000             4
    0.09090909090909    0.41666666666666    0.25000000000000             4
    0.18181818181818    0.41666666666666    0.25000000000000             4
    0.27272727272727    0.41666666666666    0.25000000000000             4
    0.36363636363637    0.41666666666666    0.25000000000000             4
    0.45454545454545    0.41666666666666    0.25000000000000             4
   -0.45454545454545    0.41666666666666    0.25000000000000             4
   -0.36363636363637    0.41666666666666    0.25000000000000             4
   -0.27272727272727    0.41666666666666    0.25000000000000             4
   -0.18181818181818    0.41666666666666    0.25000000000000             4
   -0.09090909090909    0.41666666666666    0.25000000000000             4
   -0.00000000000000    0.50000000000000    0.25000000000000             4
    0.09090909090909    0.50000000000000    0.25000000000000             4
    0.18181818181818    0.50000000000000    0.25000000000000             4
    0.27272727272727    0.50000000000000    0.25000000000000             4
    0.36363636363637    0.50000000000000    0.25000000000000             4
    0.45454545454545    0.50000000000000    0.25000000000000             4
   -0.45454545454545    0.50000000000000    0.25000000000000             4
   -0.36363636363637    0.50000000000000    0.25000000000000             4
   -0.27272727272727    0.50000000000000    0.25000000000000             4
   -0.18181818181818    0.50000000000000    0.25000000000000             4
   -0.09090909090909    0.50000000000000    0.25000000000000             4
    0.00000000000000   -0.41666666666666    0.25000000000000             4
    0.09090909090909   -0.41666666666666    0.25000000000000             4
    0.18181818181818   -0.41666666666666    0.25000000000000             4
    0.27272727272727   -0.41666666666666    0.25000000000000             4
    0.36363636363637   -0.41666666666666    0.25000000000001             4
    0.45454545454545   -0.41666666666666    0.24999999999999             4
   -0.45454545454545   -0.41666666666666    0.25000000000000             4
   -0.36363636363637   -0.41666666666666    0.25000000000000             4
   -0.27272727272727   -0.41666666666666    0.25000000000000             4
   -0.18181818181818   -0.41666666666666    0.25000000000000             4
   -0.09090909090909   -0.41666666666666    0.25000000000000             4
    0.00000000000000   -0.33333333333334    0.25000000000000             4
    0.09090909090909   -0.33333333333334    0.25000000000000             4
    0.18181818181818   -0.33333333333334    0.25000000000000             4
    0.27272727272727   -0.33333333333334    0.25000000000000             4
    0.36363636363637   -0.33333333333334    0.25000000000000             4
    0.45454545454545   -0.33333333333334    0.25000000000000             4
   -0.45454545454545   -0.33333333333334    0.25000000000000             4
   -0.36363636363637   -0.33333333333334    0.25000000000000             4
   -0.27272727272727   -0.33333333333334    0.25000000000000             4
   -0.18181818181818   -0.33333333333334    0.25000000000000             4
   -0.09090909090909   -0.33333333333334    0.25000000000000             4
    0.00000000000000   -0.25000000000000    0.25000000000000             2
    0.09090909090909   -0.25000000000000    0.25000000000000             4
    0.18181818181818   -0.25000000000000    0.25000000000000             4
    0.27272727272727   -0.25000000000000    0.25000000000000             4
    0.36363636363637   -0.25000000000000    0.25000000000000             4
    0.45454545454545   -0.25000000000000    0.25000000000000             4
   -0.00000000000000    0.33333333333334    0.33333333333334             2
    0.09090909090909    0.33333333333334    0.33333333333333             2
    0.18181818181818    0.33333333333334    0.33333333333333             2
    0.27272727272727    0.33333333333334    0.33333333333333             2
    0.36363636363637    0.33333333333334    0.33333333333334             2
    0.45454545454545    0.33333333333334    0.33333333333334             2
   -0.45454545454545    0.33333333333334    0.33333333333333             2
   -0.36363636363637    0.33333333333334    0.33333333333333             2
   -0.27272727272727    0.33333333333334    0.33333333333334             2
   -0.18181818181818    0.33333333333334    0.33333333333333             2
   -0.09090909090909    0.33333333333334    0.33333333333333             2
   -0.00000000000000    0.41666666666666    0.33333333333333             4
    0.09090909090909    0.41666666666666    0.33333333333334             4
    0.18181818181818    0.41666666666666    0.33333333333334             4
    0.27272727272727    0.41666666666666    0.33333333333333             4
    0.36363636363637    0.41666666666666    0.33333333333333             4
    0.45454545454545    0.41666666666666    0.33333333333333             4
   -0.45454545454545    0.41666666666666    0.33333333333334             4
   -0.36363636363637    0.41666666666666    0.33333333333334             4
   -0.27272727272727    0.41666666666666    0.33333333333333             4
   -0.18181818181818    0.41666666666666    0.33333333333333             4
   -0.09090909090909    0.41666666666666    0.33333333333333             4
    0.00000000000000    0.50000000000000    0.33333333333333             4
    0.09090909090909    0.50000000000000    0.33333333333333             4
    0.18181818181818    0.50000000000000    0.33333333333333             4
    0.27272727272727    0.50000000000000    0.33333333333334             4
    0.36363636363637    0.50000000000000    0.33333333333334             4
    0.45454545454545    0.50000000000000    0.33333333333333             4
   -0.45454545454545    0.50000000000000    0.33333333333333             4
   -0.36363636363637    0.50000000000000    0.33333333333333             4
   -0.27272727272727    0.50000000000000    0.33333333333333             4
   -0.18181818181818    0.50000000000000    0.33333333333333             4
   -0.09090909090909    0.50000000000000    0.33333333333333             4
    0.00000000000000   -0.41666666666666    0.33333333333334             4
    0.09090909090909   -0.41666666666666    0.33333333333333             4
    0.18181818181818   -0.41666666666666    0.33333333333333             4
    0.27272727272727   -0.41666666666666    0.33333333333333             4
    0.36363636363637   -0.41666666666666    0.33333333333334             4
    0.45454545454545   -0.41666666666666    0.33333333333334             4
   -0.45454545454545   -0.41666666666666    0.33333333333333             4
   -0.36363636363637   -0.41666666666666    0.33333333333333             4
   -0.27272727272727   -0.41666666666666    0.33333333333334             4
   -0.18181818181818   -0.41666666666666    0.33333333333333             4
   -0.09090909090909   -0.41666666666666    0.33333333333333             4
   -0.00000000000000   -0.33333333333334    0.33333333333333             2
    0.09090909090909   -0.33333333333334    0.33333333333334             4
    0.18181818181818   -0.33333333333334    0.33333333333334             4
    0.27272727272727   -0.33333333333334    0.33333333333333             4
    0.36363636363637   -0.33333333333334    0.33333333333333             4
    0.45454545454545   -0.33333333333334    0.33333333333333             4