       N       E                     dE             d eps       ncg     rms          rms(c)
DAV:   1     0.448417684622E+02    0.44842E+02   -0.55838E+03 20856   0.102E+03
DAV:   2    -0.946410185202E+01   -0.54306E+02   -0.52249E+02 24996   0.224E+02
DAV:   3    -0.152205261230E+02   -0.57564E+01   -0.57161E+01 39320   0.531E+01
DAV:   4    -0.152680519677E+02   -0.47526E-01   -0.47517E-01 23976   0.649E+00
DAV:   5    -0.152684532963E+02   -0.40133E-03   -0.40132E-03 29372   0.463E-01    0.116E+01
RMM:   6    -0.141520964943E+02    0.11164E+01   -0.36941E+00 22846   0.126E+01    0.506E+00
RMM:   7    -0.142415937660E+02   -0.89497E-01   -0.14526E-01 25434   0.312E+00    0.201E+00
RMM:   8    -0.142389135788E+02    0.26802E-02   -0.59071E-02 29128   0.241E+00    0.115E+00
RMM:   9    -0.142518952130E+02   -0.12982E-01   -0.31682E-02 29781   0.201E+00    0.260E-01
RMM:  10    -0.142527456897E+02   -0.85048E-03   -0.95396E-03 34484   0.730E-01    0.151E-01
RMM:  11    -0.142538981294E+02   -0.11524E-02   -0.61820E-03 32498   0.612E-01    0.194E-01
RMM:  12    -0.142536039142E+02    0.29422E-03   -0.17703E-03 33571   0.332E-01    0.854E-02
RMM:  13    -0.142536015053E+02    0.24089E-05   -0.86106E-04 33566   0.228E-01    0.206E-02
RMM:  14    -0.142536466826E+02   -0.45177E-04   -0.37076E-04 33353   0.126E-01    0.256E-02
RMM:  15    -0.142536686883E+02   -0.22006E-04   -0.13552E-04 30271   0.808E-02    0.360E-02
RMM:  16    -0.142536667381E+02    0.19502E-05   -0.62068E-05 28025   0.583E-02
   1 F= -.14253667E+02 E0= -.14253667E+02  d E =0.000000E+00  mag=    -0.0000
