       N       E                     dE             d eps       ncg     rms          rms(c)
DAV:   1     0.479015324420E+02    0.47902E+02   -0.51899E+03  4616   0.777E+02
DAV:   2    -0.105665165924E+02   -0.58468E+02   -0.55598E+02  6312   0.198E+02
DAV:   3    -0.152233253780E+02   -0.46568E+01   -0.46249E+01  6800   0.419E+01
DAV:   4    -0.153244421322E+02   -0.10112E+00   -0.10110E+00  5480   0.697E+00
DAV:   5    -0.153254757825E+02   -0.10337E-02   -0.10336E-02  6096   0.573E-01    0.116E+01
RMM:   6    -0.142102916748E+02    0.11152E+01   -0.19841E+00  5105   0.800E+00    0.495E+00
RMM:   7    -0.143195314376E+02   -0.10924E+00   -0.55694E-02  5877   0.160E+00    0.210E+00
RMM:   8    -0.143255185805E+02   -0.59871E-02   -0.30566E-02  6350   0.142E+00    0.116E+00
RMM:   9    -0.143375432469E+02   -0.12025E-01   -0.23930E-02  6464   0.136E+00    0.237E-01
RMM:  10    -0.143382479188E+02   -0.70467E-03   -0.39893E-03  7130   0.450E-01    0.138E-01
RMM:  11    -0.143389765868E+02   -0.72867E-03   -0.32784E-03  6695   0.382E-01    0.189E-01
RMM:  12    -0.143387466067E+02    0.22998E-03   -0.83187E-04  6846   0.207E-01    0.840E-02
RMM:  13    -0.143387034914E+02    0.43115E-04   -0.44451E-04  7074   0.150E-01    0.166E-02
RMM:  14    -0.143387245298E+02   -0.21038E-04   -0.15022E-04  6602   0.782E-02    0.177E-02
RMM:  15    -0.143387328312E+02   -0.83014E-05   -0.60815E-05  6256   0.498E-02
   1 F= -.14338733E+02 E0= -.14338733E+02  d E =0.000000E+00  mag=     0.0002
