 running on   48 total cores
 distrk:  each k-point on   48 cores,    1 groups
 distr:  one band on    6 cores,    8 groups
 using from now: INCAR     
 vasp.6.1.2 22Jul20 (build Mar 31 2021 18:09:49) complex                        
  
 POSCAR found type information on POSCAR LiP O 
 POSCAR found :  3 types and     100 ions
 scaLAPACK will be used
 LDA part: xc-table for Pade appr. of Perdew
 generate k-points for:    6    3    2
 POSCAR, INCAR and KPOINTS ok, starting setup
 FFT: planning ...
 WAVECAR not read
 entering main loop
       N       E                     dE             d eps       ncg     rms          rms(c)
DAV:   1     0.449537267239E+04    0.44954E+04   -0.25660E+05 27520   0.151E+03
DAV:   2    -0.263622028942E+03   -0.47590E+04   -0.45124E+04 32576   0.386E+02
DAV:   3    -0.714364927672E+03   -0.45074E+03   -0.44749E+03 34256   0.128E+02
DAV:   4    -0.744800872905E+03   -0.30436E+02   -0.30295E+02 47544   0.265E+01
DAV:   5    -0.751172399893E+03   -0.63715E+01   -0.63681E+01 44512   0.730E+00    0.107E+02
DAV:   6    -0.573848479538E+03    0.17732E+03   -0.43573E+02 33304   0.390E+01    0.574E+01
DAV:   7    -0.598645524727E+03   -0.24797E+02   -0.63053E+01 34208   0.139E+01    0.206E+01
DAV:   8    -0.614939225011E+03   -0.16294E+02   -0.12069E+01 33760   0.676E+00    0.120E+01
DAV:   9    -0.636228609936E+03   -0.21289E+02   -0.10636E+01 33624   0.546E+00    0.725E+00
DAV:  10    -0.659733830968E+03   -0.23505E+02   -0.22026E+01 33872   0.665E+00    0.404E+00
DAV:  11    -0.669857072650E+03   -0.10123E+02   -0.12204E+01 34392   0.480E+00    0.271E+00
DAV:  12    -0.671862031237E+03   -0.20050E+01   -0.29534E+00 33824   0.272E+00    0.169E+00
DAV:  13    -0.672001113349E+03   -0.13908E+00   -0.38288E-01 32784   0.113E+00    0.912E-01
DAV:  14    -0.672017669895E+03   -0.16557E-01   -0.62342E-02 35272   0.543E-01    0.543E-01
DAV:  15    -0.672015707927E+03    0.19620E-02   -0.14187E-02 30920   0.278E-01    0.258E-01
DAV:  16    -0.672016530910E+03   -0.82298E-03   -0.42940E-03 38048   0.149E-01    0.962E-02
DAV:  17    -0.672016941225E+03   -0.41032E-03   -0.14909E-03 33064   0.804E-02    0.517E-02
DAV:  18    -0.672017066324E+03   -0.12510E-03   -0.22989E-04 34168   0.371E-02    0.272E-02
DAV:  19    -0.672017092782E+03   -0.26458E-04   -0.50257E-05 27424   0.165E-02    0.130E-02
DAV:  20    -0.672017099289E+03   -0.65070E-05   -0.13008E-05 22448   0.943E-03
   1 F= -.67201710E+03 E0= -.67201710E+03  d E =0.000000E+00  mag=     0.0000
