 running on    8 total cores
 distrk:  each k-point on    8 cores,    1 groups
 distr:  one band on    1 cores,    8 groups
 using from now: INCAR     
 vasp.6.1.2 22Jul20 (build Mar 20 2021 11:25:07) complex                        
  
 POSCAR found type information on POSCAR P N 
 POSCAR found :  2 types and      16 ions
 scaLAPACK will be used
 -----------------------------------------------------------------------------
|                                                                             |
|           W    W    AA    RRRRR   N    N  II  N    N   GGGG   !!!           |
|           W    W   A  A   R    R  NN   N  II  NN   N  G    G  !!!           |
|           W    W  A    A  R    R  N N  N  II  N N  N  G       !!!           |
|           W WW W  AAAAAA  RRRRR   N  N N  II  N  N N  G  GGG   !            |
|           WW  WW  A    A  R   R   N   NN  II  N   NN  G    G                |
|           W    W  A    A  R    R  N    N  II  N    N   GGGG   !!!           |
|                                                                             |
|     The value NCORE = 6 specified in the INCAR file was overwritten,        |
|     because it was not compatible with the 8 processes available:           |
|     NCORE = 1                                                               |
|     was used instead, please check that this makes sense for your           |
|     machine.                                                                |
|                                                                             |
 -----------------------------------------------------------------------------

 -----------------------------------------------------------------------------
|                                                                             |
|           W    W    AA    RRRRR   N    N  II  N    N   GGGG   !!!           |
|           W    W   A  A   R    R  NN   N  II  NN   N  G    G  !!!           |
|           W    W  A    A  R    R  N N  N  II  N N  N  G       !!!           |
|           W WW W  AAAAAA  RRRRR   N  N N  II  N  N N  G  GGG   !            |
|           WW  WW  A    A  R   R   N   NN  II  N   NN  G    G                |
|           W    W  A    A  R    R  N    N  II  N    N   GGGG   !!!           |
|                                                                             |
|     For optimal performance we recommend to set                             |
|       NCORE = 4 - approx SQRT(number of cores).                             |
|     NCORE specifies how many cores store one orbital (NPAR=cpu/NCORE).      |
|     This setting can greatly improve the performance of VASP for DFT.       |
|     The default, NCORE=1 might be grossly inefficient on modern             |
|     multi-core architectures or massively parallel machines. Do your        |
|     own testing!!!!                                                         |
|     Unfortunately you need to use the default for GW and RPA                |
|     calculations (for HF NCORE is supported but not extensively tested      |
|     yet).                                                                   |
|                                                                             |
 -----------------------------------------------------------------------------

 LDA part: xc-table for Pade appr. of Perdew
 generate k-points for:    7    7    4
 POSCAR, INCAR and KPOINTS ok, starting setup
 FFT: planning ...
 WAVECAR not read
 entering main loop
       N       E                     dE             d eps       ncg     rms          rms(c)
DAV:   1     0.465994256401E+03    0.46599E+03   -0.40605E+04 13440   0.132E+03
DAV:   2    -0.102747770479E+03   -0.56874E+03   -0.54357E+03 17048   0.305E+02
DAV:   3    -0.137895762120E+03   -0.35148E+02   -0.34869E+02 16792   0.803E+01
DAV:   4    -0.138496446709E+03   -0.60068E+00   -0.59824E+00 17368   0.111E+01
DAV:   5    -0.138512171761E+03   -0.15725E-01   -0.15709E-01 16408   0.168E+00    0.499E+01
DAV:   6    -0.118014990642E+03    0.20497E+02   -0.64309E+01 15928   0.313E+01    0.252E+01
DAV:   7    -0.119637157442E+03   -0.16222E+01   -0.10210E+01 16360   0.114E+01    0.791E+00
DAV:   8    -0.119569026214E+03    0.68131E-01   -0.60046E-01 15848   0.341E+00    0.482E+00
DAV:   9    -0.119568733386E+03    0.29283E-03   -0.66841E-02 16536   0.125E+00    0.228E+00
DAV:  10    -0.119567348904E+03    0.13845E-02   -0.27468E-02 15728   0.811E-01    0.480E-01
DAV:  11    -0.119570315140E+03   -0.29662E-02   -0.50232E-03 15576   0.370E-01    0.249E-01
DAV:  12    -0.119570883773E+03   -0.56863E-03   -0.44513E-04 16488   0.120E-01    0.139E-01
DAV:  13    -0.119571217141E+03   -0.33337E-03   -0.30216E-04 16096   0.830E-02    0.563E-02
DAV:  14    -0.119571286259E+03   -0.69118E-04   -0.40108E-05 14096   0.330E-02    0.182E-02
DAV:  15    -0.119571304063E+03   -0.17804E-04   -0.15919E-05 11400   0.192E-02    0.889E-03
DAV:  16    -0.119571308257E+03   -0.41936E-05   -0.44856E-06 11176   0.102E-02
   1 F= -.11957131E+03 E0= -.11957131E+03  d E =0.000000E+00  mag=    -0.0005
