    9    9    1    2
  0.1016684E+02  0.4551638E-09  0.5112339E-09  0.5112339E-09  0.5000000E-15
  1.000000000000000E-004
  CAR 
 unknown system                          
     51    128     34
 
  0.0000000E+00  0.0000000E+00  0.0000000E+00  0.2267574E-02
    1      -42.948756    -42.948251   1.000000   1.000000
    2      -28.536797    -28.571248   1.000000   1.000000
    3      -27.430014    -27.392075   1.000000   1.000000
    4      -27.410061    -27.370543   1.000000   1.000000
    5      -26.624995    -26.698229   1.000000   1.000000
    6      -12.750842    -12.752288   1.000000   1.000000
    7      -12.382604    -12.409980   1.000000   1.000000
    8      -12.284279    -12.294162   1.000000   1.000000
    9      -11.357081    -11.364183   1.000000   1.000000
   10       -8.825098     -8.828936   1.000000   1.000000
   11       -8.497559     -8.516827   1.000000   1.000000
   12       -7.974998     -7.960401   1.000000   1.000000
   13       -7.790873     -7.793352   1.000000   1.000000
   14       -7.241969     -7.276916   1.000000   1.000000
   15       -6.014895     -6.038778   1.000000   1.000000
   16       -5.927613     -5.870920   1.000000   1.000000
   17       -5.767492     -5.820125   1.000000   1.000000
   18       -4.994558     -5.045682   1.000000   1.000000
   19       -4.994492     -4.979492   1.000000   1.000000
   20       -4.850378     -4.859922   1.000000   1.000000
   21       -4.821318     -4.833055   1.000000   1.000000
   22       -0.028345     -0.023032   1.000000   1.000000
   23        0.073296      0.038585   1.000000   1.000000
   24        0.718250      0.734561   1.000000   1.000000
   25        1.650399      1.610776   1.000000   1.000000
   26        3.133716      3.059659   0.000000   0.000000
   27        3.137223      3.133717   0.000000   0.000000
   28        3.267644      3.264267   0.000000   0.000000
   29        3.540377      3.551426   0.000000   0.000000
   30        9.914829      9.907815   0.000000   0.000000
   31       11.029819     11.056037   0.000000   0.000000
   32       11.564719     11.522369   0.000000   0.000000
   33       12.688641     12.682029   0.000000   0.000000
   34       13.577497     13.583969   0.000000   0.000000
 
  0.1111111E+00  0.6556975E-17 -0.6096674E-14  0.4535147E-02
    1      -42.948659    -42.948153   1.000000   1.000000
    2      -28.535039    -28.569586   1.000000   1.000000
    3      -27.431601    -27.391753   1.000000   1.000000
    4      -27.409798    -27.372128   1.000000   1.000000
    5      -26.626202    -26.699408   1.000000   1.000000
    6      -12.856706    -12.860884   1.000000   1.000000
    7      -12.336391    -12.370023   1.000000   1.000000
    8      -12.248758    -12.247499   1.000000   1.000000
    9      -11.337634    -11.346988   1.000000   1.000000
   10       -8.826211     -8.829777   1.000000   1.000000
   11       -8.520539     -8.540001   1.000000   1.000000
   12       -7.956600     -7.940103   1.000000   1.000000
   13       -7.643176     -7.647378   1.000000   1.000000
   14       -7.240413     -7.275133   1.000000   1.000000
   15       -6.146758     -6.183634   1.000000   1.000000
   16       -5.985950     -5.929424   1.000000   1.000000
   17       -5.721456     -5.760030   1.000000   1.000000
   18       -4.998573     -5.049589   1.000000   1.000000
   19       -4.989536     -4.974768   1.000000   1.000000
   20       -4.839790     -4.850097   1.000000   1.000000
   21       -4.815880     -4.827954   1.000000   1.000000
   22       -0.018848     -0.013368   1.000000   1.000000
   23        0.113785      0.079677   1.000000   1.000000
   24        0.719523      0.734304   1.000000   1.000000
   25        1.586119      1.547057   1.000000   1.000000
   26        3.116359      3.059276   0.000000   0.000000
   27        3.134146      3.115282   0.000000   0.000000
   28        3.270171      3.265955   0.000000   0.000000
   29        3.532867      3.543151   0.000000   0.000000
   30        9.871547      9.864786   0.000000   0.000000
   31       11.288795     11.313811   0.000000   0.000000
   32       11.673771     11.638118   0.000000   0.000000
   33       12.506998     12.493586   0.000000   0.000000
   34       13.386338     13.311019   0.000000   0.000000
 
  0.2222222E+00 -0.1106031E-16  0.3370066E-14  0.4535147E-02
    1      -42.948437    -42.947929   1.000000   1.000000
    2      -28.530534    -28.565327   1.000000   1.000000
    3      -27.435843    -27.390804   1.000000   1.000000
    4      -27.408976    -27.376360   1.000000   1.000000
    5      -26.629275    -26.702381   1.000000   1.000000
    6      -13.101718    -13.108115   1.000000   1.000000
    7      -12.215578    -12.260354   1.000000   1.000000
    8      -12.143838    -12.125471   1.000000   1.000000
    9      -11.303484    -11.316805   1.000000   1.000000
   10       -8.837256     -8.840301   1.000000   1.000000
   11       -8.572633     -8.592590   1.000000   1.000000
   12       -7.947098     -7.929869   1.000000   1.000000
   13       -7.239330     -7.273091   1.000000   1.000000
   14       -7.231073     -7.235712   1.000000   1.000000
   15       -6.361097     -6.406771   1.000000   1.000000
   16       -6.146889     -6.091877   1.000000   1.000000
   17       -5.738608     -5.766271   1.000000   1.000000
   18       -5.008808     -5.059283   1.000000   1.000000
   19       -4.982514     -4.968590   1.000000   1.000000
   20       -4.810545     -4.821647   1.000000   1.000000
   21       -4.802784     -4.815376   1.000000   1.000000
   22        0.021571      0.027305   1.000000   1.000000
   23        0.238027      0.206114   1.000000   1.000000
   24        0.722888      0.733615   1.000000   1.000000
   25        1.425683      1.387317   1.000000   1.000000
   26        3.074673      3.059322   0.000000   0.000000
   27        3.136575      3.077459   0.000000   0.000000
   28        3.266175      3.262642   0.000000   0.000000
   29        3.512345      3.521101   0.000000   0.000000
   30        9.736003      9.730672   0.000000   0.000000
   31       11.492799     11.499480   0.000000   0.000000
   32       11.958018     11.977825   0.000000   0.000000
   33       12.110808     12.070293   0.000000   0.000000
   34       13.134337     13.144039   0.000000   0.000000
 
  0.3333333E+00 -0.4226932E-16 -0.2741413E-14  0.4535147E-02
    1      -42.948211    -42.947701   1.000000   1.000000
    2      -28.525634    -28.560723   1.000000   1.000000
    3      -27.440950    -27.390202   1.000000   1.000000
    4      -27.408563    -27.381453   1.000000   1.000000
    5      -26.633199    -26.706219   1.000000   1.000000
    6      -13.348257    -13.355189   1.000000   1.000000
    7      -12.070657    -12.107973   1.000000   1.000000
    8      -11.990747    -11.979021   1.000000   1.000000
    9      -11.304573    -11.318300   1.000000   1.000000
   10       -8.848521     -8.851182   1.000000   1.000000
   11       -8.618093     -8.638601   1.000000   1.000000
   12       -7.928653     -7.910466   1.000000   1.000000
   13       -7.252445     -7.283566   1.000000   1.000000
   14       -6.780420     -6.792546   1.000000   1.000000
   15       -6.520710     -6.564421   1.000000   1.000000
   16       -6.345353     -6.294491   1.000000   1.000000
   17       -5.854788     -5.875816   1.000000   1.000000
   18       -5.019840     -5.069578   1.000000   1.000000
   19       -4.979815     -4.966704   1.000000   1.000000
   20       -4.788644     -4.801480   1.000000   1.000000
   21       -4.776059     -4.787231   1.000000   1.000000
   22        0.095502      0.101480   1.000000   1.000000
   23        0.413225      0.385441   1.000000   1.000000
   24        0.724514      0.730085   1.000000   1.000000
   25        1.248020      1.209129   1.000000   1.000000
   26        3.037819      3.043119   0.000000   0.000000
   27        3.142940      3.061441   0.000000   0.000000
   28        3.251974      3.251958   0.000000   0.000000
   29        3.486034      3.494177   0.000000   0.000000
   30        9.535353      9.529325   0.000000   0.000000
   31       10.590674     10.593584   0.000000   0.000000
   32       12.227527     12.194824   0.000000   0.000000
   33       12.343898     12.340486   0.000000   0.000000
   34       13.153172     12.928221   0.000000   0.000000
 
  0.4444444E+00 -0.2212063E-16  0.6740132E-14  0.4535147E-02
    1      -42.948034    -42.947523   1.000000   1.000000
    2      -28.522126    -28.557409   1.000000   1.000000
    3      -27.443996    -27.389571   1.000000   1.000000
    4      -27.408060    -27.384494   1.000000   1.000000
    5      -26.635605    -26.708570   1.000000   1.000000
    6      -13.494820    -13.501822   1.000000   1.000000
    7      -11.970934    -11.977862   1.000000   1.000000
    8      -11.852892    -11.878215   1.000000   1.000000
    9      -11.348735    -11.355663   1.000000   1.000000
   10       -8.849190     -8.851762   1.000000   1.000000
   11       -8.636745     -8.657606   1.000000   1.000000
   12       -7.905452     -7.886443   1.000000   1.000000
   13       -7.280270     -7.307535   1.000000   1.000000
   14       -6.676259     -6.729255   1.000000   1.000000
   15       -6.474962     -6.429262   1.000000   1.000000
   16       -6.413938     -6.419865   1.000000   1.000000
   17       -5.973688     -5.991117   1.000000   1.000000
   18       -5.026516     -5.075749   1.000000   1.000000
   19       -4.978963     -4.966289   1.000000   1.000000
   20       -4.779673     -4.792577   1.000000   1.000000
   21       -4.753739     -4.764923   1.000000   1.000000
   22        0.162239      0.168633   1.000000   1.000000
   23        0.544214      0.520859   1.000000   1.000000
   24        0.719710      0.721327   1.000000   1.000000
   25        1.135913      1.095402   1.000000   1.000000
   26        3.017326      3.023569   0.000000   0.000000
   27        3.150540      3.064535   0.000000   0.000000
   28        3.239479      3.242940   0.000000   0.000000
   29        3.466351      3.475224   0.000000   0.000000
   30        9.344495      9.338051   0.000000   0.000000
   31       10.095971     10.098424   0.000000   0.000000
   32       12.028553     12.016420   0.000000   0.000000
   33       12.223345     12.212338   0.000000   0.000000
   34       12.951103     12.927205   0.000000   0.000000
 
  0.2723541E-17  0.1428571E+00 -0.2282925E-14  0.9070295E-02
    1      -42.948717    -42.948212   1.000000   1.000000
    2      -28.529813    -28.564825   1.000000   1.000000
    3      -27.457411    -27.413070   1.000000   1.000000
    4      -27.385704    -27.351361   1.000000   1.000000
    5      -26.631768    -26.705671   1.000000   1.000000
    6      -12.769323    -12.769036   1.000000   1.000000
    7      -12.370804    -12.417180   1.000000   1.000000
    8      -12.282020    -12.273997   1.000000   1.000000
    9      -11.360701    -11.368359   1.000000   1.000000
   10       -8.785094     -8.789951   1.000000   1.000000
   11       -8.473691     -8.491804   1.000000   1.000000
   12       -7.913949     -7.898480   1.000000   1.000000
   13       -7.727652     -7.732250   1.000000   1.000000
   14       -7.265406     -7.296835   1.000000   1.000000
   15       -6.085879     -6.110114   1.000000   1.000000
   16       -5.949076     -5.898013   1.000000   1.000000
   17       -5.753591     -5.800635   1.000000   1.000000
   18       -5.080388     -5.124019   1.000000   1.000000
   19       -5.031334     -5.028951   1.000000   1.000000
   20       -4.884601     -4.897081   1.000000   1.000000
   21       -4.806360     -4.812008   1.000000   1.000000
   22        0.006289      0.002513   1.000000   1.000000
   23        0.164922      0.141414   1.000000   1.000000
   24        0.788464      0.803897   1.000000   1.000000
   25        1.584140      1.549386   1.000000   1.000000
   26        2.993615      2.933196   0.000000   0.000000
   27        3.132265      3.108245   0.000000   0.000000
   28        3.265797      3.264402   0.000000   0.000000
   29        3.502826      3.511741   0.000000   0.000000
   30       10.027641     10.020021   0.000000   0.000000
   31       11.086266     11.110413   0.000000   0.000000
   32       11.553103     11.512718   0.000000   0.000000
   33       12.752231     12.749065   0.000000   0.000000
   34       13.601574     13.609044   0.000000   0.000000
 
  0.1111111E+00  0.1428571E+00  0.6172062E-14  0.9070295E-02
    1      -42.948669    -42.948163   1.000000   1.000000
    2      -28.529449    -28.564465   1.000000   1.000000
    3      -27.456919    -27.412961   1.000000   1.000000
    4      -27.385966    -27.351280   1.000000   1.000000
    5      -26.632865    -26.706728   1.000000   1.000000
    6      -12.787220    -12.791589   1.000000   1.000000
    7      -12.395068    -12.403063   1.000000   1.000000
    8      -12.249386    -12.275914   1.000000   1.000000
    9      -11.350685    -11.357670   1.000000   1.000000
   10       -8.785642     -8.790626   1.000000   1.000000
   11       -8.470040     -8.487987   1.000000   1.000000
   12       -7.925433     -7.910535   1.000000   1.000000
   13       -7.713550     -7.717116   1.000000   1.000000
   14       -7.261456     -7.292924   1.000000   1.000000
   15       -6.089556     -6.114470   1.000000   1.000000
   16       -5.934311     -5.880909   1.000000   1.000000
   17       -5.767124     -5.816581   1.000000   1.000000
   18       -5.092604     -5.134573   1.000000   1.000000
   19       -5.031203     -5.028283   1.000000   1.000000
   20       -4.877704     -4.891381   1.000000   1.000000
   21       -4.807088     -4.813426   1.000000   1.000000
   22        0.025665      0.021249   1.000000   1.000000
   23        0.183350      0.160245   1.000000   1.000000
   24        0.775735      0.789201   1.000000   1.000000
   25        1.574780      1.537460   1.000000   1.000000
   26        3.011065      2.956834   0.000000   0.000000
   27        3.103840      3.080552   0.000000   0.000000
   28        3.271334      3.270145   0.000000   0.000000
   29        3.503042      3.511159   0.000000   0.000000
   30       10.021698     10.014387   0.000000   0.000000
   31       11.043034     11.064090   0.000000   0.000000
   32       11.602877     11.567613   0.000000   0.000000
   33       12.678226     12.672481   0.000000   0.000000
   34       13.492255     13.489370   0.000000   0.000000
 
  0.2222222E+00  0.1428571E+00  0.1080889E-14  0.9070295E-02
    1      -42.948478    -42.947970   1.000000   1.000000
    2      -28.526180    -28.561369   1.000000   1.000000
    3      -27.458009    -27.413060   1.000000   1.000000
    4      -27.387023    -27.353261   1.000000   1.000000
    5      -26.635929    -26.709692   1.000000   1.000000
    6      -12.967170    -12.975255   1.000000   1.000000
    7      -12.357441    -12.353253   1.000000   1.000000
    8      -12.141747    -12.174819   1.000000   1.000000
    9      -11.318396    -11.327637   1.000000   1.000000
   10       -8.790425     -8.795243   1.000000   1.000000
   11       -8.502864     -8.520991   1.000000   1.000000
   12       -7.918602     -7.901732   1.000000   1.000000
   13       -7.419282     -7.424889   1.000000   1.000000
   14       -7.255373     -7.285579   1.000000   1.000000
   15       -6.282380     -6.319169   1.000000   1.000000
   16       -6.027406     -5.975214   1.000000   1.000000
   17       -5.755621     -5.791334   1.000000   1.000000
   18       -5.107144     -5.149764   1.000000   1.000000
   19       -5.021678     -5.017076   1.000000   1.000000
   20       -4.862292     -4.877481   1.000000   1.000000
   21       -4.792621     -4.800037   1.000000   1.000000
   22        0.077763      0.077985   1.000000   1.000000
   23        0.262228      0.236327   1.000000   1.000000
   24        0.768124      0.776839   1.000000   1.000000
   25        1.457133      1.418441   1.000000   1.000000
   26        2.999683      2.965713   0.000000   0.000000
   27        3.078385      3.042866   0.000000   0.000000
   28        3.271082      3.269085   0.000000   0.000000
   29        3.491288      3.497416   0.000000   0.000000
   30        9.930133      9.924258   0.000000   0.000000
   31       11.371923     11.381539   0.000000   0.000000
   32       11.849340     11.848113   0.000000   0.000000
   33       12.289020     12.262512   0.000000   0.000000
   34       13.011594     12.989532   0.000000   0.000000
 
  0.3333333E+00  0.1428571E+00 -0.5018327E-14  0.9070295E-02
    1      -42.948226    -42.947716   1.000000   1.000000
    2      -28.521422    -28.556881   1.000000   1.000000
    3      -27.460375    -27.413678   1.000000   1.000000
    4      -27.388340    -27.356175   1.000000   1.000000
    5      -26.639483    -26.713137   1.000000   1.000000
    6      -13.214245    -13.222344   1.000000   1.000000
    7      -12.241439    -12.235710   1.000000   1.000000
    8      -11.992203    -12.026206   1.000000   1.000000
    9      -11.307820    -11.317956   1.000000   1.000000
   10       -8.802892     -8.807520   1.000000   1.000000
   11       -8.547830     -8.566312   1.000000   1.000000
   12       -7.912938     -7.894984   1.000000   1.000000
   13       -7.257186     -7.287648   1.000000   1.000000
   14       -6.961318     -6.966861   1.000000   1.000000
   15       -6.470986     -6.511860   1.000000   1.000000
   16       -6.214297     -6.168044   1.000000   1.000000
   17       -5.836827     -5.862231   1.000000   1.000000
   18       -5.116708     -5.160141   1.000000   1.000000
   19       -5.012839     -5.007385   1.000000   1.000000
   20       -4.845788     -4.860999   1.000000   1.000000
   21       -4.768319     -4.776555   1.000000   1.000000
   22        0.154566      0.158512   1.000000   1.000000
   23        0.401602      0.376502   1.000000   1.000000
   24        0.770547      0.773603   1.000000   1.000000
   25        1.287369      1.247591   1.000000   1.000000
   26        2.967390      2.955670   0.000000   0.000000
   27        3.072395      3.017773   0.000000   0.000000
   28        3.260259      3.259042   0.000000   0.000000
   29        3.470683      3.475244   0.000000   0.000000
   30        9.759712      9.753778   0.000000   0.000000
   31       11.018133     11.023577   0.000000   0.000000
   32       11.935615     11.923875   0.000000   0.000000
   33       12.395177     12.361178   0.000000   0.000000
   34       12.856860     12.811049   0.000000   0.000000
 
  0.4444444E+00  0.1428571E+00  0.4456279E-14  0.9070295E-02
    1      -42.948058    -42.947546   1.000000   1.000000
    2      -28.517446    -28.553151   1.000000   1.000000
    3      -27.463061    -27.414601   1.000000   1.000000
    4      -27.389149    -27.358560   1.000000   1.000000
    5      -26.641992    -26.715593   1.000000   1.000000
    6      -13.407992    -13.415516   1.000000   1.000000
    7      -12.091718    -12.079774   1.000000   1.000000
    8      -11.861483    -11.907259   1.000000   1.000000
    9      -11.344827    -11.349916   1.000000   1.000000
   10       -8.807240     -8.811603   1.000000   1.000000
   11       -8.582902     -8.601902   1.000000   1.000000
   12       -7.882427     -7.863557   1.000000   1.000000
   13       -7.277866     -7.305409   1.000000   1.000000
   14       -6.659289     -6.701960   1.000000   1.000000
   15       -6.522487     -6.521072   1.000000   1.000000
   16       -6.400655     -6.371484   1.000000   1.000000
   17       -5.948049     -5.965274   1.000000   1.000000
   18       -5.114802     -5.158766   1.000000   1.000000
   19       -5.008622     -5.002928   1.000000   1.000000
   20       -4.834811     -4.849655   1.000000   1.000000
   21       -4.746514     -4.754821   1.000000   1.000000
   22        0.227295      0.232493   1.000000   1.000000
   23        0.537404      0.518277   1.000000   1.000000
   24        0.781150      0.779083   1.000000   1.000000
   25        1.148523      1.107100   1.000000   1.000000
   26        2.945237      2.939719   0.000000   0.000000
   27        3.075365      3.011138   0.000000   0.000000
   28        3.242049      3.242434   0.000000   0.000000
   29        3.447032      3.452258   0.000000   0.000000
   30        9.543212      9.536445   0.000000   0.000000
   31       10.359802     10.362786   0.000000   0.000000
   32       11.902981     11.893395   0.000000   0.000000
   33       12.359101     12.328534   0.000000   0.000000
   34       13.015514     12.961852   0.000000   0.000000
 
 -0.4444444E+00  0.1428571E+00  0.1447338E-14  0.9070295E-02
    1      -42.948034    -42.947522   1.000000   1.000000
    2      -28.516138    -28.551934   1.000000   1.000000
    3      -27.464630    -27.415359   1.000000   1.000000
    4      -27.389255    -27.359372   1.000000   1.000000
    5      -26.642269    -26.715883   1.000000   1.000000
    6      -13.475086    -13.482111   1.000000   1.000000
    7      -11.996615    -11.989799   1.000000   1.000000
    8      -11.839158    -11.882219   1.000000   1.000000
    9      -11.366832    -11.369708   1.000000   1.000000
   10       -8.806313     -8.810159   1.000000   1.000000
   11       -8.604796     -8.624411   1.000000   1.000000
   12       -7.853219     -7.834142   1.000000   1.000000
   13       -7.301982     -7.327318   1.000000   1.000000
   14       -6.690311     -6.739493   1.000000   1.000000
   15       -6.511754     -6.466210   1.000000   1.000000
   16       -6.378521     -6.392892   1.000000   1.000000
   17       -5.977309     -5.991018   1.000000   1.000000
   18       -5.104334     -5.149114   1.000000   1.000000
   19       -5.007170     -5.001298   1.000000   1.000000
   20       -4.834427     -4.849382   1.000000   1.000000
   21       -4.738530     -4.746231   1.000000   1.000000
   22        0.241004      0.246318   1.000000   1.000000
   23        0.581806      0.566552   1.000000   1.000000
   24        0.795070      0.791316   1.000000   1.000000
   25        1.105237      1.064205   1.000000   1.000000
   26        2.939688      2.925311   0.000000   0.000000
   27        3.082429      3.021842   0.000000   0.000000
   28        3.229783      3.229298   0.000000   0.000000
   29        3.433133      3.440497   0.000000   0.000000
   30        9.398723      9.392002   0.000000   0.000000
   31       10.215490     10.217878   0.000000   0.000000
   32       11.838213     11.827827   0.000000   0.000000
   33       12.268830     12.260899   0.000000   0.000000
   34       13.033348     12.966181   0.000000   0.000000
 
 -0.3333333E+00  0.1428571E+00  0.3802840E-14  0.9070295E-02
    1      -42.948178    -42.947668   1.000000   1.000000
    2      -28.518181    -28.553881   1.000000   1.000000
    3      -27.464323    -27.415392   1.000000   1.000000
    4      -27.388784    -27.358586   1.000000   1.000000
    5      -26.640089    -26.713768   1.000000   1.000000
    6      -13.393440    -13.399978   1.000000   1.000000
    7      -12.042428    -12.087402   1.000000   1.000000
    8      -11.932058    -11.913794   1.000000   1.000000
    9      -11.330267    -11.343008   1.000000   1.000000
   10       -8.809620     -8.813067   1.000000   1.000000
   11       -8.607738     -8.627509   1.000000   1.000000
   12       -7.852391     -7.834082   1.000000   1.000000
   13       -7.295123     -7.322434   1.000000   1.000000
   14       -6.704049     -6.737990   1.000000   1.000000
   15       -6.538717     -6.544225   1.000000   1.000000
   16       -6.405904     -6.378803   1.000000   1.000000
   17       -5.886474     -5.902698   1.000000   1.000000
   18       -5.092970     -5.138877   1.000000   1.000000
   19       -5.007623     -5.002032   1.000000   1.000000
   20       -4.845975     -4.861090   1.000000   1.000000
   21       -4.747746     -4.754430   1.000000   1.000000
   22        0.176517      0.181070   1.000000   1.000000
   23        0.504850      0.485614   1.000000   1.000000
   24        0.806962      0.807717   1.000000   1.000000
   25        1.171224      1.134385   1.000000   1.000000
   26        2.943031      2.911020   0.000000   0.000000
   27        3.095346      3.048781   0.000000   0.000000
   28        3.231362      3.228304   0.000000   0.000000
   29        3.440579      3.448840   0.000000   0.000000
   30        9.504439      9.497921   0.000000   0.000000
   31       10.515830     10.518910   0.000000   0.000000
   32       12.061612     12.039793   0.000000   0.000000
   33       12.221520     12.209934   0.000000   0.000000
   34       12.940337     12.972218   0.000000   0.000000
 
 -0.2222222E+00  0.1428571E+00 -0.2285968E-14  0.9070295E-02
    1      -42.948399    -42.947891   1.000000   1.000000
    2      -28.522549    -28.558000   1.000000   1.000000
    3      -27.462094    -27.414518   1.000000   1.000000
    4      -27.387627    -27.356222   1.000000   1.000000
    5      -26.636390    -26.710165   1.000000   1.000000
    6      -13.187688    -13.193338   1.000000   1.000000
    7      -12.182240    -12.244823   1.000000   1.000000
    8      -12.066512    -12.028608   1.000000   1.000000
    9      -11.314355    -11.329929   1.000000   1.000000
   10       -8.803699     -8.807338   1.000000   1.000000
   11       -8.575200     -8.594531   1.000000   1.000000
   12       -7.867384     -7.850088   1.000000   1.000000
   13       -7.277174     -7.308284   1.000000   1.000000
   14       -7.009322     -7.013210   1.000000   1.000000
   15       -6.494072     -6.533546   1.000000   1.000000
   16       -6.243068     -6.200920   1.000000   1.000000
   17       -5.758009     -5.780190   1.000000   1.000000
   18       -5.082640     -5.129363   1.000000   1.000000
   19       -5.010798     -5.006255   1.000000   1.000000
   20       -4.864514     -4.879051   1.000000   1.000000
   21       -4.768690     -4.774554   1.000000   1.000000
   22        0.086561      0.089982   1.000000   1.000000
   23        0.348595      0.324195   1.000000   1.000000
   24        0.809374      0.817209   1.000000   1.000000
   25        1.318919      1.285507   1.000000   1.000000
   26        2.951068      2.903176   0.000000   0.000000
   27        3.117660      3.083105   0.000000   0.000000
   28        3.242777      3.238615   0.000000   0.000000
   29        3.464369      3.472522   0.000000   0.000000
   30        9.742673      9.736360   0.000000   0.000000
   31       11.240163     11.246619   0.000000   0.000000
   32       12.021417     11.984386   0.000000   0.000000
   33       12.264794     12.262911   0.000000   0.000000
   34       12.981727     12.907309   0.000000   0.000000
 
 -0.1111111E+00  0.1428571E+00 -0.2597715E-15  0.9070295E-02
    1      -42.948590    -42.948084   1.000000   1.000000
    2      -28.527030    -28.562206   1.000000   1.000000
    3      -27.459268    -27.413496   1.000000   1.000000
    4      -27.386320    -27.353294   1.000000   1.000000
    5      -26.632997    -26.706855   1.000000   1.000000
    6      -12.935349    -12.938534   1.000000   1.000000
    7      -12.300352    -12.365378   1.000000   1.000000
    8      -12.210663    -12.176384   1.000000   1.000000
    9      -11.338076    -11.349914   1.000000   1.000000
   10       -8.789066     -8.793341   1.000000   1.000000
   11       -8.517787     -8.536440   1.000000   1.000000
   12       -7.881267     -7.864317   1.000000   1.000000
   13       -7.459931     -7.467126   1.000000   1.000000
   14       -7.268169     -7.297640   1.000000   1.000000
   15       -6.286141     -6.322047   1.000000   1.000000
   16       -6.064395     -6.015845   1.000000   1.000000
   17       -5.703471     -5.734747   1.000000   1.000000
   18       -5.076530     -5.122759   1.000000   1.000000
   19       -5.020287     -5.017022   1.000000   1.000000
   20       -4.879885     -4.892996   1.000000   1.000000
   21       -4.791563     -4.797108   1.000000   1.000000
   22        0.024557      0.025230   1.000000   1.000000
   23        0.215876      0.190048   1.000000   1.000000
   24        0.800959      0.814364   1.000000   1.000000
   25        1.482263      1.449530   1.000000   1.000000
   26        2.968921      2.911045   0.000000   0.000000
   27        3.135706      3.108052   0.000000   0.000000
   28        3.256465      3.253097   0.000000   0.000000
   29        3.488936      3.497483   0.000000   0.000000
   30        9.938292      9.932001   0.000000   0.000000
   31       11.513642     11.525968   0.000000   0.000000
   32       11.740097     11.716928   0.000000   0.000000
   33       12.380026     12.373401   0.000000   0.000000
   34       13.310496     13.323181   0.000000   0.000000
 
  0.1134413E-17  0.2857143E+00 -0.4596670E-14  0.9070295E-02
    1      -42.948645    -42.948141   1.000000   1.000000
    2      -28.513751    -28.550116   1.000000   1.000000
    3      -27.490690    -27.440530   1.000000   1.000000
    4      -27.359706    -27.328214   1.000000   1.000000
    5      -26.647295    -26.722809   1.000000   1.000000
    6      -12.807262    -12.804361   1.000000   1.000000
    7      -12.348966    -12.427870   1.000000   1.000000
    8      -12.275542    -12.236015   1.000000   1.000000
    9      -11.369364    -11.378434   1.000000   1.000000
   10       -8.691761     -8.699594   1.000000   1.000000
   11       -8.412737     -8.427876   1.000000   1.000000
   12       -7.795193     -7.783611   1.000000   1.000000
   13       -7.561688     -7.571051   1.000000   1.000000
   14       -7.272175     -7.287607   1.000000   1.000000
   15       -6.276858     -6.300332   1.000000   1.000000
   16       -5.998724     -5.958419   1.000000   1.000000
   17       -5.738294     -5.776553   1.000000   1.000000
   18       -5.307256     -5.349052   1.000000   1.000000
   19       -5.119604     -5.122369   1.000000   1.000000
   20       -4.950421     -4.970008   1.000000   1.000000
   21       -4.756227     -4.757482   1.000000   1.000000