Automatically generated mesh
     128
Reciprocal lattice
    0.00000000000000    0.00000000000000    0.00000000000000             1
    0.11111111111111    0.00000000000000   -0.00000000000001             2
    0.22222222222222   -0.00000000000000    0.00000000000000             2
    0.33333333333334   -0.00000000000000   -0.00000000000000             2
    0.44444444444444   -0.00000000000000    0.00000000000001             2
    0.00000000000000    0.14285714285715   -0.00000000000000             4
    0.11111111111111    0.14285714285715    0.00000000000001             4
    0.22222222222222    0.14285714285715    0.00000000000000             4
    0.33333333333334    0.14285714285715   -0.00000000000001             4
    0.44444444444444    0.14285714285715    0.00000000000000             4
   -0.44444444444444    0.14285714285715    0.00000000000000             4
   -0.33333333333334    0.14285714285715    0.00000000000000             4
   -0.22222222222222    0.14285714285715   -0.00000000000000             4
   -0.11111111111111    0.14285714285715   -0.00000000000000             4
    0.00000000000000    0.28571428571428   -0.00000000000000             4
    0.11111111111111    0.28571428571428    0.00000000000000             4
    0.22222222222222    0.28571428571428   -0.00000000000000             4
    0.33333333333334    0.28571428571428   -0.00000000000000             4
    0.44444444444444    0.28571428571428    0.00000000000000             4
   -0.44444444444444    0.28571428571428   -0.00000000000000             4
   -0.33333333333334    0.28571428571428    0.00000000000000             4
   -0.22222222222222    0.28571428571428    0.00000000000000             4
   -0.11111111111111    0.28571428571428   -0.00000000000000             4
    0.00000000000000    0.42857142857143   -0.00000000000001             4
    0.11111111111111    0.42857142857143    0.00000000000000             4
    0.22222222222222    0.42857142857143   -0.00000000000000             4
    0.33333333333334    0.42857142857143    0.00000000000000             4
    0.44444444444444    0.42857142857143   -0.00000000000000             4
   -0.44444444444444    0.42857142857143   -0.00000000000000             4
   -0.33333333333334    0.42857142857143   -0.00000000000000             4
   -0.22222222222222    0.42857142857143    0.00000000000000             4
   -0.11111111111111    0.42857142857143    0.00000000000000             4
    0.00000000000000    0.14285714285715    0.14285714285714             2
    0.11111111111111    0.14285714285715    0.14285714285715             2
    0.22222222222222    0.14285714285715    0.14285714285714             2
    0.33333333333334    0.14285714285715    0.14285714285714             2
    0.44444444444444    0.14285714285715    0.14285714285715             2
   -0.44444444444444    0.14285714285715    0.14285714285714             2
   -0.33333333333334    0.14285714285715    0.14285714285715             2
   -0.22222222222222    0.14285714285715    0.14285714285714             2
   -0.11111111111111    0.14285714285715    0.14285714285714             2
    0.00000000000000    0.28571428571428    0.14285714285714             4
    0.11111111111111    0.28571428571428    0.14285714285715             4
    0.22222222222222    0.28571428571428    0.14285714285714             4
    0.33333333333334    0.28571428571428    0.14285714285715             4
    0.44444444444444    0.28571428571428    0.14285714285714             4
   -0.44444444444444    0.28571428571428    0.14285714285714             4
   -0.33333333333334    0.28571428571428    0.14285714285714             4
   -0.22222222222222    0.28571428571428    0.14285714285714             4
   -0.11111111111111    0.28571428571428    0.14285714285715             4
    0.00000000000000    0.42857142857143    0.14285714285714             4
    0.11111111111111    0.42857142857143    0.14285714285714             4
    0.22222222222222    0.42857142857143    0.14285714285714             4
    0.33333333333334    0.42857142857143    0.14285714285715             4
    0.44444444444444    0.42857142857143    0.14285714285714             4
   -0.44444444444444    0.42857142857143    0.14285714285714             4
   -0.33333333333334    0.42857142857143    0.14285714285714             4
   -0.22222222222222    0.42857142857143    0.14285714285714             4
   -0.11111111111111    0.42857142857143    0.14285714285714             4
    0.00000000000000   -0.42857142857143    0.14285714285715             4
    0.11111111111111   -0.42857142857143    0.14285714285714             4
    0.22222222222222   -0.42857142857143    0.14285714285714             4
    0.33333333333334   -0.42857142857143    0.14285714285715             4
    0.44444444444444   -0.42857142857143    0.14285714285714             4
   -0.44444444444444   -0.42857142857143    0.14285714285714             4
   -0.33333333333334   -0.42857142857143    0.14285714285714             4
   -0.22222222222222   -0.42857142857143    0.14285714285714             4
   -0.11111111111111   -0.42857142857143    0.14285714285714             4
    0.00000000000000   -0.28571428571428    0.14285714285715             4
    0.11111111111111   -0.28571428571428    0.14285714285714             4
    0.22222222222222   -0.28571428571428    0.14285714285714             4
    0.33333333333334   -0.28571428571428    0.14285714285714             4
    0.44444444444444   -0.28571428571428    0.14285714285714             4
   -0.44444444444444   -0.28571428571428    0.14285714285714             4
   -0.33333333333334   -0.28571428571428    0.14285714285714             4
   -0.22222222222222   -0.28571428571428    0.14285714285715             4
   -0.11111111111111   -0.28571428571428    0.14285714285714             4
   -0.00000000000000   -0.14285714285715    0.14285714285714             2
    0.11111111111111   -0.14285714285715    0.14285714285714             4
    0.22222222222222   -0.14285714285715    0.14285714285715             4
    0.33333333333334   -0.14285714285715    0.14285714285714             4
    0.44444444444444   -0.14285714285715    0.14285714285714             4
    0.00000000000000    0.28571428571428    0.28571428571428             2
    0.11111111111111    0.28571428571428    0.28571428571429             2
    0.22222222222222    0.28571428571428    0.28571428571428             2
    0.33333333333334    0.28571428571428    0.28571428571429             2
    0.44444444444444    0.28571428571428    0.28571428571429             2
   -0.44444444444444    0.28571428571428    0.28571428571428             2
   -0.33333333333334    0.28571428571428    0.28571428571429             2
   -0.22222222222222    0.28571428571428    0.28571428571429             2
   -0.11111111111111    0.28571428571428    0.28571428571429             2
    0.00000000000000    0.42857142857143    0.28571428571429             4
    0.11111111111111    0.42857142857143    0.28571428571429             4
    0.22222222222222    0.42857142857143    0.28571428571428             4
    0.33333333333334    0.42857142857143    0.28571428571429             4
    0.44444444444444    0.42857142857143    0.28571428571428             4
   -0.44444444444444    0.42857142857143    0.28571428571429             4
   -0.33333333333334    0.42857142857143    0.28571428571428             4
   -0.22222222222222    0.42857142857143    0.28571428571428             4
   -0.11111111111111    0.42857142857143    0.28571428571429             4
    0.00000000000000   -0.42857142857143    0.28571428571429             4
    0.11111111111111   -0.42857142857143    0.28571428571428             4
    0.22222222222222   -0.42857142857143    0.28571428571429             4
    0.33333333333334   -0.42857142857143    0.28571428571429             4
    0.44444444444444   -0.42857142857143    0.28571428571428             4
   -0.44444444444444   -0.42857142857143    0.28571428571429             4
   -0.33333333333334   -0.42857142857143    0.28571428571428             4
   -0.22222222222222   -0.42857142857143    0.28571428571428             4
   -0.11111111111111   -0.42857142857143    0.28571428571428             4
    0.00000000000000   -0.28571428571428    0.28571428571429             2
    0.11111111111111   -0.28571428571428    0.28571428571428             4
    0.22222222222222   -0.28571428571428    0.28571428571429             4
    0.33333333333334   -0.28571428571428    0.28571428571429             4
    0.44444444444444   -0.28571428571428    0.28571428571428             4
    0.00000000000000    0.42857142857143    0.42857142857143             2
    0.11111111111111    0.42857142857143    0.42857142857143             2
    0.22222222222222    0.42857142857143    0.42857142857142             2
    0.33333333333334    0.42857142857143    0.42857142857143             2
    0.44444444444444    0.42857142857143    0.42857142857143             2
   -0.44444444444444    0.42857142857143    0.42857142857143             2
   -0.33333333333334    0.42857142857143    0.42857142857143             2
   -0.22222222222222    0.42857142857143    0.42857142857143             2
   -0.11111111111111    0.42857142857143    0.42857142857143             2
    0.00000000000000   -0.42857142857143    0.42857142857143             2
    0.11111111111111   -0.42857142857143    0.42857142857143             4
    0.22222222222222   -0.42857142857143    0.42857142857143             4
    0.33333333333334   -0.42857142857143    0.42857142857143             4
    0.44444444444444   -0.42857142857143    0.42857142857142             4
Tetrahedra
       664    0.00037792894936
         4         1         6         7        34
         4         1         2         7        34
         4         1         6        33        34
         4         2         7         8        35
         4         2         3         8        35
         4         2         7        34        35
         4         3         8         9        36
         4         3         4         9        36
         4         3         8        35        36
         4         4         9        10        37
         4         4         5        10        37
         4         4         9        36        37
         4         5        10        11        38
         4         5         5        11        38
         4         5        10        37        38
         4         5        11        12        39
         4         4         5        12        39
         4         5        11        38        39
         4         4        12        13        40
         4         3         4        13        40
         4         4        12        39        40
         4         3        13        14        41
         4         2         3        14        41
         4         3        13        40        41
         4         2         6        14        33
         4         1         2         6        33
         4         2        14        33        41
         4         6        15        16        43
         4         6         7        16        43
         4         6         7        34        43
         4         6        15        42        43
         4         6        33        42        43
         4         6        33        34        43
         4         7        16        17        44
         4         7         8        17        44
         4         7         8        35        44
         4         7        16        43        44
         4         7        34        43        44
         4         7        34        35        44
         4         8        17        18        45
         4         8         9        18        45
         4         8         9        36        45
         4         8        17        44        45
         4         8        35        44        45
         4         8        35        36        45
         4         9        18        19        46
         4         9        10        19        46
         4         9        10        37        46
         4         9        18        45        46
         4         9        36        45        46
         4         9        36        37        46
         4        10        19        20        47
         4        10        11        20        47
         4        10        11        38        47
         4        10        19        46        47
         4        10        37        46        47
         4        10        37        38        47
         4        11        20        21        48
         4        11        12        21        48
         4        11        12        39        48
         4        11        20        47        48
         4        11        38        47        48
         4        11        38        39        48
         4        12        21        22        49
         4        12        13        22        49
         4        12        13        40        49
         4        12        21        48        49
         4        12        39        48        49
         4        12        39        40        49
         4        13        22        23        50
         4        13        14        23        50
         4        13        14        41        50
         4        13        22        49        50
         4        13        40        49        50
         4        13        40        41        50
         4        14        15        23        42
         4         6        14        15        42
         4         6        14        33        42
         4        14        23        42        50
         4        14        41        42        50
         4        14        33        41        42
         4        15        24        25        52
         4        15        16        25        52
         4        15        16        43        52
         4        15        24        51        52
         4        15        42        51        52
         4        15        42        43        52
         4        16        25        26        53
         4        16        17        26        53
         4        16        17        44        53
         4        16        25        52        53
         4        16        43        52        53
         4        16        43        44        53
         4        17        26        27        54
         4        17        18        27        54
         4        17        18        45        54
         4        17        26        53        54
         4        17        44        53        54
         4        17        44        45        54
         4        18        27        28        55
         4        18        19        28        55
         4        18        19        46        55
         4        18        27        54        55
         4        18        45        54        55
         4        18        45        46        55
         4        19        28        29        56
         4        19        20        29        56
         4        19        20        47        56
         4        19        28        55        56
         4        19        46        55        56
         4        19        46        47        56
         4        20        29        30        57
         4        20        21        30        57
         4        20        21        48        57
         4        20        29        56        57
         4        20        47        56        57
         4        20        47        48        57
         4        21        30        31        58
         4        21        22        31        58
         4        21        22        49        58
         4        21        30        57        58
         4        21        48        57        58
         4        21        48        49        58
         4        22        31        32        59
         4        22        23        32        59
         4        22        23        50        59
         4        22        31        58        59
         4        22        49        58        59
         4        22        49        50        59
         4        23        24        32        51
         4        15        23        24        51
         4        15        23        42        51
         4        23        32        51        59
         4        23        50        51        59
         4        23        42        50        51
         4        24        24        32        61
         4        24        25        32        61
         4        24        25        52        61
         4        24        24        60        61
         4        24        51        60        61
         4        24        51        52        61
         4        25        31        32        62
         4        25        26        31        62
         4        25        26        53        62
         4        25        32        61        62
         4        25        52        61        62
         4        25        52        53        62
         4        26        30        31        63
         4        26        27        30        63
         4        26        27        54        63
         4        26        31        62        63
         4        26        53        62        63
         4        26        53        54        63
         4        27        29        30        64
         4        27        28        29        64
         4        27        28        55        64
         4        27        30        63        64
         4        27        54        63        64
         4        27        54        55        64
         8        28        28        29        65
         4        28        29        56        65
         4        28        29        64        65
         4        28        55        64        65
         4        28        55        56        65
         4        27        28        29        66
         4        27        29        30        66
         4        29        30        57        66
         4        28        29        65        66
         4        29        56        65        66
         4        29        56        57        66
         4        26        27        30        67
         4        26        30        31        67
         4        30        31        58        67
         4        27        30        66        67
         4        30        57        66        67
         4        30        57        58        67
         4        25        26        31        68
         4        25        31        32        68
         4        31        32        59        68
         4        26        31        67        68
         4        31        58        67        68
         4        31        58        59        68
         4        24        25        32        60
         4        24        24        32        60
         4        24        32        51        60
         4        25        32        60        68
         4        32        59        60        68
         4        32        51        59        60
         4        15        23        24        70
         4        23        24        32        70
         4        24        32        61        70
         4        15        24        69        70
         4        24        60        69        70
         4        24        60        61        70
         4        22        23        32        71
         4        22        31        32        71
         4        31        32        62        71
         4        23        32        70        71
         4        32        61        70        71
         4        32        61        62        71
         4        21        22        31        72
         4        21        30        31        72
         4        30        31        63        72
         4        22        31        71        72
         4        31        62        71        72
         4        31        62        63        72
         4        20        21        30        73
         4        20        29        30        73
         4        29        30        64        73
         4        21        30        72        73
         4        30        63        72        73
         4        30        63        64        73
         4        19        20        29        74
         4        19        28        29        74
         4        28        29        65        74
         4        20        29        73        74
         4        29        64        73        74
         4        29        64        65        74
         4        18        19        28        75
         4        18        27        28        75
         4        27        28        66        75
         4        19        28        74        75
         4        28        65        74        75
         4        28        65        66        75
         4        17        18        27        76
         4        17        26        27        76
         4        26        27        67        76
         4        18        27        75        76
         4        27        66        75        76
         4        27        66        67        76
         4        16        17        26        77
         4        16        25        26        77
         4        25        26        68        77
         4        17        26        76        77
         4        26        67        76        77
         4        26        67        68        77
         4        15        16        25        69
         4        15        24        25        69
         4        24        25        60        69
         4        16        25        69        77
         4        25        68        69        77
         4        25        60        68        69
         4         6        14        15        79
         4        14        15        23        79
         4        15        23        70        79
         4         6        15        78        79
         4        15        69        78        79
         4        15        69        70        79
         4        13        14        23        80
         4        13        22        23        80
         4        22        23        71        80
         4        14        23        79        80
         4        23        70        79        80
         4        23        70        71        80
         4        12        13        22        81
         4        12        21        22        81
         4        21        22        72        81
         4        13        22        80        81
         4        22        71        80        81
         4        22        71        72        81
         4        11        12        21        82
         4        11        20        21        82
         4        20        21        73        82
         4        12        21        81        82
         4        21        72        81        82
         4        21        72        73        82
         4        10        11        20        82
         4        10        19        20        82
         4        19        20        74        82
         4        11        20        82        82
         4        20        73        82        82
         4        20        73        74        82
         4         9        10        19        81
         4         9        18        19        81
         4        18        19        75        81
         4        10        19        81        82
         4        19        74        81        82
         4        19        74        75        81
         4         8         9        18        80
         4         8        17        18        80
         4        17        18        76        80
         4         9        18        80        81
         4        18        75        80        81
         4        18        75        76        80
         4         7         8        17        79
         4         7        16        17        79
         4        16        17        77        79
         4         8        17        79        80
         4        17        76        79        80
         4        17        76        77        79
         4         6         7        16        78
         4         6        15        16        78
         4        15        16        69        78
         4         7        16        78        79
         4        16        77        78        79
         4        16        69        77        78
         4         1         2         6         7
         4         2         6         7        14
         4         6         7        14        79
         4         1         6         6         7
         4         6         6         7        78
         4         6         7        78        79
         4         2         3         8        14
         4         3         8        13        14
         4         8        13        14        80
         4         2         7         8        14
         4         7         8        14        79
         4         8        14        79        80
         4         3         4         9        13
         4         4         9        12        13
         4         9        12        13        81
         4         3         8         9        13
         4         8         9        13        80
         4         9        13        80        81
         4         4         5        10        12
         4         5        10        11        12
         4        10        11        12        82
         4         4         9        10        12
         4         9        10        12        81
         4        10        12        81        82
         2         5         5        11        11
         4         5        10        11        11
         4        10        11        11        82
         2        11        11        82        82
         4        33        42        43        84
         4        33        34        43        84
         4        33        42        83        84
         4        34        43        44        85
         4        34        35        44        85
         4        34        43        84        85
         4        35        44        45        86
         4        35        36        45        86
         4        35        44        85        86
         4        36        45        46        87
         4        36        37        46        87
         4        36        45        86        87
         4        37        46        47        88
         4        37        38        47        88
         4        37        46        87        88
         4        38        47        48        89
         4        38        39        48        89
         4        38        47        88        89
         4        39        48        49        90
         4        39        40        49        90
         4        39        48        89        90
         4        40        49        50        91
         4        40        41        50        91
         4        40        49        90        91
         4        41        42        50        83
         4        33        41        42        83
         4        41        50        83        91
         4        42        51        52        93
         4        42        43        52        93
         4        42        43        84        93
         4        42        51        92        93
         4        42        83        92        93
         4        42        83        84        93
         4        43        52        53        94
         4        43        44        53        94
         4        43        44        85        94
         4        43        52        93        94
         4        43        84        93        94
         4        43        84        85        94
         4        44        53        54        95
         4        44        45        54        95
         4        44        45        86        95
         4        44        53        94        95
         4        44        85        94        95
         4        44        85        86        95
         4        45        54        55        96
         4        45        46        55        96
         4        45        46        87        96
         4        45        54        95        96
         4        45        86        95        96
         4        45        86        87        96
         4        46        55        56        97
         4        46        47        56        97
         4        46        47        88        97
         4        46        55        96        97
         4        46        87        96        97
         4        46        87        88        97
         4        47        56        57        98
         4        47        48        57        98
         4        47        48        89        98
         4        47        56        97        98
         4        47        88        97        98
         4        47        88        89        98
         4        48        57        58        99
         4        48        49        58        99
         4        48        49        90        99
         4        48        57        98        99
         4        48        89        98        99
         4        48        89        90        99
         4        49        58        59       100
         4        49        50        59       100
         4        49        50        91       100
         4        49        58        99       100
         4        49        90        99       100