 running on   12 total cores
 distrk:  each k-point on   12 cores,    1 groups
 distr:  one band on    6 cores,    2 groups
 using from now: INCAR     
 vasp.6.1.2 22Jul20 (build Mar 20 2021 11:25:07) complex                        
  
 POSCAR found type information on POSCAR LiP O 
 POSCAR found :  3 types and      26 ions
 scaLAPACK will be used
 LDA part: xc-table for Pade appr. of Perdew
 generate k-points for:    6    5    4
 POSCAR, INCAR and KPOINTS ok, starting setup
 FFT: planning ...
 WAVECAR not read
 entering main loop
       N       E                     dE             d eps       ncg     rms          rms(c)
DAV:   1     0.111562678781E+04    0.11156E+04   -0.61908E+04 21336   0.152E+03
DAV:   2    -0.603753483467E+02   -0.11760E+04   -0.11043E+04 25576   0.394E+02
DAV:   3    -0.172288573789E+03   -0.11191E+03   -0.11116E+03 27446   0.124E+02
DAV:   4    -0.181905176093E+03   -0.96166E+01   -0.95708E+01 39936   0.296E+01
DAV:   5    -0.183451733469E+03   -0.15466E+01   -0.15460E+01 29952   0.685E+00    0.510E+01
DAV:   6    -0.163101214699E+03    0.20351E+02   -0.89788E+01 26634   0.323E+01    0.273E+01
DAV:   7    -0.165132425169E+03   -0.20312E+01   -0.76345E+00 28176   0.940E+00    0.870E+00
DAV:   8    -0.165403259302E+03   -0.27083E+00   -0.81039E-01 28736   0.360E+00    0.449E+00
DAV:   9    -0.165527311395E+03   -0.12405E+00   -0.14350E-01 28256   0.169E+00    0.205E+00
DAV:  10    -0.165560056372E+03   -0.32745E-01   -0.63162E-02 25768   0.123E+00    0.536E-01
DAV:  11    -0.165570609598E+03   -0.10553E-01   -0.12630E-02 27440   0.480E-01    0.294E-01
DAV:  12    -0.165573738292E+03   -0.31287E-02   -0.23739E-03 26528   0.222E-01    0.158E-01
DAV:  13    -0.165575136705E+03   -0.13984E-02   -0.10910E-03 25368   0.128E-01    0.560E-02
DAV:  14    -0.165575354483E+03   -0.21778E-03   -0.15500E-04 26384   0.575E-02    0.256E-02
DAV:  15    -0.165575421234E+03   -0.66751E-04   -0.62742E-05 22960   0.343E-02    0.162E-02
DAV:  16    -0.165575433209E+03   -0.11975E-04   -0.85307E-06 18024   0.142E-02    0.864E-03
DAV:  17    -0.165575437335E+03   -0.41261E-05   -0.63881E-06 15472   0.104E-02
   1 F= -.16557544E+03 E0= -.16557544E+03  d E =0.000000E+00  mag=    -0.0006
