 running on   12 total cores
 distrk:  each k-point on   12 cores,    1 groups
 distr:  one band on    6 cores,    2 groups
 using from now: INCAR     
 vasp.6.1.2 22Jul20 (build Mar 20 2021 11:25:07) complex                        
  
 POSCAR found type information on POSCAR LiP O 
 POSCAR found :  3 types and      16 ions
 scaLAPACK will be used
 LDA part: xc-table for Pade appr. of Perdew
 generate k-points for:    6    6    5
 POSCAR, INCAR and KPOINTS ok, starting setup
 FFT: planning ...
 WAVECAR not read
 entering main loop
       N       E                     dE             d eps       ncg     rms          rms(c)
DAV:   1     0.624477321318E+03    0.62448E+03   -0.36769E+04  9984   0.152E+03
DAV:   2    -0.407893625874E+02   -0.66527E+03   -0.63138E+03 11672   0.392E+02
DAV:   3    -0.102493685884E+03   -0.61704E+02   -0.61376E+02 13716   0.114E+02
DAV:   4    -0.108112275799E+03   -0.56186E+01   -0.55932E+01 17912   0.289E+01
DAV:   5    -0.108695087938E+03   -0.58281E+00   -0.58269E+00 14272   0.595E+00    0.356E+01
RMM:   6    -0.988658032859E+02    0.98293E+01   -0.43319E+01 10970   0.242E+01    0.142E+01
RMM:   7    -0.999783258259E+02   -0.11125E+01   -0.44882E+00 14456   0.842E+00    0.750E+00
RMM:   8    -0.100185889514E+03   -0.20756E+00   -0.10988E+00 16386   0.448E+00    0.377E+00
RMM:   9    -0.100259134798E+03   -0.73245E-01   -0.38865E-01 16302   0.323E+00    0.963E-01
RMM:  10    -0.100293969298E+03   -0.34834E-01   -0.27895E-01 18622   0.190E+00    0.372E-01
RMM:  11    -0.100311825652E+03   -0.17856E-01   -0.13689E-01 19176   0.121E+00    0.301E-01
RMM:  12    -0.100319134954E+03   -0.73093E-02   -0.52620E-02 19367   0.761E-01    0.192E-01
RMM:  13    -0.100321783654E+03   -0.26487E-02   -0.20499E-02 18949   0.516E-01    0.899E-02
RMM:  14    -0.100323131257E+03   -0.13476E-02   -0.10945E-02 19067   0.368E-01    0.348E-02
RMM:  15    -0.100323647188E+03   -0.51593E-03   -0.48287E-03 18757   0.233E-01    0.327E-02
RMM:  16    -0.100323877012E+03   -0.22982E-03   -0.22873E-03 18434   0.156E-01    0.211E-02
RMM:  17    -0.100323954004E+03   -0.76992E-04   -0.85938E-04 18275   0.108E-01    0.105E-02
RMM:  18    -0.100324009959E+03   -0.55955E-04   -0.50413E-04 17821   0.761E-02    0.103E-02
RMM:  19    -0.100324032445E+03   -0.22486E-04   -0.21906E-04 17194   0.527E-02    0.107E-02
RMM:  20    -0.100324044245E+03   -0.11800E-04   -0.94788E-05 15372   0.398E-02    0.254E-02
RMM:  21    -0.100324044074E+03    0.17084E-06   -0.22711E-05 12096   0.318E-02
   1 F= -.10032404E+03 E0= -.10032404E+03  d E =0.000000E+00  mag=     0.0000
