 running on   12 total cores
 distrk:  each k-point on   12 cores,    1 groups
 distr:  one band on    6 cores,    2 groups
 using from now: INCAR     
 vasp.6.1.2 22Jul20 (build Mar 20 2021 11:25:07) complex                        
  
 POSCAR found type information on POSCAR LiO 
 POSCAR found :  2 types and       9 ions
 scaLAPACK will be used
 LDA part: xc-table for Pade appr. of Perdew
 generate k-points for:    8    7    7
 POSCAR, INCAR and KPOINTS ok, starting setup
 FFT: planning ...
 WAVECAR not read
 entering main loop
       N       E                     dE             d eps       ncg     rms          rms(c)
DAV:   1     0.367714583208E+03    0.36771E+03   -0.28256E+04 26800   0.147E+03
DAV:   2    -0.183529228071E+02   -0.38607E+03   -0.37356E+03 34866   0.355E+02
DAV:   3    -0.429777768116E+02   -0.24625E+02   -0.24370E+02 39088   0.908E+01
DAV:   4    -0.438865939703E+02   -0.90882E+00   -0.90378E+00 45160   0.124E+01
DAV:   5    -0.439620092014E+02   -0.75415E-01   -0.75408E-01 35958   0.178E+00    0.147E+01
RMM:   6    -0.451641047886E+02   -0.12021E+01   -0.39854E+00 30837   0.105E+01    0.166E+01
RMM:   7    -0.437195950932E+02    0.14445E+01   -0.15442E+00 30613   0.669E+00    0.810E+00
RMM:   8    -0.437324705126E+02   -0.12875E-01   -0.78068E-01 30719   0.484E+00    0.788E+00
RMM:   9    -0.432877584718E+02    0.44471E+00   -0.44276E-01 30844   0.372E+00    0.417E+00
RMM:  10    -0.432410894330E+02    0.46669E-01   -0.14531E-01 31484   0.218E+00    0.235E+00
RMM:  11    -0.432365140288E+02    0.45754E-02   -0.43739E-02 33254   0.127E+00    0.953E-01
RMM:  12    -0.432421021526E+02   -0.55881E-02   -0.24399E-02 33740   0.998E-01    0.440E-01
RMM:  13    -0.432459686677E+02   -0.38665E-02   -0.72578E-03 39048   0.520E-01    0.280E-01
RMM:  14    -0.432482849625E+02   -0.23163E-02   -0.33974E-03 39795   0.345E-01    0.263E-01
RMM:  15    -0.432506658570E+02   -0.23809E-02   -0.25229E-03 39128   0.303E-01    0.266E-01
WARNING in EDDRMM: call to ZHEGV failed, returncode =   8  4     16
WARNING in EDDRMM: call to ZHEGV failed, returncode =   6  3     13
RMM:  16    -0.432519113045E+02   -0.12454E-02   -0.10571E-03 41658   0.191E-01    0.276E-01
RMM:  17    -0.432466549063E+02    0.52564E-02   -0.65388E-03 48661   0.500E-01    0.259E-01
RMM:  18    -0.432438923765E+02    0.27625E-02   -0.42168E-03 46813   0.373E-01    0.200E-01
RMM:  19    -0.432410392086E+02    0.28532E-02   -0.83532E-03 49435   0.534E-01    0.141E-01
RMM:  20    -0.432398540642E+02    0.11851E-02   -0.42252E-03 46844   0.366E-01    0.123E-01
RMM:  21    -0.432393111106E+02    0.54295E-03   -0.19219E-03 40310   0.262E-01    0.105E-01
RMM:  22    -0.432377651433E+02    0.15460E-02   -0.26005E-03 41315   0.298E-01    0.650E-02
RMM:  23    -0.432380736479E+02   -0.30850E-03   -0.50289E-04 36184   0.158E-01    0.498E-02
RMM:  24    -0.432368781707E+02    0.11955E-02   -0.32053E-03 47530   0.330E-01    0.935E-02
RMM:  25    -0.432369912825E+02   -0.11311E-03   -0.17658E-04 39696   0.936E-02    0.101E-01
RMM:  26    -0.432370695319E+02   -0.78249E-04   -0.85358E-05 37287   0.615E-02    0.106E-01
RMM:  27    -0.432376141590E+02   -0.54463E-03   -0.27324E-03 49988   0.318E-01    0.580E-02
RMM:  28    -0.432379301474E+02   -0.31599E-03   -0.19799E-04 39267   0.870E-02    0.432E-02
RMM:  29    -0.432380737795E+02   -0.14363E-03   -0.87463E-05 35374   0.577E-02    0.404E-02
RMM:  30    -0.432382647995E+02   -0.19102E-03   -0.12712E-04 35322   0.663E-02    0.376E-02
RMM:  31    -0.432383845200E+02   -0.11972E-03   -0.62582E-05 32593   0.468E-02    0.366E-02
RMM:  32    -0.432386697326E+02   -0.28521E-03   -0.28563E-04 40122   0.957E-02    0.401E-02
RMM:  33    -0.432390186860E+02   -0.34895E-03   -0.35865E-04 40980   0.106E-01    0.460E-02
RMM:  34    -0.432383131167E+02    0.70557E-03   -0.10954E-03 46299   0.206E-01    0.417E-02
RMM:  35    -0.432376713777E+02    0.64174E-03   -0.10062E-03 48625   0.179E-01    0.554E-02
RMM:  36    -0.432388868045E+02   -0.12154E-02   -0.45706E-03 51858   0.421E-01    0.577E-02
RMM:  37    -0.432397361876E+02   -0.84938E-03   -0.15538E-03 50279   0.218E-01    0.828E-02
RMM:  38    -0.432389799498E+02    0.75624E-03   -0.16125E-03 49426   0.265E-01    0.531E-02
RMM:  39    -0.432394346774E+02   -0.45473E-03   -0.31944E-04 35366   0.124E-01    0.602E-02
RMM:  40    -0.432386332586E+02    0.80142E-03   -0.11517E-03 46464   0.209E-01    0.451E-02
RMM:  41    -0.432377339742E+02    0.89928E-03   -0.17838E-03 50607   0.240E-01    0.531E-02
RMM:  42    -0.432373229593E+02    0.41101E-03   -0.93241E-04 48541   0.167E-01    0.778E-02
RMM:  43    -0.432372060995E+02    0.11686E-03   -0.26244E-04 42731   0.877E-02    0.102E-01
RMM:  44    -0.432372736256E+02   -0.67526E-04   -0.18118E-05 23797   0.327E-02    0.982E-02
RMM:  45    -0.432372465550E+02    0.27071E-04   -0.67178E-06 19738   0.162E-02    0.103E-01
RMM:  46    -0.432372837528E+02   -0.37198E-04   -0.87390E-06 20141   0.180E-02    0.972E-02
RMM:  47    -0.432372756361E+02    0.81168E-05   -0.15979E-06 17077   0.779E-03
   1 F= -.43237276E+02 E0= -.43237276E+02  d E =0.000000E+00  mag=     1.0255
 -----------------------------------------------------------------------------
|                                                                             |
|           W    W    AA    RRRRR   N    N  II  N    N   GGGG   !!!           |
|           W    W   A  A   R    R  NN   N  II  NN   N  G    G  !!!           |
|           W    W  A    A  R    R  N N  N  II  N N  N  G       !!!           |
|           W WW W  AAAAAA  RRRRR   N  N N  II  N  N N  G  GGG   !            |
|           WW  WW  A    A  R   R   N   NN  II  N   NN  G    G                |
|           W    W  A    A  R    R  N    N  II  N    N   GGGG   !!!           |
|                                                                             |
|     Tetrahedron method does not include variations of the Fermi             |
|     occupations, so forces and stress will be inaccurate. We suggest        |
|     using a different smearing scheme ISMEAR = 1 or 2 for metals in         |
|     relaxations.                                                            |
|                                                                             |
 -----------------------------------------------------------------------------

