   12   12    1    2
  0.9112204E+01  0.5179319E-09  0.5179319E-09  0.4629835E-09  0.5000000E-15
  1.000000000000000E-004
  CAR 
 unknown system                          
     56     64     40
 
  0.0000000E+00  0.0000000E+00  0.0000000E+00  0.2915452E-02
    1      -39.478221    -39.477974   1.000000   1.000000
    2      -39.448439    -39.448191   1.000000   1.000000
    3      -39.446976    -39.446728   1.000000   1.000000
    4      -39.445947    -39.445699   1.000000   1.000000
    5      -16.985989    -16.986024   1.000000   1.000000
    6      -16.223473    -16.223521   1.000000   1.000000
    7      -14.698492    -14.698547   1.000000   1.000000
    8      -14.666345    -14.666401   1.000000   1.000000
    9      -12.540132    -12.540164   1.000000   1.000000
   10      -10.926411    -10.926436   1.000000   1.000000
   11       -6.467190     -6.467217   1.000000   1.000000
   12       -3.453470     -3.453490   1.000000   1.000000
   13       -3.100576     -3.100595   1.000000   1.000000
   14       -2.664911     -2.664936   1.000000   1.000000
   15       -2.531267     -2.531287   1.000000   1.000000
   16       -1.314839     -1.314884   1.000000   1.000000
   17       -0.542396     -0.542414   1.000000   1.000000
   18       -0.475983     -0.475994   1.000000   1.000000
   19        0.368684      0.368663   1.000000   1.000000
   20        0.535759      0.535746   1.000000   1.000000
   21        0.781858      0.781837   1.000000   1.000000
   22        1.622437      1.622399   1.000000   1.000000
   23        1.628582      1.628541   1.000000   1.000000
   24        1.705077      1.705043   1.000000   1.000000
   25        1.911071      1.911040   1.000000   1.000000
   26        2.612944      2.612936   1.000000   1.000000
   27        2.649778      2.649758   1.000000   1.000000
   28        3.294635      3.294637   1.000000   1.000000
   29        9.655169      9.655198   0.000002   0.000002
   30       10.433107     10.433116   0.000000   0.000000
   31       10.901747     10.901730   0.000000   0.000000
   32       12.781208     12.781265   0.000000   0.000000
   33       12.800666     12.801340   0.000000   0.000000
   34       13.275381     13.275180   0.000000   0.000000
   35       13.631931     13.631991   0.000000   0.000000
   36       14.476113     14.470178   0.000000   0.000000
   37       14.617514     14.609488   0.000000   0.000000
   38       14.883672     14.886369   0.000000   0.000000
   39       15.343496     15.294461   0.000000   0.000000
   40       16.022811     15.632191   0.000000   0.000000
 
  0.1428571E+00 -0.7028878E-17  0.0000000E+00  0.1166181E-01
    1      -39.477076    -39.476829   1.000000   1.000000
    2      -39.451597    -39.451349   1.000000   1.000000
    3      -39.446931    -39.446683   1.000000   1.000000
    4      -39.443983    -39.443735   1.000000   1.000000
    5      -16.963906    -16.963941   1.000000   1.000000
    6      -16.245745    -16.245792   1.000000   1.000000
    7      -14.703059    -14.703114   1.000000   1.000000
    8      -14.672056    -14.672112   1.000000   1.000000
    9      -12.543042    -12.543074   1.000000   1.000000
   10      -10.923946    -10.923970   1.000000   1.000000
   11       -6.469561     -6.469587   1.000000   1.000000
   12       -3.463977     -3.463996   1.000000   1.000000
   13       -3.067757     -3.067778   1.000000   1.000000
   14       -2.585598     -2.585622   1.000000   1.000000
   15       -2.535404     -2.535427   1.000000   1.000000
   16       -1.338407     -1.338450   1.000000   1.000000
   17       -0.650642     -0.650655   1.000000   1.000000
   18       -0.236312     -0.236328   1.000000   1.000000
   19        0.408518      0.408497   1.000000   1.000000
   20        0.584935      0.584919   1.000000   1.000000
   21        0.772788      0.772768   1.000000   1.000000
   22        1.415432      1.415397   1.000000   1.000000
   23        1.548059      1.548029   1.000000   1.000000
   24        1.705452      1.705413   1.000000   1.000000
   25        1.866717      1.866686   1.000000   1.000000
   26        2.595431      2.595413   1.000000   1.000000
   27        2.663307      2.663294   1.000000   1.000000
   28        3.288045      3.288047   1.000000   1.000000
   29        9.879204      9.879227  -0.000000  -0.000000
   30       10.472191     10.472187   0.000000   0.000000
   31       11.018333     11.018331   0.000000   0.000000
   32       12.557600     12.557583   0.000000   0.000000
   33       12.726766     12.727191   0.000000   0.000000
   34       13.120069     13.119973   0.000000   0.000000
   35       13.645870     13.645763   0.000000   0.000000
   36       14.173412     14.172902   0.000000   0.000000
   37       14.458755     14.460708   0.000000   0.000000
   38       14.706251     14.706315   0.000000   0.000000
   39       14.826631     14.826260   0.000000   0.000000
   40       15.902348     15.994502   0.000000   0.000000
 
  0.2857143E+00 -0.3627958E-16  0.0000000E+00  0.1166181E-01
    1      -39.473925    -39.473678   1.000000   1.000000
    2      -39.456740    -39.456492   1.000000   1.000000
    3      -39.446486    -39.446238   1.000000   1.000000
    4      -39.442489    -39.442241   1.000000   1.000000
    5      -16.907753    -16.907790   1.000000   1.000000
    6      -16.302704    -16.302750   1.000000   1.000000
    7      -14.713584    -14.713639   1.000000   1.000000
    8      -14.684425    -14.684480   1.000000   1.000000
    9      -12.548834    -12.548865   1.000000   1.000000
   10      -10.919182    -10.919206   1.000000   1.000000
   11       -6.473426     -6.473451   1.000000   1.000000
   12       -3.496442     -3.496458   1.000000   1.000000
   13       -2.981773     -2.981796   1.000000   1.000000
   14       -2.612341     -2.612368   1.000000   1.000000
   15       -2.314860     -2.314888   1.000000   1.000000
   16       -1.408829     -1.408869   1.000000   1.000000
   17       -0.565330     -0.565347   1.000000   1.000000
   18        0.027715      0.027696   1.000000   1.000000
   19        0.403921      0.403902   1.000000   1.000000
   20        0.674138      0.674117   1.000000   1.000000
   21        0.809381      0.809364   1.000000   1.000000
   22        1.049176      1.049150   1.000000   1.000000
   23        1.360106      1.360079   1.000000   1.000000
   24        1.633830      1.633802   1.000000   1.000000
   25        1.770905      1.770868   1.000000   1.000000
   26        2.465390      2.465376   1.000000   1.000000
   27        2.786122      2.786100   1.000000   1.000000
   28        3.268041      3.268042   1.000000   1.000000
   29       10.337862     10.337860   0.000000   0.000000
   30       10.601150     10.601152   0.000000   0.000000
   31       11.330732     11.330739   0.000000   0.000000
   32       12.244883     12.244900   0.000000   0.000000
   33       12.358698     12.358732   0.000000   0.000000
   34       12.770449     12.770416   0.000000   0.000000
   35       13.445179     13.444778   0.000000   0.000000
   36       13.804586     13.804500   0.000000   0.000000
   37       13.958724     13.958728   0.000000   0.000000
   38       14.761567     14.760973   0.000000   0.000000
   39       14.822428     14.822406   0.000000   0.000000
   40       15.594741     15.607536   0.000000   0.000000
 
  0.4285714E+00  0.1663809E-16  0.0000000E+00  0.1166181E-01
    1      -39.469528    -39.469281   1.000000   1.000000
    2      -39.462146    -39.461899   1.000000   1.000000
    3      -39.446043    -39.445795   1.000000   1.000000
    4      -39.441859    -39.441611   1.000000   1.000000
    5      -16.852842    -16.852881   1.000000   1.000000
    6      -16.358398    -16.358443   1.000000   1.000000
    7      -14.722112    -14.722165   1.000000   1.000000
    8      -14.693964    -14.694020   1.000000   1.000000
    9      -12.552690    -12.552722   1.000000   1.000000
   10      -10.916045    -10.916070   1.000000   1.000000
   11       -6.474891     -6.474916   1.000000   1.000000
   12       -3.531661     -3.531675   1.000000   1.000000
   13       -2.903312     -2.903332   1.000000   1.000000
   14       -2.652877     -2.652912   1.000000   1.000000
   15       -2.054290     -2.054321   1.000000   1.000000
   16       -1.496779     -1.496816   1.000000   1.000000
   17       -0.362295     -0.362316   1.000000   1.000000
   18        0.124310      0.124281   1.000000   1.000000
   19        0.387123      0.387113   1.000000   1.000000
   20        0.586672      0.586659   1.000000   1.000000
   21        0.655330      0.655313   1.000000   1.000000
   22        1.037336      1.037306   1.000000   1.000000
   23        1.346879      1.346857   1.000000   1.000000
   24        1.504974      1.504951   1.000000   1.000000
   25        1.689143      1.689102   1.000000   1.000000
   26        2.343139      2.343131   1.000000   1.000000
   27        2.894061      2.894031   1.000000   1.000000
   28        3.244140      3.244139   1.000000   1.000000
   29       10.350648     10.350622   0.000000   0.000000
   30       11.176158     11.176167   0.000000   0.000000
   31       11.577083     11.577032   0.000000   0.000000
   32       12.016386     12.016326   0.000000   0.000000
   33       12.274067     12.274225   0.000000   0.000000
   34       12.360082     12.360145   0.000000   0.000000
   35       13.068830     13.069277   0.000000   0.000000
   36       13.317490     13.317250   0.000000   0.000000
   37       13.741361     13.740788   0.000000   0.000000
   38       14.954626     14.955085   0.000000   0.000000
   39       15.250592     15.244946   0.000000   0.000000
   40       15.764377     15.821711   0.000000   0.000000
 
  0.1428571E+00  0.1428571E+00  0.0000000E+00  0.5830904E-02
    1      -39.474828    -39.474581   1.000000   1.000000
    2      -39.455658    -39.455410   1.000000   1.000000
    3      -39.446814    -39.446566   1.000000   1.000000
    4      -39.442389    -39.442141   1.000000   1.000000
    5      -16.920916    -16.920953   1.000000   1.000000
    6      -16.294245    -16.294291   1.000000   1.000000
    7      -14.711604    -14.711659   1.000000   1.000000
    8      -14.675916    -14.675972   1.000000   1.000000
    9      -12.542678    -12.542710   1.000000   1.000000
   10      -10.920885    -10.920910   1.000000   1.000000
   11       -6.466424     -6.466450   1.000000   1.000000
   12       -3.501361     -3.501378   1.000000   1.000000
   13       -3.013550     -3.013571   1.000000   1.000000
   14       -2.561310     -2.561338   1.000000   1.000000
   15       -2.463988     -2.464015   1.000000   1.000000
   16       -1.395346     -1.395387   1.000000   1.000000
   17       -0.616081     -0.616096   1.000000   1.000000
   18        0.083250      0.083227   1.000000   1.000000
   19        0.511762      0.511745   1.000000   1.000000
   20        0.558720      0.558694   1.000000   1.000000
   21        0.785441      0.785425   1.000000   1.000000
   22        1.207485      1.207453   1.000000   1.000000
   23        1.262135      1.262117   1.000000   1.000000
   24        1.737310      1.737284   1.000000   1.000000
   25        1.754913      1.754870   1.000000   1.000000
   26        2.487931      2.487918   1.000000   1.000000
   27        2.778438      2.778417   1.000000   1.000000
   28        3.290714      3.290713   1.000000   1.000000
   29       10.231015     10.231027   0.000000   0.000000
   30       10.494142     10.494102   0.000000   0.000000
   31       11.181878     11.181851   0.000000   0.000000
   32       12.349880     12.350940   0.000000   0.000000
   33       12.504648     12.504706   0.000000   0.000000
   34       13.034601     13.034554   0.000000   0.000000
   35       13.288924     13.289851   0.000000   0.000000
   36       14.007136     14.007547   0.000000   0.000000
   37       14.098537     14.099096   0.000000   0.000000
   38       14.317586     14.317463   0.000000   0.000000
   39       14.706851     14.706689   0.000000   0.000000
   40       16.313267     15.881902   0.000000   0.000000
 
  0.2857143E+00  0.1428571E+00  0.0000000E+00  0.1166181E-01
    1      -39.470849    -39.470602   1.000000   1.000000
    2      -39.460635    -39.460388   1.000000   1.000000
    3      -39.446645    -39.446397   1.000000   1.000000
    4      -39.441558    -39.441310   1.000000   1.000000
    5      -16.863894    -16.863932   1.000000   1.000000
    6      -16.349549    -16.349593   1.000000   1.000000
    7      -14.746224    -14.746277   1.000000   1.000000
    8      -14.664035    -14.664091   1.000000   1.000000
    9      -12.548984    -12.549016   1.000000   1.000000
   10      -10.917027    -10.917051   1.000000   1.000000
   11       -6.470578     -6.470603   1.000000   1.000000
   12       -3.532355     -3.532369   1.000000   1.000000
   13       -2.941001     -2.941022   1.000000   1.000000
   14       -2.575541     -2.575576   1.000000   1.000000
   15       -2.223972     -2.224000   1.000000   1.000000
   16       -1.459158     -1.459196   1.000000   1.000000
   17       -0.420078     -0.420098   1.000000   1.000000
   18        0.225952      0.225921   1.000000   1.000000
   19        0.364798      0.364783   1.000000   1.000000
   20        0.525897      0.525887   1.000000   1.000000
   21        0.900323      0.900303   1.000000   1.000000
   22        0.939151      0.939125   1.000000   1.000000
   23        1.197847      1.197828   1.000000   1.000000
   24        1.582022      1.581998   1.000000   1.000000
   25        1.745113      1.745071   1.000000   1.000000
   26        2.356148      2.356140   1.000000   1.000000
   27        2.886907      2.886879   1.000000   1.000000
   28        3.272151      3.272149   1.000000   1.000000
   29       10.449942     10.449911   0.000000   0.000000
   30       10.735211     10.735205   0.000000   0.000000
   31       11.412138     11.412148   0.000000   0.000000
   32       12.001171     12.001440   0.000000   0.000000
   33       12.551783     12.551874   0.000000   0.000000
   34       12.696804     12.696814   0.000000   0.000000
   35       13.012357     13.012263   0.000000   0.000000
   36       13.374720     13.374395   0.000000   0.000000
   37       13.899204     13.899224   0.000000   0.000000
   38       14.475003     14.474825   0.000000   0.000000
   39       14.891195     14.892966   0.000000   0.000000
   40       16.163297     16.074438   0.000000   0.000000
 
  0.4285714E+00  0.1428571E+00  0.0000000E+00  0.1166181E-01
    1      -39.467601    -39.467354   1.000000   1.000000
    2      -39.463906    -39.463659   1.000000   1.000000
    3      -39.446559    -39.446311   1.000000   1.000000
    4      -39.441546    -39.441298   1.000000   1.000000
    5      -16.841240    -16.841280   1.000000   1.000000
    6      -16.364492    -16.364536   1.000000   1.000000
    7      -14.770171    -14.770224   1.000000   1.000000
    8      -14.656078    -14.656134   1.000000   1.000000
    9      -12.557600    -12.557632   1.000000   1.000000
   10      -10.914798    -10.914823   1.000000   1.000000
   11       -6.480293     -6.480318   1.000000   1.000000
   12       -3.534274     -3.534288   1.000000   1.000000
   13       -2.864755     -2.864775   1.000000   1.000000
   14       -2.616971     -2.617009   1.000000   1.000000
   15       -2.006231     -2.006263   1.000000   1.000000
   16       -1.506344     -1.506381   1.000000   1.000000
   17       -0.290378     -0.290400   1.000000   1.000000
   18        0.032242      0.032221   1.000000   1.000000
   19        0.269331      0.269319   1.000000   1.000000
   20        0.502041      0.502029   1.000000   1.000000
   21        0.816952      0.816925   1.000000   1.000000
   22        1.006232      1.006211   1.000000   1.000000
   23        1.351502      1.351482   1.000000   1.000000
   24        1.455371      1.455345   1.000000   1.000000
   25        1.731016      1.730975   1.000000   1.000000
   26        2.320878      2.320870   1.000000   1.000000
   27        2.896473      2.896443   1.000000   1.000000
   28        3.254051      3.254049   1.000000   1.000000
   29       10.414476     10.414424   0.000000   0.000000
   30       10.984580     10.984572   0.000000   0.000000
   31       11.652849     11.652905   0.000000   0.000000
   32       11.819169     11.819181   0.000000   0.000000
   33       12.291344     12.291428   0.000000   0.000000
   34       12.698418     12.698454   0.000000   0.000000
   35       13.018538     13.018727   0.000000   0.000000
   36       13.264441     13.264243   0.000000   0.000000
   37       13.732282     13.731687   0.000000   0.000000
   38       14.732261     14.731715   0.000000   0.000000
   39       15.183360     15.182185   0.000000   0.000000
   40       15.965286     15.919500   0.000000   0.000000
 
 -0.4285714E+00  0.1428571E+00  0.0000000E+00  0.1166181E-01
    1      -39.471588    -39.471341   1.000000   1.000000
    2      -39.459033    -39.458786   1.000000   1.000000
    3      -39.446897    -39.446649   1.000000   1.000000
    4      -39.442044    -39.441796   1.000000   1.000000
    5      -16.877782    -16.877820   1.000000   1.000000
    6      -16.319887    -16.319932   1.000000   1.000000
    7      -14.773693    -14.773745   1.000000   1.000000
    8      -14.649887    -14.649943   1.000000   1.000000
    9      -12.562783    -12.562815   1.000000   1.000000
   10      -10.915415    -10.915439   1.000000   1.000000
   11       -6.488547     -6.488572   1.000000   1.000000
   12       -3.499405     -3.499419   1.000000   1.000000
   13       -2.861107     -2.861131   1.000000   1.000000
   14       -2.643527     -2.643559   1.000000   1.000000
   15       -2.058041     -2.058072   1.000000   1.000000
   16       -1.468154     -1.468191   1.000000   1.000000
   17       -0.430969     -0.430987   1.000000   1.000000
   18       -0.074970     -0.074985   1.000000   1.000000
   19        0.270264      0.270248   1.000000   1.000000
   20        0.582592      0.582572   1.000000   1.000000
   21        0.828841      0.828816   1.000000   1.000000
   22        1.011653      1.011632   1.000000   1.000000
   23        1.391691      1.391666   1.000000   1.000000
   24        1.546059      1.546035   1.000000   1.000000
   25        1.771374      1.771334   1.000000   1.000000
   26        2.409348      2.409335   1.000000   1.000000
   27        2.797991      2.797966   1.000000   1.000000
   28        3.249125      3.249125   1.000000   1.000000
   29       10.470038     10.470042   0.000000   0.000000
   30       10.879739     10.879745   0.000000   0.000000
   31       11.571011     11.571010   0.000000   0.000000
   32       11.693657     11.693606   0.000000   0.000000
   33       12.363317     12.363191   0.000000   0.000000
   34       12.633735     12.633738   0.000000   0.000000
   35       13.506312     13.506285   0.000000   0.000000
   36       13.648738     13.648764   0.000000   0.000000
   37       13.762035     13.761926   0.000000   0.000000
   38       14.890069     14.890556   0.000000   0.000000
   39       15.243716     15.238677   0.000000   0.000000
   40       15.783356     15.570175   0.000000   0.000000
 
 -0.2857143E+00  0.1428571E+00  0.0000000E+00  0.1166181E-01
    1      -39.475267    -39.475020   1.000000   1.000000
    2      -39.453567    -39.453319   1.000000   1.000000
    3      -39.447709    -39.447461   1.000000   1.000000
    4      -39.443007    -39.442759   1.000000   1.000000
    5      -16.934086    -16.934123   1.000000   1.000000
    6      -16.261258    -16.261305   1.000000   1.000000
    7      -14.757458    -14.757512   1.000000   1.000000
    8      -14.646896    -14.646952   1.000000   1.000000
    9      -12.559946    -12.559977   1.000000   1.000000
   10      -10.919081    -10.919105   1.000000   1.000000
   11       -6.487485     -6.487511   1.000000   1.000000
   12       -3.458621     -3.458636   1.000000   1.000000
   13       -2.975280     -2.975307   1.000000   1.000000
   14       -2.590399     -2.590423   1.000000   1.000000
   15       -2.299532     -2.299560   1.000000   1.000000
   16       -1.368385     -1.368425   1.000000   1.000000
   17       -0.568500     -0.568514   1.000000   1.000000
   18       -0.270590     -0.270602   1.000000   1.000000
   19        0.290717      0.290698   1.000000   1.000000
   20        0.677873      0.677854   1.000000   1.000000
   21        0.844978      0.844951   1.000000   1.000000
   22        1.097156      1.097132   1.000000   1.000000
   23        1.518875      1.518845   1.000000   1.000000
   24        1.682937      1.682902   1.000000   1.000000
   25        1.840227      1.840192   1.000000   1.000000
   26        2.528655      2.528638   1.000000   1.000000
   27        2.675353      2.675337   1.000000   1.000000
   28        3.253459      3.253462   1.000000   1.000000
   29       10.266256     10.266275   0.000000   0.000000
   30       10.618425     10.618412   0.000000   0.000000
   31       11.254056     11.254035   0.000000   0.000000
   32       11.990178     11.990168   0.000000   0.000000
   33       12.688059     12.687886   0.000000   0.000000
   34       12.969047     12.969049   0.000000   0.000000
   35       13.453233     13.452932   0.000000   0.000000
   36       14.086347     14.086212   0.000000   0.000000
   37       14.168303     14.168088   0.000000   0.000000
   38       14.865240     14.865567   0.000000   0.000000
   39       15.156400     15.156535   0.000000   0.000000
   40       15.655848     15.871916   0.000000   0.000000
 
 -0.1428571E+00  0.1428571E+00  0.0000000E+00  0.5830904E-02
    1      -39.477256    -39.477009   1.000000   1.000000
    2      -39.449391    -39.449143   1.000000   1.000000
    3      -39.448732    -39.448484   1.000000   1.000000
    4      -39.444250    -39.444002   1.000000   1.000000
    5      -16.968879    -16.968915   1.000000   1.000000
    6      -16.232034    -16.232081   1.000000   1.000000
    7      -14.729872    -14.729926   1.000000   1.000000
    8      -14.652902    -14.652958   1.000000   1.000000
    9      -12.550809    -12.550841   1.000000   1.000000
   10      -10.923270    -10.923295   1.000000   1.000000
   11       -6.478480     -6.478507   1.000000   1.000000
   12       -3.443110     -3.443128   1.000000   1.000000
   13       -3.066327     -3.066351   1.000000   1.000000
   14       -2.548823     -2.548843   1.000000   1.000000
   15       -2.507423     -2.507449   1.000000   1.000000
   16       -1.317158     -1.317202   1.000000   1.000000
   17       -0.538519     -0.538535   1.000000   1.000000
   18       -0.460130     -0.460139   1.000000   1.000000
   19        0.305218      0.305199   1.000000   1.000000
   20        0.584301      0.584285   1.000000   1.000000
   21        0.853870      0.853846   1.000000   1.000000
   22        1.376015      1.375981   1.000000   1.000000
   23        1.624373      1.624338   1.000000   1.000000
   24        1.713570      1.713530   1.000000   1.000000
   25        1.885332      1.885301   1.000000   1.000000
   26        2.608320      2.608301   1.000000   1.000000
   27        2.618768      2.618758   1.000000   1.000000
   28        3.269474      3.269479   1.000000   1.000000
   29        9.896057      9.896082  -0.000000  -0.000000
   30       10.519263     10.519247   0.000000   0.000000
   31       11.036636     11.036623   0.000000   0.000000
   32       12.417291     12.417261   0.000000   0.000000
   33       12.895382     12.896678   0.000000   0.000000
   34       13.121259     13.121135   0.000000   0.000000
   35       13.488914     13.488804   0.000000   0.000000
   36       14.140278     14.141671   0.000000   0.000000
   37       14.598241     14.594064   0.000000   0.000000
   38       15.074811     15.071148   0.000000   0.000000
   39       15.140814     15.143399   0.000000   0.000000
   40       16.101980     16.106994   0.000000   0.000000
 
  0.2857143E+00  0.2857143E+00  0.0000000E+00  0.5830904E-02
    1      -39.466379    -39.466132   1.000000   1.000000
    2      -39.464913    -39.464666   1.000000   1.000000
    3      -39.447117    -39.446869   1.000000   1.000000
    4      -39.441185    -39.440937   1.000000   1.000000
    5      -16.836922    -16.836961   1.000000   1.000000
    6      -16.365343    -16.365387   1.000000   1.000000
    7      -14.795789    -14.795841   1.000000   1.000000
    8      -14.635868    -14.635925   1.000000   1.000000
    9      -12.559874    -12.559906   1.000000   1.000000
   10      -10.914182    -10.914207   1.000000   1.000000
   11       -6.482653     -6.482678   1.000000   1.000000
   12       -3.536343     -3.536356   1.000000   1.000000
   13       -2.858890     -2.858912   1.000000   1.000000
   14       -2.539250     -2.539291   1.000000   1.000000
   15       -2.063941     -2.063970   1.000000   1.000000
   16       -1.480936     -1.480971   1.000000   1.000000
   17       -0.262914     -0.262937   1.000000   1.000000
   18        0.000743      0.000726   1.000000   1.000000
   19        0.145939      0.145930   1.000000   1.000000
   20        0.675563      0.675548   1.000000   1.000000
   21        0.679271      0.679241   1.000000   1.000000
   22        1.146024      1.146005   1.000000   1.000000
   23        1.196973      1.196953   1.000000   1.000000
   24        1.473553      1.473526   1.000000   1.000000
   25        1.781585      1.781544   1.000000   1.000000
   26        2.308436      2.308429   1.000000   1.000000
   27        2.895575      2.895545   1.000000   1.000000
   28        3.274383      3.274378   1.000000   1.000000
   29       10.615349     10.615320   0.000000   0.000000
   30       10.617319     10.617322   0.000000   0.000000
   31       11.586073     11.586126   0.000000   0.000000
   32       11.651707     11.651639   0.000000   0.000000
   33       12.661828     12.661792   0.000000   0.000000
   34       12.829172     12.829242   0.000000   0.000000
   35       13.082547     13.082702   0.000000   0.000000
   36       13.125764     13.125769   0.000000   0.000000
   37       13.938729     13.938282   0.000000   0.000000
   38       14.272452     14.272254   0.000000   0.000000
   39       14.998507     14.996893   0.000000   0.000000
   40       16.309271     16.156922   0.000000   0.000000
 
  0.4285714E+00  0.2857143E+00  0.0000000E+00  0.1166181E-01
    1      -39.469106    -39.468859   1.000000   1.000000
    2      -39.461154    -39.460907   1.000000   1.000000
    3      -39.447889    -39.447642   1.000000   1.000000
    4      -39.441356    -39.441108   1.000000   1.000000
    5      -16.853590    -16.853630   1.000000   1.000000
    6      -16.331518    -16.331563   1.000000   1.000000
    7      -14.826572    -14.826623   1.000000   1.000000
    8      -14.619619    -14.619676   1.000000   1.000000
    9      -12.573932    -12.573964   1.000000   1.000000
   10      -10.912497    -10.912521   1.000000   1.000000
   11       -6.499979     -6.500004   1.000000   1.000000
   12       -3.511321     -3.511334   1.000000   1.000000
   13       -2.761909     -2.761932   1.000000   1.000000
   14       -2.578566     -2.578609   1.000000   1.000000
   15       -1.934200     -1.934231   1.000000   1.000000
   16       -1.475112     -1.475148   1.000000   1.000000
   17       -0.326184     -0.326201   1.000000   1.000000
   18       -0.139723     -0.139733   1.000000   1.000000
   19        0.051034      0.051027   1.000000   1.000000
   20        0.463560      0.463532   1.000000   1.000000
   21        0.792655      0.792630   1.000000   1.000000
   22        1.187446      1.187427   1.000000   1.000000
   23        1.362522      1.362499   1.000000   1.000000
   24        1.443855      1.443828   1.000000   1.000000
   25        1.818862      1.818821   1.000000   1.000000
   26        2.357965      2.357954   1.000000   1.000000
   27        2.801434      2.801408   1.000000   1.000000
   28        3.268231      3.268227   1.000000   1.000000
   29       10.593593     10.593585   0.000000   0.000000
   30       10.814322     10.814307   0.000000   0.000000
   31       11.432817     11.432841   0.000000   0.000000
   32       11.713747     11.713792   0.000000   0.000000
   33       12.445680     12.445589   0.000000   0.000000
   34       12.673704     12.673710   0.000000   0.000000
   35       13.286372     13.286257   0.000000   0.000000
   36       13.595624     13.595625   0.000000   0.000000
   37       13.935433     13.935576   0.000000   0.000000
   38       14.595424     14.593989   0.000000   0.000000
   39       15.087178     15.087319   0.000000   0.000000
   40       15.837628     15.798675   0.000000   0.000000
 
 -0.4285714E+00  0.2857143E+00  0.0000000E+00  0.1166181E-01
    1      -39.472586    -39.472339   1.000000   1.000000
    2      -39.455941    -39.455693   1.000000   1.000000
    3      -39.449150    -39.448902   1.000000   1.000000
    4      -39.441897    -39.441649   1.000000   1.000000
    5      -16.895232    -16.895270   1.000000   1.000000
    6      -16.279667    -16.279714   1.000000   1.000000
    7      -14.828267    -14.828318   1.000000   1.000000
    8      -14.614852    -14.614908   1.000000   1.000000
    9      -12.580768    -12.580800   1.000000   1.000000
   10      -10.913483    -10.913508   1.000000   1.000000
   11       -6.508181     -6.508207   1.000000   1.000000
   12       -3.481377     -3.481390   1.000000   1.000000
   13       -2.764259     -2.764292   1.000000   1.000000
   14       -2.604508     -2.604536   1.000000   1.000000
   15       -1.982644     -1.982676   1.000000   1.000000
   16       -1.440117     -1.440151   1.000000   1.000000
   17       -0.455759     -0.455773   1.000000   1.000000
   18       -0.261682     -0.261689   1.000000   1.000000
   19        0.181216      0.181200   1.000000   1.000000