       N       E                     dE             d eps       ncg     rms          rms(c)
DAV:   1     0.418640092149E+03    0.41864E+03   -0.27703E+04 10248   0.147E+03
DAV:   2    -0.445852004320E+02   -0.46323E+03   -0.44437E+03 11952   0.378E+02
DAV:   3    -0.813760635773E+02   -0.36791E+02   -0.36615E+02 15016   0.989E+01
DAV:   4    -0.847669752609E+02   -0.33909E+01   -0.33780E+01 16664   0.236E+01
DAV:   5    -0.849709856219E+02   -0.20401E+00   -0.20400E+00 14312   0.452E+00    0.353E+01
RMM:   6    -0.766758916384E+02    0.82951E+01   -0.29858E+01 10900   0.232E+01    0.151E+01
RMM:   7    -0.771008710364E+02   -0.42498E+00   -0.49787E+00 15121   0.102E+01    0.755E+00
RMM:   8    -0.772880244107E+02   -0.18715E+00   -0.82140E-01 16606   0.478E+00    0.383E+00
RMM:   9    -0.773234897179E+02   -0.35465E-01   -0.29454E-01 16649   0.311E+00    0.109E+00
RMM:  10    -0.773512278666E+02   -0.27738E-01   -0.20289E-01 18978   0.189E+00    0.364E-01
RMM:  11    -0.773617029376E+02   -0.10475E-01   -0.86807E-02 19695   0.111E+00    0.289E-01
RMM:  12    -0.773659272395E+02   -0.42243E-02   -0.33250E-02 19929   0.687E-01    0.206E-01
RMM:  13    -0.773675307214E+02   -0.16035E-02   -0.12413E-02 19424   0.443E-01    0.765E-02
RMM:  14    -0.773682761290E+02   -0.74541E-03   -0.56192E-03 19746   0.305E-01    0.332E-02
RMM:  15    -0.773685466169E+02   -0.27049E-03   -0.23775E-03 19471   0.189E-01    0.304E-02
RMM:  16    -0.773686520715E+02   -0.10545E-03   -0.10222E-03 18998   0.119E-01    0.176E-02
RMM:  17    -0.773686869007E+02   -0.34829E-04   -0.36194E-04 18634   0.774E-02    0.592E-03
RMM:  18    -0.773687044983E+02   -0.17598E-04   -0.15474E-04 16831   0.521E-02    0.520E-03
RMM:  19    -0.773687081663E+02   -0.36681E-05   -0.38456E-05 13667   0.384E-02
   1 F= -.77368708E+02 E0= -.77368708E+02  d E =0.000000E+00  mag=    -0.0000
