   14   14    1    2
  0.1423632E+02  0.9426812E-09  0.8918191E-09  0.5034511E-09  0.5000000E-15
  1.000000000000000E-004
  CAR 
 unknown system                          
     80     64     56
 
  0.0000000E+00  0.0000000E+00  0.0000000E+00  0.2915452E-02
    1      -22.140513    -22.140326   1.000000   1.000000
    2      -21.467597    -21.467426   1.000000   1.000000
    3      -20.778864    -20.778688   1.000000   1.000000
    4      -19.546739    -19.546627   1.000000   1.000000
    5      -19.538917    -19.538805   1.000000   1.000000
    6      -19.480735    -19.480609   1.000000   1.000000
    7      -18.020631    -18.020455   1.000000   1.000000
    8      -17.660180    -17.660031   1.000000   1.000000
    9      -17.595144    -17.594998   1.000000   1.000000
   10      -17.578182    -17.578035   1.000000   1.000000
   11      -12.807922    -12.807676   1.000000   1.000000
   12      -11.229743    -11.229512   1.000000   1.000000
   13       -9.187075     -9.186861   1.000000   1.000000
   14       -7.892519     -7.892317   1.000000   1.000000
   15       -7.754830     -7.754633   1.000000   1.000000
   16       -7.462600     -7.462397   1.000000   1.000000
   17       -5.950864     -5.950646   1.000000   1.000000
   18       -5.754058     -5.753832   1.000000   1.000000
   19       -5.306890     -5.306633   1.000000   1.000000
   20       -4.269304     -4.269096   1.000000   1.000000
   21       -4.212340     -4.212178   1.000000   1.000000
   22       -4.194607     -4.194382   1.000000   1.000000
   23       -4.006488     -4.006305   1.000000   1.000000
   24       -3.965342     -3.965149   1.000000   1.000000
   25       -3.589327     -3.589167   1.000000   1.000000
   26       -3.401092     -3.400946   1.000000   1.000000
   27       -2.813044     -2.812862   1.000000   1.000000
   28       -2.488893     -2.488760   1.000000   1.000000
   29       -2.253518     -2.253388   1.000000   1.000000
   30       -2.172279     -2.172157   1.000000   1.000000
   31       -2.115525     -2.115395   1.000000   1.000000
   32       -1.668767     -1.668664   1.000000   1.000000
   33       -0.986333     -0.986169   1.000000   1.000000
   34       -0.976453     -0.976268   1.000000   1.000000
   35       -0.889978     -0.889823   1.000000   1.000000
   36       -0.797308     -0.797142   1.000000   1.000000
   37       -0.752382     -0.752208   1.000000   1.000000
   38       -0.626642     -0.626489   1.000000   1.000000
   39       -0.620705     -0.620553   1.000000   1.000000
   40       -0.494310     -0.494164   1.000000   1.000000
   41        3.830156      3.830419   0.000003   0.000000
   42        5.899120      5.899427   0.000000   0.000000
   43        6.425434      6.425504   0.000000   0.000000
   44        6.725517      6.725923   0.000000   0.000000
   45        7.060210      7.060570   0.000000   0.000000
   46        7.554662      7.555055   0.000000   0.000000
   47        7.774212      7.774637   0.000000   0.000000
   48        8.106754      8.106941   0.000000   0.000000
   49        8.118752      8.119141   0.000000   0.000000
   50        8.400299      8.400722   0.000000   0.000000
   51        9.033208      9.033626   0.000000   0.000000
   52        9.215572      9.215885   0.000000   0.000000
   53        9.299659      9.299836   0.000000   0.000000
   54        9.740381      9.740757   0.000000   0.000000
   55       10.402401     10.402469   0.000000   0.000000
   56       11.417248     11.416431   0.000000   0.000000
 
  0.1428571E+00 -0.2256067E-16  0.4516680E-14  0.2332362E-01
    1      -22.106173    -22.105985   1.000000   1.000000
    2      -21.453397    -21.453225   1.000000   1.000000
    3      -20.793108    -20.792933   1.000000   1.000000
    4      -19.634229    -19.634109   1.000000   1.000000
    5      -19.541361    -19.541248   1.000000   1.000000
    6      -19.488651    -19.488526   1.000000   1.000000
    7      -17.979701    -17.979529   1.000000   1.000000
    8      -17.662615    -17.662465   1.000000   1.000000
    9      -17.604841    -17.604694   1.000000   1.000000
   10      -17.583334    -17.583187   1.000000   1.000000
   11      -12.713152    -12.712908   1.000000   1.000000
   12      -11.169163    -11.168934   1.000000   1.000000
   13       -9.296384     -9.296169   1.000000   1.000000
   14       -7.961488     -7.961287   1.000000   1.000000
   15       -7.690242     -7.690045   1.000000   1.000000
   16       -7.447086     -7.446884   1.000000   1.000000
   17       -5.876519     -5.876300   1.000000   1.000000
   18       -5.697218     -5.696992   1.000000   1.000000
   19       -5.297537     -5.297282   1.000000   1.000000
   20       -4.403086     -4.402887   1.000000   1.000000
   21       -4.284003     -4.283791   1.000000   1.000000
   22       -4.184687     -4.184487   1.000000   1.000000
   23       -3.956731     -3.956548   1.000000   1.000000
   24       -3.875233     -3.875057   1.000000   1.000000
   25       -3.549049     -3.548886   1.000000   1.000000
   26       -3.461745     -3.461594   1.000000   1.000000
   27       -2.814549     -2.814373   1.000000   1.000000
   28       -2.521959     -2.521825   1.000000   1.000000
   29       -2.374127     -2.373991   1.000000   1.000000
   30       -2.241336     -2.241209   1.000000   1.000000
   31       -2.162982     -2.162854   1.000000   1.000000
   32       -1.709529     -1.709429   1.000000   1.000000
   33       -0.962522     -0.962343   1.000000   1.000000
   34       -0.949896     -0.949729   1.000000   1.000000
   35       -0.866941     -0.866784   1.000000   1.000000
   36       -0.798260     -0.798092   1.000000   1.000000
   37       -0.741176     -0.741005   1.000000   1.000000
   38       -0.657272     -0.657117   1.000000   1.000000
   39       -0.613556     -0.613401   1.000000   1.000000
   40       -0.520005     -0.519858   1.000000   1.000000
   41        4.033842      4.034112  -0.000000  -0.000000
   42        5.971424      5.971709   0.000000   0.000000
   43        6.606825      6.606929   0.000000   0.000000
   44        6.815062      6.815457   0.000000   0.000000
   45        7.128490      7.128849   0.000000   0.000000
   46        7.529219      7.529617   0.000000   0.000000
   47        7.790523      7.790932   0.000000   0.000000
   48        7.978131      7.978446   0.000000   0.000000
   49        8.212445      8.212773   0.000000   0.000000
   50        8.399590      8.399962   0.000000   0.000000
   51        8.922334      8.922717   0.000000   0.000000
   52        9.215546      9.215846   0.000000   0.000000
   53        9.364333      9.364555   0.000000   0.000000
   54        9.706413      9.706751   0.000000   0.000000
   55       10.458577     10.458720   0.000000   0.000000
   56       11.310791     11.309970   0.000000   0.000000
 
  0.2857143E+00 -0.1966918E-16 -0.5139580E-14  0.2332362E-01
    1      -22.023683    -22.023497   1.000000   1.000000
    2      -21.406871    -21.406698   1.000000   1.000000
    3      -20.849149    -20.848978   1.000000   1.000000
    4      -19.822778    -19.822644   1.000000   1.000000
    5      -19.541821    -19.541708   1.000000   1.000000
    6      -19.495852    -19.495727   1.000000   1.000000
    7      -17.910700    -17.910535   1.000000   1.000000
    8      -17.664621    -17.664472   1.000000   1.000000
    9      -17.627197    -17.627049   1.000000   1.000000
   10      -17.593416    -17.593269   1.000000   1.000000
   11      -12.497842    -12.497600   1.000000   1.000000
   12      -10.982344    -10.982118   1.000000   1.000000
   13       -9.592716     -9.592500   1.000000   1.000000
   14       -8.063242     -8.063041   1.000000   1.000000
   15       -7.615978     -7.615783   1.000000   1.000000
   16       -7.383836     -7.383636   1.000000   1.000000
   17       -5.699815     -5.699593   1.000000   1.000000
   18       -5.552994     -5.552766   1.000000   1.000000
   19       -5.268040     -5.267794   1.000000   1.000000
   20       -4.610134     -4.609920   1.000000   1.000000
   21       -4.434752     -4.434536   1.000000   1.000000
   22       -4.205741     -4.205544   1.000000   1.000000
   23       -3.899145     -3.898961   1.000000   1.000000
   24       -3.753553     -3.753389   1.000000   1.000000
   25       -3.624395     -3.624230   1.000000   1.000000
   26       -3.392725     -3.392565   1.000000   1.000000
   27       -2.849446     -2.849287   1.000000   1.000000
   28       -2.689474     -2.689327   1.000000   1.000000
   29       -2.519209     -2.519075   1.000000   1.000000
   30       -2.405326     -2.405196   1.000000   1.000000
   31       -2.250784     -2.250655   1.000000   1.000000
   32       -1.784892     -1.784793   1.000000   1.000000
   33       -0.937134     -0.936964   1.000000   1.000000
   34       -0.903298     -0.903122   1.000000   1.000000
   35       -0.831904     -0.831748   1.000000   1.000000
   36       -0.802751     -0.802583   1.000000   1.000000
   37       -0.750576     -0.750413   1.000000   1.000000
   38       -0.651746     -0.651579   1.000000   1.000000
   39       -0.596380     -0.596225   1.000000   1.000000
   40       -0.556039     -0.555889   1.000000   1.000000
   41        4.440427      4.440721   0.000000   0.000000
   42        6.191369      6.191633   0.000000   0.000000
   43        6.923745      6.924081   0.000000   0.000000
   44        7.020377      7.020617   0.000000   0.000000
   45        7.311970      7.312318   0.000000   0.000000
   46        7.479666      7.480058   0.000000   0.000000
   47        7.866171      7.866550   0.000000   0.000000
   48        7.972248      7.972606   0.000000   0.000000
   49        8.262093      8.262464   0.000000   0.000000
   50        8.438002      8.438331   0.000000   0.000000
   51        8.693346      8.693664   0.000000   0.000000
   52        9.185838      9.186115   0.000000   0.000000
   53        9.395300      9.395615   0.000000   0.000000
   54        9.638801      9.639013   0.000000   0.000000
   55       10.469007     10.469238   0.000000   0.000000
   56       11.063312     11.062445   0.000000   0.000000
 
  0.4285714E+00  0.2715909E-16 -0.4929052E-15  0.2332362E-01
    1      -21.952316    -21.952131   1.000000   1.000000
    2      -21.335412    -21.335235   1.000000   1.000000
    3      -20.941820    -20.941655   1.000000   1.000000
    4      -19.952903    -19.952759   1.000000   1.000000
    5      -19.542150    -19.542037   1.000000   1.000000
    6      -19.500621    -19.500496   1.000000   1.000000
    7      -17.874610    -17.874448   1.000000   1.000000
    8      -17.669188    -17.669039   1.000000   1.000000
    9      -17.629386    -17.629238   1.000000   1.000000
   10      -17.608218    -17.608071   1.000000   1.000000
   11      -12.325600    -12.325359   1.000000   1.000000
   12      -10.702411    -10.702188   1.000000   1.000000
   13       -9.957792     -9.957575   1.000000   1.000000
   14       -8.128389     -8.128186   1.000000   1.000000
   15       -7.581837     -7.581644   1.000000   1.000000
   16       -7.316023     -7.315826   1.000000   1.000000
   17       -5.520573     -5.520348   1.000000   1.000000
   18       -5.437847     -5.437611   1.000000   1.000000
   19       -5.195642     -5.195413   1.000000   1.000000
   20       -4.825282     -4.825056   1.000000   1.000000
   21       -4.530382     -4.530159   1.000000   1.000000
   22       -4.242910     -4.242722   1.000000   1.000000
   23       -3.965181     -3.964996   1.000000   1.000000
   24       -3.765626     -3.765451   1.000000   1.000000
   25       -3.551021     -3.550862   1.000000   1.000000
   26       -3.293591     -3.293423   1.000000   1.000000
   27       -2.943344     -2.943197   1.000000   1.000000
   28       -2.775611     -2.775472   1.000000   1.000000
   29       -2.637926     -2.637788   1.000000   1.000000
   30       -2.463731     -2.463595   1.000000   1.000000
   31       -2.364016     -2.363885   1.000000   1.000000
   32       -1.828384     -1.828284   1.000000   1.000000
   33       -0.985945     -0.985775   1.000000   1.000000
   34       -0.869943     -0.869762   1.000000   1.000000
   35       -0.833631     -0.833480   1.000000   1.000000
   36       -0.796610     -0.796445   1.000000   1.000000
   37       -0.703500     -0.703330   1.000000   1.000000
   38       -0.660687     -0.660527   1.000000   1.000000
   39       -0.579700     -0.579538   1.000000   1.000000
   40       -0.536895     -0.536746   1.000000   1.000000
   41        4.717672      4.717985   0.000000   0.000000
   42        6.467576      6.467872   0.000000   0.000000
   43        6.849514      6.849852   0.000000   0.000000
   44        7.308666      7.308995   0.000000   0.000000
   45        7.392893      7.393275   0.000000   0.000000
   46        7.684706      7.685006   0.000000   0.000000
   47        7.894358      7.894757   0.000000   0.000000
   48        8.096972      8.097333   0.000000   0.000000
   49        8.403765      8.404135   0.000000   0.000000
   50        8.472972      8.473268   0.000000   0.000000
   51        8.537718      8.538049   0.000000   0.000000
   52        9.157560      9.157847   0.000000   0.000000
   53        9.291903      9.292204   0.000000   0.000000
   54        9.595244      9.595401   0.000000   0.000000
   55       10.151531     10.151473   0.000000   0.000000
   56       10.926354     10.925716   0.000000   0.000000
 
  0.1428571E+00  0.1428571E+00  0.2190323E-16  0.5830904E-02
    1      -22.120768    -22.120581   1.000000   1.000000
    2      -21.540419    -21.540244   1.000000   1.000000
    3      -20.682356    -20.682183   1.000000   1.000000
    4      -19.558475    -19.558355   1.000000   1.000000
    5      -19.539122    -19.539010   1.000000   1.000000
    6      -19.531572    -19.531451   1.000000   1.000000
    7      -17.992313    -17.992139   1.000000   1.000000
    8      -17.674801    -17.674651   1.000000   1.000000
    9      -17.591158    -17.591012   1.000000   1.000000
   10      -17.578103    -17.577955   1.000000   1.000000
   11      -12.749875    -12.749630   1.000000   1.000000
   12      -11.353550    -11.353318   1.000000   1.000000
   13       -9.067293     -9.067079   1.000000   1.000000
   14       -7.914892     -7.914690   1.000000   1.000000
   15       -7.748255     -7.748059   1.000000   1.000000
   16       -7.497779     -7.497576   1.000000   1.000000
   17       -5.949509     -5.949290   1.000000   1.000000
   18       -5.784559     -5.784332   1.000000   1.000000
   19       -5.255815     -5.255561   1.000000   1.000000
   20       -4.319567     -4.319345   1.000000   1.000000
   21       -4.246010     -4.245803   1.000000   1.000000
   22       -4.190378     -4.190214   1.000000   1.000000
   23       -3.960432     -3.960249   1.000000   1.000000
   24       -3.958810     -3.958619   1.000000   1.000000
   25       -3.547330     -3.547168   1.000000   1.000000
   26       -3.411495     -3.411344   1.000000   1.000000
   27       -2.816464     -2.816286   1.000000   1.000000
   28       -2.549814     -2.549681   1.000000   1.000000
   29       -2.233560     -2.233422   1.000000   1.000000
   30       -2.135510     -2.135396   1.000000   1.000000
   31       -2.116663     -2.116532   1.000000   1.000000
   32       -1.683223     -1.683121   1.000000   1.000000
   33       -0.998189     -0.998023   1.000000   1.000000
   34       -0.974834     -0.974651   1.000000   1.000000
   35       -0.899795     -0.899637   1.000000   1.000000
   36       -0.836361     -0.836189   1.000000   1.000000
   37       -0.728454     -0.728286   1.000000   1.000000
   38       -0.630059     -0.629908   1.000000   1.000000
   39       -0.605528     -0.605375   1.000000   1.000000
   40       -0.496982     -0.496835   1.000000   1.000000
   41        3.931039      3.931300   0.000000   0.000000
   42        5.787641      5.787935   0.000000   0.000000
   43        6.450024      6.450120   0.000000   0.000000
   44        6.749193      6.749593   0.000000   0.000000
   45        7.122672      7.123010   0.000000   0.000000
   46        7.528868      7.529259   0.000000   0.000000
   47        7.772285      7.772708   0.000000   0.000000
   48        7.995872      7.996137   0.000000   0.000000
   49        8.085072      8.085464   0.000000   0.000000
   50        8.511389      8.511745   0.000000   0.000000
   51        8.973535      8.973910   0.000000   0.000000
   52        9.063706      9.063869   0.000000   0.000000
   53        9.297935      9.298286   0.000000   0.000000
   54        9.728162      9.728529   0.000000   0.000000
   55       10.685437     10.685577   0.000000   0.000000
   56       11.466625     11.465771   0.000000   0.000000
 
  0.2857143E+00  0.1428571E+00  0.1082465E-14  0.2332362E-01
    1      -22.067678    -22.067491   1.000000   1.000000
    2      -21.580449    -21.580273   1.000000   1.000000
    3      -20.623009    -20.622841   1.000000   1.000000
    4      -19.715493    -19.715362   1.000000   1.000000
    5      -19.541441    -19.541328   1.000000   1.000000
    6      -19.516285    -19.516165   1.000000   1.000000
    7      -17.935560    -17.935392   1.000000   1.000000
    8      -17.689254    -17.689103   1.000000   1.000000
    9      -17.598223    -17.598076   1.000000   1.000000
   10      -17.582807    -17.582660   1.000000   1.000000
   11      -12.601578    -12.601335   1.000000   1.000000
   12      -11.401202    -11.400970   1.000000   1.000000
   13       -9.077765     -9.077552   1.000000   1.000000
   14       -8.024183     -8.023980   1.000000   1.000000
   15       -7.683767     -7.683570   1.000000   1.000000
   16       -7.481208     -7.481007   1.000000   1.000000
   17       -5.875865     -5.875644   1.000000   1.000000
   18       -5.749351     -5.749122   1.000000   1.000000
   19       -5.203456     -5.203207   1.000000   1.000000
   20       -4.468812     -4.468591   1.000000   1.000000
   21       -4.353470     -4.353270   1.000000   1.000000
   22       -4.142610     -4.142422   1.000000   1.000000
   23       -3.922926     -3.922746   1.000000   1.000000
   24       -3.863853     -3.863679   1.000000   1.000000
   25       -3.548665     -3.548497   1.000000   1.000000
   26       -3.400177     -3.400026   1.000000   1.000000
   27       -2.838288     -2.838116   1.000000   1.000000
   28       -2.644700     -2.644560   1.000000   1.000000
   29       -2.319672     -2.319532   1.000000   1.000000
   30       -2.199996     -2.199864   1.000000   1.000000
   31       -2.140923     -2.140804   1.000000   1.000000
   32       -1.740387     -1.740287   1.000000   1.000000
   33       -0.976735     -0.976567   1.000000   1.000000
   34       -0.952666     -0.952486   1.000000   1.000000
   35       -0.880370     -0.880208   1.000000   1.000000
   36       -0.847620     -0.847451   1.000000   1.000000
   37       -0.710674     -0.710508   1.000000   1.000000
   38       -0.647465     -0.647311   1.000000   1.000000
   39       -0.603299     -0.603145   1.000000   1.000000
   40       -0.524318     -0.524170   1.000000   1.000000
   41        4.215446      4.215714   0.000000   0.000000
   42        5.771195      5.771471   0.000000   0.000000
   43        6.633616      6.633762   0.000000   0.000000
   44        6.862802      6.863190   0.000000   0.000000
   45        7.245187      7.245504   0.000000   0.000000
   46        7.484064      7.484467   0.000000   0.000000
   47        7.776699      7.777102   0.000000   0.000000
   48        7.881720      7.882053   0.000000   0.000000
   49        8.122100      8.122467   0.000000   0.000000
   50        8.520479      8.520781   0.000000   0.000000
   51        8.795094      8.795391   0.000000   0.000000
   52        9.056679      9.056935   0.000000   0.000000
   53        9.342379      9.342723   0.000000   0.000000
   54        9.687482      9.687825   0.000000   0.000000
   55       10.883851     10.884061   0.000000   0.000000
   56       11.417534     11.415920   0.000000   0.000000
 
  0.4285714E+00  0.1428571E+00 -0.5056972E-14  0.2332362E-01
    1      -21.977539    -21.977354   1.000000   1.000000
    2      -21.555542    -21.555364   1.000000   1.000000
    3      -20.659541    -20.659377   1.000000   1.000000
    4      -19.914465    -19.914324   1.000000   1.000000
    5      -19.541822    -19.541710   1.000000   1.000000
    6      -19.510355    -19.510233   1.000000   1.000000
    7      -17.875488    -17.875326   1.000000   1.000000
    8      -17.692200    -17.692049   1.000000   1.000000
    9      -17.620583    -17.620435   1.000000   1.000000
   10      -17.591355    -17.591208   1.000000   1.000000
   11      -12.370974    -12.370733   1.000000   1.000000
   12      -11.273198    -11.272969   1.000000   1.000000
   13       -9.335719     -9.335506   1.000000   1.000000
   14       -8.140188     -8.139985   1.000000   1.000000
   15       -7.627969     -7.627773   1.000000   1.000000
   16       -7.376934     -7.376738   1.000000   1.000000
   17       -5.702449     -5.702224   1.000000   1.000000
   18       -5.612600     -5.612370   1.000000   1.000000
   19       -5.145564     -5.145323   1.000000   1.000000
   20       -4.676509     -4.676286   1.000000   1.000000
   21       -4.498469     -4.498254   1.000000   1.000000
   22       -4.152120     -4.151931   1.000000   1.000000
   23       -3.899796     -3.899618   1.000000   1.000000
   24       -3.798958     -3.798788   1.000000   1.000000
   25       -3.566073     -3.565906   1.000000   1.000000
   26       -3.303597     -3.303442   1.000000   1.000000
   27       -2.968484     -2.968323   1.000000   1.000000
   28       -2.732918     -2.732767   1.000000   1.000000
   29       -2.495399     -2.495264   1.000000   1.000000
   30       -2.362361     -2.362226   1.000000   1.000000
   31       -2.224672     -2.224547   1.000000   1.000000
   32       -1.811560     -1.811461   1.000000   1.000000
   33       -0.966852     -0.966685   1.000000   1.000000
   34       -0.901063     -0.900883   1.000000   1.000000
   35       -0.842190     -0.842028   1.000000   1.000000
   36       -0.788514     -0.788354   1.000000   1.000000
   37       -0.757357     -0.757194   1.000000   1.000000
   38       -0.651184     -0.651015   1.000000   1.000000
   39       -0.591850     -0.591698   1.000000   1.000000
   40       -0.549903     -0.549750   1.000000   1.000000
   41        4.623341      4.623633   0.000000   0.000000
   42        5.968443      5.968705   0.000000   0.000000
   43        6.975272      6.975564   0.000000   0.000000
   44        7.061891      7.062222   0.000000   0.000000
   45        7.341600      7.341967   0.000000   0.000000
   46        7.516929      7.517270   0.000000   0.000000
   47        7.807618      7.807994   0.000000   0.000000
   48        7.952368      7.952726   0.000000   0.000000
   49        8.191876      8.192225   0.000000   0.000000
   50        8.488219      8.488490   0.000000   0.000000
   51        8.611269      8.611577   0.000000   0.000000
   52        9.079386      9.079673   0.000000   0.000000
   53        9.340464      9.340772   0.000000   0.000000
   54        9.598845      9.599108   0.000000   0.000000
   55       10.743782     10.743777   0.000000   0.000000
   56       11.192624     11.192076   0.000000   0.000000
 
 -0.4285714E+00  0.1428571E+00 -0.4064369E-14  0.2332362E-01
    1      -21.932933    -21.932748   1.000000   1.000000
    2      -21.421060    -21.420882   1.000000   1.000000
    3      -20.843123    -20.842960   1.000000   1.000000
    4      -19.986670    -19.986525   1.000000   1.000000
    5      -19.542139    -19.542027   1.000000   1.000000
    6      -19.505243    -19.505119   1.000000   1.000000
    7      -17.863554    -17.863393   1.000000   1.000000
    8      -17.677814    -17.677665   1.000000   1.000000
    9      -17.629331    -17.629183   1.000000   1.000000
   10      -17.605771    -17.605624   1.000000   1.000000
   11      -12.275292    -12.275052   1.000000   1.000000
   12      -10.887483    -10.887258   1.000000   1.000000
   13       -9.790284     -9.790069   1.000000   1.000000
   14       -8.157441     -8.157238   1.000000   1.000000
   15       -7.589372     -7.589178   1.000000   1.000000
   16       -7.307368     -7.307172   1.000000   1.000000
   17       -5.517018     -5.516789   1.000000   1.000000
   18       -5.477706     -5.477474   1.000000   1.000000
   19       -5.110085     -5.109858   1.000000   1.000000
   20       -4.870329     -4.870100   1.000000   1.000000
   21       -4.561745     -4.561521   1.000000   1.000000
   22       -4.226774     -4.226589   1.000000   1.000000
   23       -3.957248     -3.957065   1.000000   1.000000
   24       -3.782748     -3.782571   1.000000   1.000000
   25       -3.523461     -3.523302   1.000000   1.000000
   26       -3.264074     -3.263906   1.000000   1.000000
   27       -3.010318     -3.010173   1.000000   1.000000
   28       -2.782687     -2.782545   1.000000   1.000000
   29       -2.598059     -2.597921   1.000000   1.000000
   30       -2.483666     -2.483531   1.000000   1.000000
   31       -2.343932     -2.343802   1.000000   1.000000
   32       -1.836433     -1.836332   1.000000   1.000000
   33       -1.000192     -1.000022   1.000000   1.000000
   34       -0.861962     -0.861781   1.000000   1.000000
   35       -0.825910     -0.825758   1.000000   1.000000
   36       -0.795904     -0.795740   1.000000   1.000000
   37       -0.708775     -0.708606   1.000000   1.000000
   38       -0.673634     -0.673471   1.000000   1.000000
   39       -0.571966     -0.571803   1.000000   1.000000
   40       -0.533798     -0.533648   1.000000   1.000000
   41        4.785435      4.785746   0.000000   0.000000
   42        6.344764      6.345058   0.000000   0.000000
   43        6.918135      6.918481   0.000000   0.000000
   44        7.312750      7.313105   0.000000   0.000000
   45        7.395605      7.395965   0.000000   0.000000
   46        7.648270      7.648605   0.000000   0.000000
   47        7.965025      7.965396   0.000000   0.000000
   48        8.080910      8.081276   0.000000   0.000000
   49        8.362720      8.363041   0.000000   0.000000
   50        8.412221      8.412507   0.000000   0.000000
   51        8.626267      8.626611   0.000000   0.000000
   52        9.024162      9.024501   0.000000   0.000000
   53        9.322245      9.322478   0.000000   0.000000
   54        9.547940      9.548087   0.000000   0.000000
   55       10.237024     10.236947   0.000000   0.000000
   56       10.982456     10.981841   0.000000   0.000000
 
 -0.2857143E+00  0.1428571E+00  0.5152784E-15  0.2332362E-01
    1      -21.966034    -21.965849   1.000000   1.000000
    2      -21.222018    -21.221843   1.000000   1.000000
    3      -21.065019    -21.064852   1.000000   1.000000
    4      -19.928606    -19.928465   1.000000   1.000000
    5      -19.542166    -19.542054   1.000000   1.000000
    6      -19.496719    -19.496594   1.000000   1.000000
    7      -17.883022    -17.882860   1.000000   1.000000
    8      -17.663122    -17.662973   1.000000   1.000000
    9      -17.627932    -17.627784   1.000000   1.000000
   10      -17.611417    -17.611269   1.000000   1.000000
   11      -12.362033    -12.361792   1.000000   1.000000
   12      -10.456341    -10.456120   1.000000   1.000000
   13      -10.192060    -10.191842   1.000000   1.000000
   14       -8.107617     -8.107415   1.000000   1.000000
   15       -7.573802     -7.573608   1.000000   1.000000
   16       -7.324040     -7.323843   1.000000   1.000000
   17       -5.521188     -5.520964   1.000000   1.000000
   18       -5.390226     -5.389984   1.000000   1.000000
   19       -5.268581     -5.268355   1.000000   1.000000
   20       -4.809726     -4.809500   1.000000   1.000000
   21       -4.476007     -4.475782   1.000000   1.000000
   22       -4.303525     -4.303337   1.000000   1.000000
   23       -3.892574     -3.892392   1.000000   1.000000
   24       -3.806389     -3.806211   1.000000   1.000000
   25       -3.571010     -3.570852   1.000000   1.000000
   26       -3.318481     -3.318313   1.000000   1.000000
   27       -2.894079     -2.893934   1.000000   1.000000
   28       -2.746263     -2.746121   1.000000   1.000000
   29       -2.679140     -2.679006   1.000000   1.000000
   30       -2.452161     -2.452025   1.000000   1.000000
   31       -2.383693     -2.383561   1.000000   1.000000
   32       -1.824876     -1.824775   1.000000   1.000000
   33       -0.965748     -0.965577   1.000000   1.000000
   34       -0.882976     -0.882801   1.000000   1.000000
   35       -0.842058     -0.841896   1.000000   1.000000
   36       -0.801018     -0.800858   1.000000   1.000000
   37       -0.684436     -0.684265   1.000000   1.000000
   38       -0.659868     -0.659711   1.000000   1.000000
   39       -0.585434     -0.585270   1.000000   1.000000
   40       -0.540313     -0.540164   1.000000   1.000000
   41        4.669443      4.669756   0.000000   0.000000
   42        6.597103      6.597399   0.000000   0.000000
   43        6.742955      6.743285   0.000000   0.000000
   44        7.355917      7.356256   0.000000   0.000000
   45        7.405779      7.406128   0.000000   0.000000
   46        7.550770      7.551129   0.000000   0.000000
   47        8.022576      8.022932   0.000000   0.000000
   48        8.102897      8.103253   0.000000   0.000000
   49        8.406954      8.407309   0.000000   0.000000
   50        8.446889      8.447285   0.000000   0.000000
   51        8.603571      8.603857   0.000000   0.000000
   52        8.987436      8.987725   0.000000   0.000000
   53        9.385538      9.385777   0.000000   0.000000
   54        9.775545      9.775744   0.000000   0.000000
   55        9.996136      9.996216   0.000000   0.000000
   56       10.887640     10.886795   0.000000   0.000000
 