       N       E                     dE             d eps       ncg     rms          rms(c)
DAV:   1     0.515496824715E+03    0.51550E+03   -0.41888E+04 14400   0.131E+03
DAV:   2    -0.728795430015E+02   -0.58838E+03   -0.57049E+03 18048   0.312E+02
DAV:   3    -0.109702015764E+03   -0.36822E+02   -0.36531E+02 17696   0.819E+01
DAV:   4    -0.110196438150E+03   -0.49442E+00   -0.49285E+00 17408   0.104E+01
DAV:   5    -0.110205041640E+03   -0.86035E-02   -0.86010E-02 17208   0.133E+00    0.402E+01
DAV:   6    -0.930010934282E+02    0.17204E+02   -0.49683E+01 16752   0.327E+01    0.198E+01
DAV:   7    -0.971901480651E+02   -0.41891E+01   -0.87443E+00 16488   0.115E+01    0.631E+00
DAV:   8    -0.981203777830E+02   -0.93023E+00   -0.18746E+00 17264   0.502E+00    0.267E+00
DAV:   9    -0.981131789380E+02    0.71988E-02   -0.85623E-02 16424   0.163E+00    0.128E+00
DAV:  10    -0.981133843100E+02   -0.20537E-03   -0.21834E-02 18296   0.853E-01    0.371E-01
DAV:  11    -0.981141012274E+02   -0.71692E-03   -0.33977E-03 16512   0.311E-01    0.231E-01
DAV:  12    -0.981146030466E+02   -0.50182E-03   -0.15876E-03 17312   0.197E-01    0.101E-01
DAV:  13    -0.981146662077E+02   -0.63161E-04   -0.91791E-05 16560   0.630E-02    0.452E-02
DAV:  14    -0.981146903416E+02   -0.24134E-04   -0.10636E-04 16600   0.548E-02    0.181E-02
DAV:  15    -0.981146924997E+02   -0.21581E-05   -0.93111E-06 11288   0.211E-02
   1 F= -.98114692E+02 E0= -.98114692E+02  d E =0.000000E+00  mag=    -0.0002
