 running on   24 total cores
 distrk:  each k-point on   24 cores,    1 groups
 distr:  one band on    6 cores,    4 groups
 using from now: INCAR     
 vasp.6.1.2 22Jul20 (build Mar 31 2021 18:09:49) complex                        
  
 POSCAR found type information on POSCAR LiP 
 POSCAR found :  2 types and       8 ions
 scaLAPACK will be used
 -----------------------------------------------------------------------------
|                                                                             |
|               ----> ADVICE to this user running VASP <----                  |
|                                                                             |
|     You have a (more or less) 'small supercell' and for smaller cells       |
|     it is recommended to use the reciprocal-space projection scheme!        |
|     The real-space optimization is not efficient for small cells and it     |
|     is also less accurate ...                                               |
|     Therefore, set LREAL=.FALSE. in the INCAR file.                         |
|                                                                             |
 -----------------------------------------------------------------------------

 LDA part: xc-table for Pade appr. of Perdew
 generate k-points for:    9    9    4
 POSCAR, INCAR and KPOINTS ok, starting setup
 FFT: planning ...
 WAVECAR not read
 entering main loop
       N       E                     dE             d eps       ncg     rms          rms(c)
DAV:   1     0.158739700968E+03    0.15874E+03   -0.11823E+04  9120   0.118E+03
DAV:   2     0.195919381734E+01   -0.15678E+03   -0.14815E+03  9928   0.299E+02
DAV:   3    -0.238236282274E+02   -0.25783E+02   -0.25545E+02 16744   0.698E+01
DAV:   4    -0.263228567294E+02   -0.24992E+01   -0.24825E+01 13224   0.305E+01
DAV:   5    -0.265231695569E+02   -0.20031E+00   -0.20030E+00 14688   0.664E+00    0.149E+01
RMM:   6    -0.269864195203E+02   -0.46325E+00   -0.16361E+00 11136   0.632E+00    0.755E+00
RMM:   7    -0.276900152286E+02   -0.70360E+00   -0.49892E-01 12653   0.427E+00    0.284E+00
RMM:   8    -0.277602352515E+02   -0.70220E-01   -0.38621E-01 14432   0.285E+00    0.118E+00
RMM:   9    -0.277689692343E+02   -0.87340E-02   -0.96836E-02 15205   0.170E+00    0.517E-01
RMM:  10    -0.277773002575E+02   -0.83310E-02   -0.43020E-02 15891   0.102E+00    0.266E-01
RMM:  11    -0.277795278551E+02   -0.22276E-02   -0.16303E-02 16254   0.597E-01    0.196E-01
RMM:  12    -0.277803375133E+02   -0.80966E-03   -0.62566E-03 15920   0.452E-01    0.519E-02
RMM:  13    -0.277809387836E+02   -0.60127E-03   -0.34995E-03 16331   0.278E-01    0.184E-02
RMM:  14    -0.277811644861E+02   -0.22570E-03   -0.18368E-03 15966   0.183E-01    0.224E-02
RMM:  15    -0.277812646642E+02   -0.10018E-03   -0.86185E-04 14320   0.123E-01    0.199E-02
RMM:  16    -0.277813177205E+02   -0.53056E-04   -0.46753E-04 14171   0.900E-02    0.285E-02
WARNING in EDDRMM: call to ZHEGV failed, returncode =   6  3      3
RMM:  17    -0.277813373831E+02   -0.19663E-04   -0.26372E-04 13801   0.748E-02    0.151E-02
RMM:  18    -0.277813553353E+02   -0.17952E-04   -0.16689E-04 13228   0.557E-02    0.130E-02
RMM:  19    -0.277813649583E+02   -0.96231E-05   -0.10478E-04 11779   0.451E-02    0.104E-02
RMM:  20    -0.277813705406E+02   -0.55823E-05   -0.60603E-05 10745   0.380E-02
   1 F= -.27781371E+02 E0= -.27781371E+02  d E =0.000000E+00  mag=    -0.0001
