 running on    8 total cores
 distrk:  each k-point on    8 cores,    1 groups
 distr:  one band on    1 cores,    8 groups
 using from now: INCAR     
 vasp.6.1.2 22Jul20 (build Mar 20 2021 11:25:07) complex                        
  
 POSCAR found type information on POSCAR LiP 
 POSCAR found :  2 types and       8 ions
 scaLAPACK will be used
 -----------------------------------------------------------------------------
|                                                                             |
|           W    W    AA    RRRRR   N    N  II  N    N   GGGG   !!!           |
|           W    W   A  A   R    R  NN   N  II  NN   N  G    G  !!!           |
|           W    W  A    A  R    R  N N  N  II  N N  N  G       !!!           |
|           W WW W  AAAAAA  RRRRR   N  N N  II  N  N N  G  GGG   !            |
|           WW  WW  A    A  R   R   N   NN  II  N   NN  G    G                |
|           W    W  A    A  R    R  N    N  II  N    N   GGGG   !!!           |
|                                                                             |
|     The value NCORE = 6 specified in the INCAR file was overwritten,        |
|     because it was not compatible with the 8 processes available:           |
|     NCORE = 1                                                               |
|     was used instead, please check that this makes sense for your           |
|     machine.                                                                |
|                                                                             |
 -----------------------------------------------------------------------------

 -----------------------------------------------------------------------------
|                                                                             |
|           W    W    AA    RRRRR   N    N  II  N    N   GGGG   !!!           |
|           W    W   A  A   R    R  NN   N  II  NN   N  G    G  !!!           |
|           W    W  A    A  R    R  N N  N  II  N N  N  G       !!!           |
|           W WW W  AAAAAA  RRRRR   N  N N  II  N  N N  G  GGG   !            |
|           WW  WW  A    A  R   R   N   NN  II  N   NN  G    G                |
|           W    W  A    A  R    R  N    N  II  N    N   GGGG   !!!           |
|                                                                             |
|     For optimal performance we recommend to set                             |
|       NCORE = 4 - approx SQRT(number of cores).                             |
|     NCORE specifies how many cores store one orbital (NPAR=cpu/NCORE).      |
|     This setting can greatly improve the performance of VASP for DFT.       |
|     The default, NCORE=1 might be grossly inefficient on modern             |
|     multi-core architectures or massively parallel machines. Do your        |
|     own testing!!!!                                                         |
|     Unfortunately you need to use the default for GW and RPA                |
|     calculations (for HF NCORE is supported but not extensively tested      |
|     yet).                                                                   |
|                                                                             |
 -----------------------------------------------------------------------------

 -----------------------------------------------------------------------------
|                                                                             |
|               ----> ADVICE to this user running VASP <----                  |
|                                                                             |
|     You have a (more or less) 'small supercell' and for smaller cells       |
|     it is recommended to use the reciprocal-space projection scheme!        |
|     The real-space optimization is not efficient for small cells and it     |
|     is also less accurate ...                                               |
|     Therefore, set LREAL=.FALSE. in the INCAR file.                         |
|                                                                             |
 -----------------------------------------------------------------------------

 LDA part: xc-table for Pade appr. of Perdew
 -----------------------------------------------------------------------------
|                                                                             |
|           W    W    AA    RRRRR   N    N  II  N    N   GGGG   !!!           |
|           W    W   A  A   R    R  NN   N  II  NN   N  G    G  !!!           |
|           W    W  A    A  R    R  N N  N  II  N N  N  G       !!!           |
|           W WW W  AAAAAA  RRRRR   N  N N  II  N  N N  G  GGG   !            |
|           WW  WW  A    A  R   R   N   NN  II  N   NN  G    G                |
|           W    W  A    A  R    R  N    N  II  N    N   GGGG   !!!           |
|                                                                             |
|     The determination of the symmetry of your systems shows a strong        |
|     dependence on the tolerance parameter SYMPREC. This is often the        |
|     result of "noise" in the structural parameters (lattice vectors         |
|     and/or ionic positions). Set NWRITE=3 for more details.                 |
|                                                                             |
 -----------------------------------------------------------------------------

 generate k-points for:    9    9    4
 POSCAR, INCAR and KPOINTS ok, starting setup
 FFT: planning ...
 WAVECAR not read
 entering main loop
       N       E                     dE             d eps       ncg     rms          rms(c)
DAV:   1     0.163302246027E+03    0.16330E+03   -0.11892E+04  3464   0.119E+03
DAV:   2     0.216594711765E+01   -0.16114E+03   -0.15174E+03  3800   0.305E+02
DAV:   3    -0.239513905137E+02   -0.26117E+02   -0.25857E+02  6328   0.709E+01
DAV:   4    -0.264180000142E+02   -0.24666E+01   -0.24514E+01  4976   0.299E+01
DAV:   5    -0.265874033133E+02   -0.16940E+00   -0.16939E+00  5504   0.632E+00    0.149E+01
RMM:   6    -0.270977729706E+02   -0.51037E+00   -0.15813E+00  4191   0.621E+00    0.762E+00
RMM:   7    -0.277793845459E+02   -0.68161E+00   -0.47661E-01  4631   0.416E+00    0.297E+00
RMM:   8    -0.278423218437E+02   -0.62937E-01   -0.40584E-01  5361   0.290E+00    0.123E+00
RMM:   9    -0.278512963203E+02   -0.89745E-02   -0.95805E-02  5614   0.171E+00    0.541E-01
RMM:  10    -0.278597931661E+02   -0.84968E-02   -0.42884E-02  5936   0.999E-01    0.271E-01
RMM:  11    -0.278618092260E+02   -0.20161E-02   -0.14963E-02  6016   0.573E-01    0.203E-01
RMM:  12    -0.278625231901E+02   -0.71396E-03   -0.52494E-03  5833   0.434E-01    0.506E-02
RMM:  13    -0.278630687609E+02   -0.54557E-03   -0.30969E-03  6081   0.262E-01    0.172E-02
RMM:  14    -0.278632511981E+02   -0.18244E-03   -0.14588E-03  5975   0.165E-01    0.212E-02
RMM:  15    -0.278633277631E+02   -0.76565E-04   -0.66223E-04  5267   0.108E-01    0.188E-02
RMM:  16    -0.278633653615E+02   -0.37598E-04   -0.34194E-04  5165   0.776E-02    0.267E-02
RMM:  17    -0.278633803837E+02   -0.15022E-04   -0.18855E-04  5025   0.631E-02    0.140E-02
RMM:  18    -0.278633916646E+02   -0.11281E-04   -0.10563E-04  4496   0.460E-02    0.120E-02
RMM:  19    -0.278633981803E+02   -0.65157E-05   -0.72747E-05  4235   0.390E-02
   1 F= -.27863398E+02 E0= -.27863398E+02  d E =0.000000E+00  mag=    -0.0001
