 running on    8 total cores
 distrk:  each k-point on    8 cores,    1 groups
 distr:  one band on    1 cores,    8 groups
 using from now: INCAR     
 vasp.6.1.2 22Jul20 (build Mar 20 2021 11:25:07) complex                        
  
 POSCAR found type information on POSCAR LiP O 
 POSCAR found :  3 types and      16 ions
 scaLAPACK will be used
 -----------------------------------------------------------------------------
|                                                                             |
|           W    W    AA    RRRRR   N    N  II  N    N   GGGG   !!!           |
|           W    W   A  A   R    R  NN   N  II  NN   N  G    G  !!!           |
|           W    W  A    A  R    R  N N  N  II  N N  N  G       !!!           |
|           W WW W  AAAAAA  RRRRR   N  N N  II  N  N N  G  GGG   !            |
|           WW  WW  A    A  R   R   N   NN  II  N   NN  G    G                |
|           W    W  A    A  R    R  N    N  II  N    N   GGGG   !!!           |
|                                                                             |
|     The value NCORE = 6 specified in the INCAR file was overwritten,        |
|     because it was not compatible with the 8 processes available:           |
|     NCORE = 1                                                               |
|     was used instead, please check that this makes sense for your           |
|     machine.                                                                |
|                                                                             |
 -----------------------------------------------------------------------------

 -----------------------------------------------------------------------------
|                                                                             |
|           W    W    AA    RRRRR   N    N  II  N    N   GGGG   !!!           |
|           W    W   A  A   R    R  NN   N  II  NN   N  G    G  !!!           |
|           W    W  A    A  R    R  N N  N  II  N N  N  G       !!!           |
|           W WW W  AAAAAA  RRRRR   N  N N  II  N  N N  G  GGG   !            |
|           WW  WW  A    A  R   R   N   NN  II  N   NN  G    G                |
|           W    W  A    A  R    R  N    N  II  N    N   GGGG   !!!           |
|                                                                             |
|     For optimal performance we recommend to set                             |
|       NCORE = 4 - approx SQRT(number of cores).                             |
|     NCORE specifies how many cores store one orbital (NPAR=cpu/NCORE).      |
|     This setting can greatly improve the performance of VASP for DFT.       |
|     The default, NCORE=1 might be grossly inefficient on modern             |
|     multi-core architectures or massively parallel machines. Do your        |
|     own testing!!!!                                                         |
|     Unfortunately you need to use the default for GW and RPA                |
|     calculations (for HF NCORE is supported but not extensively tested      |
|     yet).                                                                   |
|                                                                             |
 -----------------------------------------------------------------------------

 LDA part: xc-table for Pade appr. of Perdew
 generate k-points for:    7    6    5
 POSCAR, INCAR and KPOINTS ok, starting setup
 FFT: planning ...
 WAVECAR not read
 entering main loop
       N       E                     dE             d eps       ncg     rms          rms(c)
DAV:   1     0.602030138027E+03    0.60203E+03   -0.36348E+04 14784   0.142E+03
DAV:   2    -0.449159671647E+02   -0.64695E+03   -0.61066E+03 17064   0.373E+02
DAV:   3    -0.102886020576E+03   -0.57970E+02   -0.57631E+02 20672   0.104E+02
DAV:   4    -0.108185640898E+03   -0.52996E+01   -0.52663E+01 24768   0.263E+01
DAV:   5    -0.108678117965E+03   -0.49248E+00   -0.49234E+00 20840   0.559E+00    0.372E+01
RMM:   6    -0.987858220156E+02    0.98923E+01   -0.38278E+01 16132   0.219E+01    0.148E+01
RMM:   7    -0.998323811860E+02   -0.10466E+01   -0.38367E+00 21313   0.754E+00    0.792E+00
RMM:   8    -0.100030917953E+03   -0.19854E+00   -0.87480E-01 23878   0.393E+00    0.395E+00
RMM:   9    -0.100103527944E+03   -0.72610E-01   -0.31751E-01 24126   0.280E+00    0.809E-01
RMM:  10    -0.100132024602E+03   -0.28497E-01   -0.22015E-01 27637   0.161E+00    0.363E-01
RMM:  11    -0.100146008725E+03   -0.13984E-01   -0.96900E-02 28324   0.996E-01    0.284E-01
RMM:  12    -0.100152084275E+03   -0.60755E-02   -0.39354E-02 28650   0.616E-01    0.163E-01
RMM:  13    -0.100154280532E+03   -0.21963E-02   -0.15302E-02 28036   0.415E-01    0.704E-02
RMM:  14    -0.100155207042E+03   -0.92651E-03   -0.76557E-03 28487   0.288E-01    0.323E-02
RMM:  15    -0.100155574685E+03   -0.36764E-03   -0.33438E-03 27913   0.181E-01    0.249E-02
RMM:  16    -0.100155738469E+03   -0.16378E-03   -0.15228E-03 27532   0.121E-01    0.148E-02
RMM:  17    -0.100155810241E+03   -0.71772E-04   -0.62851E-04 26900   0.829E-02    0.973E-03
RMM:  18    -0.100155841125E+03   -0.30883E-04   -0.30427E-04 26298   0.554E-02    0.698E-03
RMM:  19    -0.100155850745E+03   -0.96206E-05   -0.12072E-04 25247   0.397E-02    0.757E-03
RMM:  20    -0.100155856113E+03   -0.53682E-05   -0.35173E-05 19868   0.290E-02
   1 F= -.10015586E+03 E0= -.10015586E+03  d E =0.000000E+00  mag=    -0.0000
