 running on   24 total cores
 distrk:  each k-point on   24 cores,    1 groups
 distr:  one band on    6 cores,    4 groups
 using from now: INCAR     
 vasp.6.1.2 22Jul20 (build Mar 31 2021 18:09:49) complex                        
  
 POSCAR found type information on POSCAR LiO 
 POSCAR found :  2 types and       8 ions
 scaLAPACK will be used
 -----------------------------------------------------------------------------
|                                                                             |
|               ----> ADVICE to this user running VASP <----                  |
|                                                                             |
|     You have a (more or less) 'small supercell' and for smaller cells       |
|     it is recommended to use the reciprocal-space projection scheme!        |
|     The real-space optimization is not efficient for small cells and it     |
|     is also less accurate ...                                               |
|     Therefore, set LREAL=.FALSE. in the INCAR file.                         |
|                                                                             |
 -----------------------------------------------------------------------------

 LDA part: xc-table for Pade appr. of Perdew
 generate k-points for:   12   12    4
 POSCAR, INCAR and KPOINTS ok, starting setup
 FFT: planning ...
 WAVECAR not read
 entering main loop
       N       E                     dE             d eps       ncg     rms          rms(c)
DAV:   1     0.252968157524E+03    0.25297E+03   -0.17315E+04 18368   0.137E+03
DAV:   2    -0.145319209095E+02   -0.26750E+03   -0.25721E+03 21920   0.348E+02
DAV:   3    -0.375066861886E+02   -0.22975E+02   -0.22780E+02 29488   0.848E+01
DAV:   4    -0.392390348530E+02   -0.17323E+01   -0.17251E+01 27396   0.215E+01
DAV:   5    -0.392851635394E+02   -0.46129E-01   -0.46126E-01 25916   0.310E+00    0.178E+01
RMM:   6    -0.381690561185E+02    0.11161E+01   -0.45075E+00 20468   0.109E+01    0.783E+00
RMM:   7    -0.387754093352E+02   -0.60635E+00   -0.68221E-01 23149   0.507E+00    0.389E+00
RMM:   8    -0.388529751119E+02   -0.77566E-01   -0.30718E-01 27108   0.315E+00    0.156E+00
RMM:   9    -0.388635710815E+02   -0.10596E-01   -0.10486E-01 28756   0.204E+00    0.385E-01
RMM:  10    -0.388731101463E+02   -0.95391E-02   -0.53946E-02 32399   0.115E+00    0.187E-01
RMM:  11    -0.388769202465E+02   -0.38101E-02   -0.20709E-02 33047   0.669E-01    0.126E-01
RMM:  12    -0.388782311694E+02   -0.13109E-02   -0.87214E-03 34287   0.402E-01    0.914E-02
RMM:  13    -0.388786458236E+02   -0.41465E-03   -0.32360E-03 32855   0.273E-01    0.375E-02
RMM:  14    -0.388789075594E+02   -0.26174E-03   -0.16444E-03 33368   0.191E-01    0.903E-03
RMM:  15    -0.388789984845E+02   -0.90925E-04   -0.75551E-04 31626   0.112E-01    0.935E-03
RMM:  16    -0.388790331012E+02   -0.34617E-04   -0.31577E-04 30478   0.741E-02    0.604E-03
RMM:  17    -0.388790464047E+02   -0.13304E-04   -0.12459E-04 28185   0.511E-02    0.338E-03
RMM:  18    -0.388790508290E+02   -0.44243E-05   -0.45682E-05 24078   0.374E-02
   1 F= -.38879051E+02 E0= -.38879051E+02  d E =0.000000E+00  mag=    -0.0000
