    4    4    1    2
  0.1043520E+02  0.3395142E-09  0.3650690E-09  0.3888635E-09  0.5000000E-15
  1.000000000000000E-004
  CAR 
 unknown system                          
     14    280     12
 
  0.0000000E+00  0.0000000E+00  0.0000000E+00  0.1136364E-02
    1      -42.749866    -42.749759   1.000000   1.000000
    2      -42.551709    -42.551690   1.000000   1.000000
    3      -42.287633    -42.287517   1.000000   1.000000
    4       -9.908197     -9.908220   1.000000   1.000000
    5       -0.137025     -0.137049   1.000000   1.000000
    6        1.367925      1.367925   1.000000   1.000000
    7        1.636992      1.636974   1.000000   1.000000
    8        2.735239      2.735254   0.000000   0.000000
    9        9.071088      9.071100   0.000000   0.000000
   10        9.865668      9.865704   0.000000   0.000000
   11       10.128458     10.128428   0.000000   0.000000
   12       13.845420     13.853422   0.000000   0.000000
 
  0.9090909E-01  0.7283101E-19  0.0000000E+00  0.2272727E-02
    1      -42.740361    -42.740254   1.000000   1.000000
    2      -42.551757    -42.551737   1.000000   1.000000
    3      -42.296487    -42.296371   1.000000   1.000000
    4       -9.897382     -9.897406   1.000000   1.000000
    5       -0.066360     -0.066385   1.000000   1.000000
    6        1.181247      1.181232   1.000000   1.000000
    7        1.333977      1.333956   1.000000   1.000000
    8        3.050906      3.050917   0.000000   0.000000
    9        9.338064      9.338284   0.000000   0.000000
   10        9.895819      9.896123   0.000000   0.000000
   11       10.016622     10.016592   0.000000   0.000000
   12       13.761788     13.763470   0.000000   0.000000
 
  0.1818182E+00  0.3065251E-16  0.0000000E+00  0.2272727E-02
    1      -42.712835    -42.712728   1.000000   1.000000
    2      -42.551867    -42.551847   1.000000   1.000000
    3      -42.322240    -42.322125   1.000000   1.000000
    4       -9.868399     -9.868423   1.000000   1.000000
    5        0.132059      0.132033   1.000000   1.000000
    6        0.624556      0.624547   1.000000   1.000000
    7        0.943928      0.943900   1.000000   1.000000
    8        3.621092      3.621103   0.000000   0.000000
    9        9.592619      9.592702   0.000000   0.000000
   10        9.731208      9.731182   0.000000   0.000000
   11       10.152213     10.152161   0.000000   0.000000
   12       13.665281     13.686374   0.000000   0.000000
 
  0.2727273E+00  0.5093607E-16  0.0000000E+00  0.2272727E-02
    1      -42.669983    -42.669876   1.000000   1.000000
    2      -42.551942    -42.551921   1.000000   1.000000
    3      -42.362657    -42.362542   1.000000   1.000000
    4       -9.830882     -9.830907   1.000000   1.000000
    5        0.056544      0.056537   1.000000   1.000000
    6        0.414676      0.414650   1.000000   1.000000
    7        0.563663      0.563634   1.000000   1.000000
    8        4.280803      4.280814   0.000000   0.000000
    9        8.981718      8.981740   0.000000   0.000000
   10        9.377796      9.377768   0.000000   0.000000
   11       10.761382     10.760855   0.000000   0.000000
   12       13.923106     13.910212   0.000000   0.000000
 
  0.3636364E+00  0.3079817E-16  0.0000000E+00  0.2272727E-02
    1      -42.616749    -42.616645   1.000000   1.000000
    2      -42.551907    -42.551883   1.000000   1.000000
    3      -42.413908    -42.413793   1.000000   1.000000
    4       -9.797102     -9.797129   1.000000   1.000000
    5       -0.367658     -0.367664   1.000000   1.000000
    6        0.262037      0.262007   1.000000   1.000000
    7        0.702759      0.702732   1.000000   1.000000
    8        5.043458      5.043467   0.000000   0.000000
    9        7.993877      7.993914   0.000000   0.000000
   10        9.058516      9.058501   0.000000   0.000000
   11       11.000391     11.000369   0.000000   0.000000
   12       13.296100     13.296424   0.000000   0.000000
 
  0.4545455E+00  0.1583537E-16  0.0000000E+00  0.2272727E-02
    1      -42.565368    -42.565303   1.000000   1.000000
    2      -42.549545    -42.549482   1.000000   1.000000
    3      -42.466296    -42.466183   1.000000   1.000000
    4       -9.777220     -9.777247   1.000000   1.000000
    5       -0.590879     -0.590883   1.000000   1.000000
    6        0.098375      0.098346   1.000000   1.000000
    7        0.890159      0.890133   1.000000   1.000000
    8        5.926661      5.926670   0.000000   0.000000
    9        6.929332      6.929364   0.000000   0.000000
   10        8.863817      8.863796   0.000000   0.000000
   11       11.019660     11.019632   0.000000   0.000000
   12       12.645317     12.645701   0.000000   0.000000
 
 -0.2532641E-17  0.1000000E+00  0.0000000E+00  0.2272727E-02
    1      -42.741232    -42.741124   1.000000   1.000000
    2      -42.551855    -42.551836   1.000000   1.000000
    3      -42.295704    -42.295588   1.000000   1.000000
    4       -9.902543     -9.902566   1.000000   1.000000
    5       -0.065931     -0.065956   1.000000   1.000000
    6        0.975824      0.975798   1.000000   1.000000
    7        1.528452      1.528431   1.000000   1.000000
    8        3.121002      3.121016   0.000000   0.000000
    9        9.161192      9.161403   0.000000   0.000000
   10        9.965278      9.965249   0.000000   0.000000
   11       10.128086     10.128290   0.000000   0.000000
   12       13.558700     13.545618   0.000000   0.000000
 
  0.9090909E-01  0.1000000E+00  0.0000000E+00  0.2272727E-02
    1      -42.723354    -42.723247   1.000000   1.000000
    2      -42.552093    -42.552073   1.000000   1.000000
    3      -42.312350    -42.312234   1.000000   1.000000
    4       -9.885331     -9.885355   1.000000   1.000000
    5        0.067945      0.067920   1.000000   1.000000
    6        0.601047      0.601035   1.000000   1.000000
    7        1.235695      1.235674   1.000000   1.000000
    8        3.540840      3.540844   0.000000   0.000000
    9        9.367484      9.367599   0.000000   0.000000
   10        9.738935      9.738907   0.000000   0.000000
   11       10.315404     10.315551   0.000000   0.000000
   12       13.395997     13.394493   0.000000   0.000000
 
  0.1818182E+00  0.1000000E+00  0.0000000E+00  0.2272727E-02
    1      -42.688833    -42.688726   1.000000   1.000000
    2      -42.552330    -42.552310   1.000000   1.000000
    3      -42.344766    -42.344650   1.000000   1.000000
    4       -9.853925     -9.853950   1.000000   1.000000
    5        0.161559      0.161550   1.000000   1.000000
    6        0.307762      0.307736   1.000000   1.000000
    7        0.779308      0.779283   1.000000   1.000000
    8        4.126430      4.126434   0.000000   0.000000
    9        9.251841      9.251934   0.000000   0.000000
   10        9.436702      9.436676   0.000000   0.000000
   11       10.549571     10.549564   0.000000   0.000000
   12       13.612369     13.610801   0.000000   0.000000
 
  0.2727273E+00  0.1000000E+00  0.0000000E+00  0.2272727E-02
    1      -42.641162    -42.641055   1.000000   1.000000
    2      -42.552401    -42.552379   1.000000   1.000000
    3      -42.390136    -42.390021   1.000000   1.000000
    4       -9.818565     -9.818591   1.000000   1.000000
    5       -0.223038     -0.223044   1.000000   1.000000
    6        0.362050      0.362023   1.000000   1.000000
    7        0.593649      0.593622   1.000000   1.000000
    8        4.816967      4.816978   0.000000   0.000000
    9        8.509154      8.509160   0.000000   0.000000
   10        9.171475      9.171445   0.000000   0.000000
   11       10.695844     10.695232   0.000000   0.000000
   12       13.230551     13.229802   0.000000   0.000000
 
  0.3636364E+00  0.1000000E+00  0.0000000E+00  0.2272727E-02
    1      -42.586539    -42.586442   1.000000   1.000000
    2      -42.551570    -42.551539   1.000000   1.000000
    3      -42.443771    -42.443657   1.000000   1.000000
    4       -9.790210     -9.790237   1.000000   1.000000
    5       -0.486309     -0.486313   1.000000   1.000000
    6        0.090231      0.090204   1.000000   1.000000
    7        0.833891      0.833864   1.000000   1.000000
    8        5.621808      5.621819   0.000000   0.000000
    9        7.498987      7.499013   0.000000   0.000000
   10        9.004451      9.004415   0.000000   0.000000
   11       10.685379     10.685014   0.000000   0.000000
   12       12.271175     12.271123   0.000000   0.000000
 
  0.4545455E+00  0.1000000E+00  0.0000000E+00  0.2272727E-02
    1      -42.557554    -42.557538   1.000000   1.000000
    2      -42.538361    -42.538247   1.000000   1.000000
    3      -42.485155    -42.485042   1.000000   1.000000
    4       -9.777198     -9.777225   1.000000   1.000000
    5       -0.586819     -0.586824   1.000000   1.000000
    6        0.004602      0.004573   1.000000   1.000000
    7        0.929726      0.929699   1.000000   1.000000
    8        6.473975      6.474001   0.000000   0.000000
    9        6.546761      6.546774   0.000000   0.000000
   10        8.948660      8.948638   0.000000   0.000000
   11       10.654647     10.655477   0.000000   0.000000
   12       11.972072     11.972046   0.000000   0.000000
 
 -0.4545455E+00  0.1000000E+00  0.0000000E+00  0.2272727E-02
    1      -42.583623    -42.583529   1.000000   1.000000
    2      -42.551113    -42.551079   1.000000   1.000000
    3      -42.446926    -42.446812   1.000000   1.000000
    4       -9.783527     -9.783554   1.000000   1.000000
    5       -0.498733     -0.498740   1.000000   1.000000
    6        0.104550      0.104524   1.000000   1.000000
    7        0.834967      0.834938   1.000000   1.000000
    8        5.533485      5.533498   0.000000   0.000000
    9        7.567887      7.567901   0.000000   0.000000
   10        9.013495      9.013479   0.000000   0.000000
   11       10.645728     10.645724   0.000000   0.000000
   12       12.396816     12.396632   0.000000   0.000000
 
 -0.3636364E+00  0.1000000E+00  0.0000000E+00  0.2272727E-02
    1      -42.638147    -42.638042   1.000000   1.000000
    2      -42.551938    -42.551916   1.000000   1.000000
    3      -42.393052    -42.392937   1.000000   1.000000
    4       -9.807624     -9.807649   1.000000   1.000000
    5       -0.216997     -0.217005   1.000000   1.000000
    6        0.362598      0.362571   1.000000   1.000000
    7        0.594895      0.594869   1.000000   1.000000
    8        4.710516      4.710525   0.000000   0.000000
    9        8.599812      8.599826   0.000000   0.000000
   10        9.212908      9.212882   0.000000   0.000000
   11       10.574625     10.574721   0.000000   0.000000
   12       13.458001     13.457593   0.000000   0.000000
 
 -0.2727273E+00  0.1000000E+00  0.0000000E+00  0.2272727E-02
    1      -42.686456    -42.686349   1.000000   1.000000
    2      -42.551850    -42.551830   1.000000   1.000000
    3      -42.346975    -42.346860   1.000000   1.000000
    4       -9.842525     -9.842549   1.000000   1.000000
    5        0.229873      0.229862   1.000000   1.000000
    6        0.308544      0.308519   1.000000   1.000000
    7        0.722914      0.722886   1.000000   1.000000
    8        4.011763      4.011778   0.000000   0.000000
    9        9.431328      9.431342   0.000000   0.000000
   10        9.512518      9.512491   0.000000   0.000000
   11       10.287920     10.288497   0.000000   0.000000
   12       13.875227     13.911289   0.000000   0.000000
 
 -0.1818182E+00  0.1000000E+00  0.0000000E+00  0.2272727E-02
    1      -42.721835    -42.721728   1.000000   1.000000
    2      -42.551750    -42.551730   1.000000   1.000000
    3      -42.313769    -42.313654   1.000000   1.000000
    4       -9.877008     -9.877032   1.000000   1.000000
    5        0.068253      0.068228   1.000000   1.000000
    6        0.752546      0.752532   1.000000   1.000000
    7        1.094805      1.094781   1.000000   1.000000
    8        3.447497      3.447505   0.000000   0.000000
    9        9.621550      9.621669   0.000000   0.000000
   10        9.817794      9.817764   0.000000   0.000000
   11        9.983878      9.984552   0.000000   0.000000
   12       13.811408     13.804841   0.000000   0.000000
 
 -0.9090909E-01  0.1000000E+00  0.0000000E+00  0.2272727E-02
    1      -42.740696    -42.740589   1.000000   1.000000
    2      -42.551733    -42.551713   1.000000   1.000000
    3      -42.296226    -42.296110   1.000000   1.000000
    4       -9.899551     -9.899574   1.000000   1.000000
    5       -0.065867     -0.065892   1.000000   1.000000
    6        1.084878      1.084856   1.000000   1.000000
    7        1.420141      1.420123   1.000000   1.000000
    8        3.087475      3.087488   0.000000   0.000000
    9        9.239103      9.239359   0.000000   0.000000
   10        9.999770      9.999740   0.000000   0.000000
   11       10.023360     10.023571   0.000000   0.000000
   12       13.777285     13.767537   0.000000   0.000000
 
 -0.5065282E-17  0.2000000E+00  0.0000000E+00  0.2272727E-02
    1      -42.716891    -42.716784   1.000000   1.000000
    2      -42.552478    -42.552459   1.000000   1.000000
    3      -42.318497    -42.318381   1.000000   1.000000
    4       -9.888016     -9.888040   1.000000   1.000000
    5        0.130556      0.130530   1.000000   1.000000
    6        0.319631      0.319621   1.000000   1.000000
    7        1.276355      1.276334   1.000000   1.000000
    8        3.803766      3.803766   0.000000   0.000000
    9        9.084314      9.084264   0.000000   0.000000
   10        9.525134      9.525109   0.000000   0.000000
   11       10.808628     10.808617   0.000000   0.000000
   12       13.286488     13.287878   0.000000   0.000000
 
  0.9090909E-01  0.2000000E+00  0.0000000E+00  0.2272727E-02
    1      -42.692743    -42.692635   1.000000   1.000000
    2      -42.553065    -42.553045   1.000000   1.000000
    3      -42.340833    -42.340718   1.000000   1.000000
    4       -9.868456     -9.868481   1.000000   1.000000
    5        0.000372      0.000363   1.000000   1.000000
    6        0.302739      0.302713   1.000000   1.000000
    7        0.996532      0.996510   1.000000   1.000000
    8        4.223746      4.223741   0.000000   0.000000
    9        8.944696      8.944713   0.000000   0.000000
   10        9.257147      9.257124   0.000000   0.000000
   11       10.910991     10.911266   0.000000   0.000000
   12       13.527936     13.524559   0.000000   0.000000
 
  0.1818182E+00  0.2000000E+00  0.0000000E+00  0.2272727E-02
    1      -42.654275    -42.654168   1.000000   1.000000
    2      -42.553563    -42.553543   1.000000   1.000000
    3      -42.376961    -42.376846   1.000000   1.000000
    4       -9.839780     -9.839806   1.000000   1.000000
    5       -0.269448     -0.269456   1.000000   1.000000
    6        0.543629      0.543603   1.000000   1.000000
    7        0.556220      0.556199   1.000000   1.000000
    8        4.818892      4.818907   0.000000   0.000000
    9        8.643444      8.643466   0.000000   0.000000
   10        9.071901      9.071879   0.000000   0.000000
   11       10.580832     10.582015   0.000000   0.000000
   12       13.200300     13.200872   0.000000   0.000000
 
  0.2727273E+00  0.2000000E+00  0.0000000E+00  0.2272727E-02
    1      -42.605255    -42.605150   1.000000   1.000000
    2      -42.553538    -42.553515   1.000000   1.000000
    3      -42.424067    -42.423953   1.000000   1.000000
    4       -9.810791     -9.810818   1.000000   1.000000
    5       -0.429069     -0.429076   1.000000   1.000000
    6        0.133356      0.133335   1.000000   1.000000
    7        0.783165      0.783137   1.000000   1.000000
    8        5.535647      5.535636   0.000000   0.000000
    9        8.017521      8.017537   0.000000   0.000000
   10        9.078988      9.078966   0.000000   0.000000
   11       10.177223     10.177055   0.000000   0.000000
   12       11.858561     11.858526   0.000000   0.000000
 
  0.3636364E+00  0.2000000E+00  0.0000000E+00  0.2272727E-02
    1      -42.559975    -42.559942   1.000000   1.000000
    2      -42.543428    -42.543333   1.000000   1.000000
    3      -42.478075    -42.477961   1.000000   1.000000
    4       -9.789977     -9.790005   1.000000   1.000000
    5       -0.479990     -0.479996   1.000000   1.000000
    6       -0.137179     -0.137201   1.000000   1.000000
    7        0.936363      0.936336   1.000000   1.000000
    8        6.351020      6.350751   0.000000   0.000000
    9        7.152469      7.152454   0.000000   0.000000
   10        9.243763      9.243742   0.000000   0.000000
   11        9.975630      9.975863   0.000000   0.000000
   12       10.999636     10.999616   0.000000   0.000000
 
  0.4545455E+00  0.2000000E+00  0.0000000E+00  0.2272727E-02
    1      -42.558621    -42.558598   1.000000   1.000000
    2      -42.536190    -42.536084   1.000000   1.000000
    3      -42.486491    -42.486377   1.000000   1.000000
    4       -9.783196     -9.783224   1.000000   1.000000
    5       -0.496467     -0.496475   1.000000   1.000000
    6       -0.124783     -0.124804   1.000000   1.000000
    7        0.939187      0.939160   1.000000   1.000000
    8        6.225139      6.225177   0.000000   0.000000
    9        7.250843      7.250860   0.000000   0.000000
   10        9.242378      9.242354   0.000000   0.000000
   11        9.957183      9.957531   0.000000   0.000000
   12       11.091188     11.091170   0.000000   0.000000
 
 -0.4545455E+00  0.2000000E+00  0.0000000E+00  0.2272727E-02
    1      -42.597818    -42.597716   1.000000   1.000000
    2      -42.552177    -42.552151   1.000000   1.000000
    3      -42.432064    -42.431949   1.000000   1.000000
    4       -9.792888     -9.792914   1.000000   1.000000
    5       -0.428858     -0.428868   1.000000   1.000000
    6        0.122947      0.122926   1.000000   1.000000
    7        0.789616      0.789589   1.000000   1.000000
    8        5.370703      5.370691   0.000000   0.000000
    9        8.126989      8.127010   0.000000   0.000000
   10        9.135770      9.135746   0.000000   0.000000
   11       10.096567     10.096214   0.000000   0.000000
   12       12.068729     12.068696   0.000000   0.000000
 
 -0.3636364E+00  0.2000000E+00  0.0000000E+00  0.2272727E-02
    1      -42.647826    -42.647720   1.000000   1.000000
    2      -42.552317    -42.552296   1.000000   1.000000
    3      -42.383489    -42.383374   1.000000   1.000000
    4       -9.817108     -9.817134   1.000000   1.000000
    5       -0.205963     -0.205974   1.000000   1.000000
    6        0.477984      0.477962   1.000000   1.000000
    7        0.550106      0.550078   1.000000   1.000000
    8        4.633005      4.633027   0.000000   0.000000
    9        8.812438      8.812457   0.000000   0.000000
   10        9.210141      9.210110   0.000000   0.000000
   11       10.374523     10.375116   0.000000   0.000000
   12       13.491034     13.486147   0.000000   0.000000
 
 -0.2727273E+00  0.2000000E+00  0.0000000E+00  0.2272727E-02
    1      -42.688073    -42.687966   1.000000   1.000000
    2      -42.551990    -42.551969   1.000000   1.000000
    3      -42.345420    -42.345304   1.000000   1.000000
    4       -9.848536     -9.848560   1.000000   1.000000
    5        0.141734      0.141720   1.000000   1.000000
    6        0.307215      0.307189   1.000000   1.000000
    7        0.832339      0.832319   1.000000   1.000000
    8        4.061572      4.061564   0.000000   0.000000
    9        9.172913      9.172896   0.000000   0.000000
   10        9.437589      9.437559   0.000000   0.000000
   11       10.594206     10.594840   0.000000   0.000000
   12       13.946918     13.871288   0.000000   0.000000
 
 -0.1818182E+00  0.2000000E+00  0.0000000E+00  0.2272727E-02
    1      -42.714381    -42.714274   1.000000   1.000000
    2      -42.551824    -42.551804   1.000000   1.000000
    3      -42.320833    -42.320717   1.000000   1.000000
    4       -9.876478     -9.876502   1.000000   1.000000
    5        0.132695      0.132670   1.000000   1.000000
    6        0.483563      0.483549   1.000000   1.000000
    7        1.084613      1.084591   1.000000   1.000000
    8        3.717146      3.717151   0.000000   0.000000
    9        9.293501      9.293810   0.000000   0.000000
   10        9.660730      9.660702   0.000000   0.000000
   11       10.526931     10.527059   0.000000   0.000000
   12       13.680648     13.714946   0.000000   0.000000
 
 -0.9090909E-01  0.2000000E+00  0.0000000E+00  0.2272727E-02
    1      -42.724301    -42.724194   1.000000   1.000000
    2      -42.552005    -42.551985   1.000000   1.000000
    3      -42.311636    -42.311520   1.000000   1.000000
    4       -9.891258     -9.891282   1.000000   1.000000
    5        0.069259      0.069234   1.000000   1.000000
    6        0.553483      0.553469   1.000000   1.000000
    7        1.261369      1.261351   1.000000   1.000000
    8        3.631419      3.631426   0.000000   0.000000
    9        9.227434      9.227543   0.000000   0.000000
   10        9.704295      9.704268   0.000000   0.000000
   11       10.536051     10.536123   0.000000   0.000000
   12       13.396682     13.378781   0.000000   0.000000
 
  0.4044731E-16  0.3000000E+00  0.0000000E+00  0.2272727E-02
    1      -42.681646    -42.681538   1.000000   1.000000
    2      -42.554003    -42.553983   1.000000   1.000000
    3      -42.350822    -42.350707   1.000000   1.000000
    4       -9.870256     -9.870281   1.000000   1.000000
    5       -0.245798     -0.245804   1.000000   1.000000
    6        0.398210      0.398191   1.000000   1.000000
    7        1.000717      1.000697   1.000000   1.000000
    8        4.557661      4.557683   0.000000   0.000000
    9        8.415090      8.415100   0.000000   0.000000
   10        8.947527      8.947749   0.000000   0.000000
   11       11.541298     11.541358   0.000000   0.000000
   12       13.740208     14.311198   0.000000   0.000000
 
  0.9090909E-01  0.3000000E+00  0.0000000E+00  0.2272727E-02
    1      -42.655527    -42.655419   1.000000   1.000000
    2      -42.555371    -42.555352   1.000000   1.000000
    3      -42.374583    -42.374468   1.000000   1.000000
    4       -9.853407     -9.853432   1.000000   1.000000
    5       -0.450638     -0.450645   1.000000   1.000000
    6        0.563835      0.563809   1.000000   1.000000
    7        0.762979      0.762959   1.000000   1.000000
    8        5.004882      5.004885   0.000000   0.000000
    9        8.057919      8.057915   0.000000   0.000000
   10        8.740579      8.740562   0.000000   0.000000
   11       11.320165     11.322744   0.000000   0.000000
   12       13.574867     13.575047   0.000000   0.000000
 
  0.1818182E+00  0.3000000E+00  0.0000000E+00  0.2272727E-02
    1      -42.618394    -42.618286   1.000000   1.000000
    2      -42.556481    -42.556462   1.000000   1.000000
    3      -42.409181    -42.409067   1.000000   1.000000
    4       -9.831461     -9.831487   1.000000   1.000000
    5       -0.548545     -0.548552   1.000000   1.000000
    6        0.371177      0.371158   1.000000   1.000000
    7        0.752747      0.752719   1.000000   1.000000
    8        5.618805      5.618716   0.000000   0.000000
    9        7.779311      7.779306   0.000000   0.000000
   10        8.781040      8.781021   0.000000   0.000000
   11       10.543527     10.543807   0.000000   0.000000
   12       12.215222     12.215173   0.000000   0.000000
 
  0.2727273E+00  0.3000000E+00  0.0000000E+00  0.2272727E-02
    1      -42.574303    -42.574196   1.000000   1.000000
    2      -42.556870    -42.556848   1.000000   1.000000
    3      -42.451391    -42.451277   1.000000   1.000000
    4       -9.810479     -9.810507   1.000000   1.000000
    5       -0.511226     -0.511234   1.000000   1.000000
    6       -0.031199     -0.031214   1.000000   1.000000
    7        0.905081      0.905053   1.000000   1.000000
    8        6.309681      6.308475   0.000000   0.000000
    9        7.455422      7.455371   0.000000   0.000000
   10        9.163564      9.163548   0.000000   0.000000
   11        9.791797      9.791847   0.000000   0.000000
   12       10.900749     10.900726   0.000000   0.000000
 
  0.3636364E+00  0.3000000E+00  0.0000000E+00  0.2272727E-02
    1      -42.557146    -42.557130   1.000000   1.000000
    2      -42.533767    -42.533654   1.000000   1.000000
    3      -42.490838    -42.490724   1.000000   1.000000
    4       -9.795920     -9.795948   1.000000   1.000000
    5       -0.354294     -0.354310   1.000000   1.000000
    6       -0.330915     -0.330924   1.000000   1.000000
    7        0.968876      0.968848   1.000000   1.000000
    8        6.893584      6.892807   0.000000   0.000000
    9        6.977755      6.974678   0.000000   0.000000
   10        9.514396      9.514396   0.000000   0.000000
   11        9.832934      9.832911   0.000000   0.000000
   12        9.960891      9.960878   0.000000   0.000000
 
  0.4545455E+00  0.3000000E+00  0.0000000E+00  0.2272727E-02
    1      -42.561967    -42.561907   1.000000   1.000000
    2      -42.552389    -42.552321   1.000000   1.000000
    3      -42.467384    -42.467271   1.000000   1.000000
    4       -9.792013     -9.792040   1.000000   1.000000
    5       -0.511015     -0.511026   1.000000   1.000000
    6       -0.063667     -0.063682   1.000000   1.000000
    7        0.920083      0.920055   1.000000   1.000000
    8        6.166965      6.166716   0.000000   0.000000
    9        7.458881      7.458892   0.000000   0.000000
   10        9.212536      9.212513   0.000000   0.000000
   11        9.825732      9.825818   0.000000   0.000000
   12       11.039633     11.039615   0.000000   0.000000
 
 -0.4545455E+00  0.3000000E+00  0.0000000E+00  0.2272727E-02
    1      -42.604560    -42.604455   1.000000   1.000000
    2      -42.554062    -42.554039   1.000000   1.000000
    3      -42.423998    -42.423884   1.000000   1.000000
    4       -9.801177     -9.801203   1.000000   1.000000
    5       -0.505455     -0.505465   1.000000   1.000000
    6        0.265638      0.265619   1.000000   1.000000
    7        0.774455      0.774428   1.000000   1.000000
    8        5.413239      5.413247   0.000000   0.000000
    9        7.861541      7.861576   0.000000   0.000000
   10        8.948003      8.947986   0.000000   0.000000
   11       10.485851     10.485613   0.000000   0.000000
   12       12.400185     12.400615   0.000000   0.000000
 
 -0.3636364E+00  0.3000000E+00  0.0000000E+00  0.2272727E-02
    1      -42.644561    -42.644454   1.000000   1.000000
    2      -42.552999    -42.552978   1.000000   1.000000
    3      -42.386182    -42.386067   1.000000   1.000000
    4       -9.821627     -9.821653   1.000000   1.000000
    5       -0.339313     -0.339324   1.000000   1.000000
    6        0.563003      0.562980   1.000000   1.000000
    7        0.583298      0.583267   1.000000   1.000000
    8        4.806174      4.806191   0.000000   0.000000
    9        8.255399      8.255406   0.000000   0.000000
   10        9.002745      9.002640   0.000000   0.000000
   11       11.078714     11.078796   0.000000   0.000000
   12       13.723016     13.710507   0.000000   0.000000
 
 -0.2727273E+00  0.3000000E+00  0.0000000E+00  0.2272727E-02
    1      -42.674698    -42.674591   1.000000   1.000000
    2      -42.552274    -42.552254   1.000000   1.000000
    3      -42.358199    -42.358084   1.000000   1.000000
    4       -9.846815     -9.846840   1.000000   1.000000
    5       -0.079872     -0.079883   1.000000   1.000000
    6        0.410688      0.410660   1.000000   1.000000
    7        0.740917      0.740895   1.000000   1.000000
    8        4.429940      4.429952   0.000000   0.000000
    9        8.694334      8.694319   0.000000   0.000000
   10        9.219491      9.219401   0.000000   0.000000
   11       11.137555     11.139613   0.000000   0.000000
   12       14.165800     13.949868   0.000000   0.000000
 
 -0.1818182E+00  0.3000000E+00  0.0000000E+00  0.2272727E-02
    1      -42.691826    -42.691719   1.000000   1.000000
    2      -42.552238    -42.552218   1.000000   1.000000
    3      -42.342355    -42.342240   1.000000   1.000000
    4       -9.867444     -9.867469   1.000000   1.000000
    5        0.091644      0.091632   1.000000   1.000000
    6        0.308609      0.308583   1.000000   1.000000
    7        0.842619      0.842602   1.000000   1.000000
    8        4.290743      4.290747   0.000000   0.000000
    9        9.038067      9.038142   0.000000   0.000000
   10        9.355475      9.355452   0.000000   0.000000
   11       10.841976     10.840667   0.000000   0.000000
   12       13.671396     13.628213   0.000000   0.000000
 
 -0.9090909E-01  0.3000000E+00  0.0000000E+00  0.2272727E-02
    1      -42.694146    -42.694039   1.000000   1.000000
    2      -42.552838    -42.552818   1.000000   1.000000
    3      -42.339776    -42.339661   1.000000   1.000000
    4       -9.875931     -9.875956   1.000000   1.000000
    5       -0.010183     -0.010192   1.000000   1.000000
    6        0.304414      0.304388   1.000000   1.000000
    7        0.988101      0.988083   1.000000   1.000000
    8        4.331048      4.331054   0.000000   0.000000
    9        8.854546      8.854569   0.000000   0.000000
   10        9.230709      9.230687   0.000000   0.000000
   11       11.086197     11.086483   0.000000   0.000000
   12       13.546034     13.551965   0.000000   0.000000
 
  0.4590282E-16  0.4000000E+00  0.0000000E+00  0.2272727E-02
    1      -42.645674    -42.645564   1.000000   1.000000
    2      -42.557365    -42.557347   1.000000   1.000000