    1    1    1    2
  0.2132795E+02  0.3025917E-09  0.3025917E-09  0.3025917E-09  0.5000000E-15
  1.000000000000000E-004
  CAR 
 unknown system                          
      3     84      8
 
  0.0000000E+00  0.0000000E+00  0.0000000E+00  0.4551661E-03
    1      -46.133507    -46.130504   1.000000   1.000000
    2       -3.007077     -3.006588   1.000000   1.000000
    3       14.567503     14.567598   0.000000   0.000000
    4       14.567503     14.567598   0.000000   0.000000
    5       14.567610     14.567622   0.000000   0.000000
    6       19.235791     19.236558   0.000000   0.000000
    7       19.235791     19.236558   0.000000   0.000000
    8       19.235814     19.236630   0.000000   0.000000
 
  0.7692308E-01 -0.9015125E-17  0.9015125E-17  0.5461994E-02
    1      -46.132490    -46.129487   1.000000   1.000000
    2       -2.896945     -2.896461   1.000000   1.000000
    3       13.834329     13.834541   0.000000   0.000000
    4       14.048989     14.049130   0.000000   0.000000
    5       14.382184     14.382246   0.000000   0.000000
    6       17.814484     17.814663   0.000000   0.000000
    7       18.019950     18.020574   0.000000   0.000000
    8       19.348958     19.348934   0.000000   0.000000
 
  0.1538462E+00 -0.1716360E-16  0.1716360E-16  0.5461994E-02
    1      -46.129969    -46.126966   1.000000   1.000000
    2       -2.567061     -2.566596   1.000000   1.000000
    3       11.839510     11.839956   0.000000   0.000000
    4       13.050771     13.050994   0.000000   0.000000
    5       13.877370     13.877365   0.000000   0.000000
    6       16.612915     16.613508   0.000000   0.000000
    7       16.878530     16.878895   0.000000   0.000000
    8       19.060640     19.060688   0.000000   0.000000
 
  0.2307692E+00  0.1576855E-17 -0.1576855E-17  0.5461994E-02
    1      -46.126438    -46.123434   1.000000   1.000000
    2       -2.017860     -2.017425   1.000000   1.000000
    3        9.462334      9.462678   0.000000   0.000000
    4       12.087426     12.087693   0.000000   0.000000
    5       13.228424     13.228365   0.000000   0.000000
    6       15.463606     15.464189   0.000000   0.000000
    7       16.624313     16.624973   0.000000   0.000000
    8       19.368751     19.368878   0.000000   0.000000
 
  0.3076923E+00 -0.3432719E-16  0.3432719E-16  0.5461994E-02
    1      -46.122664    -46.119657   1.000000   1.000000
    2       -1.257301     -1.256907   1.000000   1.000000
    3        7.202242      7.202609   0.000000   0.000000
    4       11.316975     11.317265   0.000000   0.000000
    5       12.626584     12.626496   0.000000   0.000000
    6       14.596804     14.597382   0.000000   0.000000
    7       16.658164     16.658495   0.000000   0.000000
    8       20.109221     20.109405   0.000000   0.000000
 
  0.3846154E+00 -0.1383130E-16  0.1383130E-16  0.5461994E-02
    1      -46.119555    -46.116549   1.000000   1.000000
    2       -0.325081     -0.324752   1.047821   1.047873
    3        5.236144      5.236571   0.000000   0.000000
    4       10.789023     10.789325   0.000000   0.000000
    5       12.184490     12.184386   0.000000   0.000000
    6       14.017662     14.018237   0.000000   0.000000
    7       16.811581     16.811997   0.000000   0.000000
    8       21.131268     21.131508   0.000000   0.000000
 
  0.4615385E+00 -0.4591095E-17  0.4591095E-17  0.5461994E-02
    1      -46.117785    -46.114779   1.000000   1.000000
    2        0.566448      0.566680   0.367468   0.367007
    3        3.820515      3.821036   0.000000   0.000000
    4       10.521822     10.522129   0.000000   0.000000
    5       11.953690     11.953579   0.000000   0.000000
    6       13.727814     13.728388   0.000000   0.000000
    7       16.944455     16.944959   0.000000   0.000000
    8       22.130638     22.130957   0.000000   0.000000
 
  0.7692308E-01  0.7692308E-01  0.8229419E-15  0.1092399E-01
    1      -46.130799    -46.127796   1.000000   1.000000
    2       -2.677045     -2.676573   1.000000   1.000000
    3       12.877889     12.878329   0.000000   0.000000
    4       12.930906     12.931101   0.000000   0.000000
    5       13.801685     13.801759   0.000000   0.000000
    6       17.042125     17.042192   0.000000   0.000000
    7       17.303427     17.303941   0.000000   0.000000
    8       19.127165     19.127484   0.000000   0.000000
 
  0.1538462E+00  0.7692308E-01  0.8172126E-15  0.2184797E-01
    1      -46.127748    -46.124744   1.000000   1.000000
    2       -2.236734     -2.236287   1.000000   1.000000
    3       10.678555     10.678902   0.000000   0.000000
    4       11.906865     11.907216   0.000000   0.000000
    5       13.023322     13.023395   0.000000   0.000000
    6       16.667391     16.667826   0.000000   0.000000
    7       16.736725     16.737018   0.000000   0.000000
    8       19.231719     19.232080   0.000000   0.000000
 
  0.2307692E+00  0.7692308E-01  0.8799835E-15  0.2184797E-01
    1      -46.124101    -46.121095   1.000000   1.000000
    2       -1.578835     -1.578423   1.000000   1.000000
    3        8.339247      8.339574   0.000000   0.000000
    4       11.067419     11.067750   0.000000   0.000000
    5       12.272864     12.272940   0.000000   0.000000
    6       16.022092     16.022588   0.000000   0.000000
    7       16.712736     16.713009   0.000000   0.000000
    8       19.726561     19.727111   0.000000   0.000000
 
  0.3076923E+00  0.7692308E-01  0.8464986E-15  0.2184797E-01
    1      -46.120627    -46.117621   1.000000   1.000000
    2       -0.720052     -0.719691   1.007380   1.007394
    3        6.210942      6.211316   0.000000   0.000000
    4       10.442954     10.443292   0.000000   0.000000
    5       11.681575     11.681653   0.000000   0.000000
    6       15.454894     15.455338   0.000000   0.000000
    7       16.896307     16.896564   0.000000   0.000000
    8       20.550993     20.551572   0.000000   0.000000
 
  0.3846154E+00  0.7692308E-01  0.8224918E-15  0.2184797E-01
    1      -46.118196    -46.115189   1.000000   1.000000
    2        0.253298      0.253580   0.870538   0.870156
    3        4.458389      4.458838   0.000000   0.000000
    4       10.060483     10.060830   0.000000   0.000000
    5       11.310940     11.311020   0.000000   0.000000
    6       15.090594     15.091023   0.000000   0.000000
    7       17.118520     17.118879   0.000000   0.000000
    8       21.566030     21.566467   0.000000   0.000000
 
  0.4615385E+00  0.7692308E-01  0.9242739E-15  0.1092399E-01
    1      -46.117331    -46.114323   1.000000   1.000000
    2        0.849718      0.849920  -0.006286  -0.006389
    3        3.599885      3.600414   0.000000   0.000000
    4        9.931895      9.932246   0.000000   0.000000
    5       11.185236     11.185317   0.000000   0.000000
    6       14.966142     14.966568   0.000000   0.000000
    7       17.219673     17.220082   0.000000   0.000000
    8       22.333102     22.333680   0.000000   0.000000
 
  0.1538462E+00  0.1538462E+00  0.5165598E-14  0.1092399E-01
    1      -46.124632    -46.121627   1.000000   1.000000
    2       -1.685862     -1.685443   1.000000   1.000000
    3        9.283548      9.283763   0.000000   0.000000
    4       10.176404     10.176831   0.000000   0.000000
    5       12.225477     12.225616   0.000000   0.000000
    6       16.679687     16.679737   0.000000   0.000000
    7       17.114556     17.115327   0.000000   0.000000
    8       19.743439     19.743767   0.000000   0.000000
 
  0.2307692E+00  0.1538462E+00  0.5172857E-14  0.2184797E-01
    1      -46.121284    -46.118278   1.000000   1.000000
    2       -0.919379     -0.919000   1.003112   1.003117
    3        7.266444      7.266715   0.000000   0.000000
    4        9.247685      9.248112   0.000000   0.000000
    5       11.597993     11.598161   0.000000   0.000000
    6       16.720418     16.720688   0.000000   0.000000
    7       17.315482     17.315863   0.000000   0.000000
    8       20.426007     20.426590   0.000000   0.000000
 
  0.3076923E+00  0.1538462E+00  0.5194884E-14  0.2184797E-01
    1      -46.118495    -46.115488   1.000000   1.000000
    2        0.031207      0.031525   0.970946   0.970773
    3        5.342317      5.342656   0.000000   0.000000
    4        8.711796      8.712217   0.000000   0.000000
    5       11.154806     11.154993   0.000000   0.000000
    6       16.608946     16.609342   0.000000   0.000000
    7       17.688206     17.688404   0.000000   0.000000
    8       21.114079     21.114546   0.000000   0.000000
 
  0.3846154E+00  0.1538462E+00  0.5261165E-14  0.2184797E-01
    1      -46.116977    -46.113969   1.000000   1.000000
    2        0.974819      0.975051   0.006869   0.006772
    3        3.894438      3.894869   0.000000   0.000000
    4        8.448951      8.449373   0.000000   0.000000
    5       10.926246     10.926442   0.000000   0.000000
    6       16.497346     16.497791   0.000000   0.000000
    7       18.061073     18.061283   0.000000   0.000000
    8       21.672958     21.673728   0.000000   0.000000
 
  0.2307692E+00  0.2307692E+00 -0.4645357E-14  0.1092399E-01
    1      -46.118616    -46.115609   1.000000   1.000000
    2       -0.047299     -0.046967   0.988546   0.988407
    3        5.970747      5.970956   0.000000   0.000000
    4        7.871147      7.871692   0.000000   0.000000
    5       11.149650     11.149867   0.000000   0.000000
    6       17.174469     17.174560   0.000000   0.000000
    7       17.919691     17.920241   0.000000   0.000000
    8       21.569810     21.570132   0.000000   0.000000
 
  0.3076923E+00  0.2307692E+00 -0.4682352E-14  0.2184797E-01
    1      -46.116745    -46.113737   1.000000   1.000000
    2        0.984405      0.984676   0.035264   0.035116
    3        4.465524      4.465778   0.000000   0.000000
    4        7.227641      7.228206   0.000000   0.000000
    5       10.871163     10.871409   0.000000   0.000000
    6       17.483192     17.483443   0.000000   0.000000
    7       18.557548     18.557985   0.000000   0.000000
    8       21.390971     21.391150   0.000000   0.000000
 
  0.3846154E+00  0.2307692E+00 -0.4643826E-14  0.1092399E-01
    1      -46.116090    -46.113082   1.000000   1.000000
    2        1.709341      1.709544  -0.004053  -0.004047
    3        3.546803      3.547130   0.000000   0.000000
    4        7.044386      7.044949   0.000000   0.000000
    5       10.776181     10.776437   0.000000   0.000000
    6       17.555543     17.555891   0.000000   0.000000
    7       19.176834     19.177237   0.000000   0.000000
    8       20.475657     20.475791   0.000000   0.000000
 
  0.3076923E+00  0.3076923E+00 -0.3269454E-15  0.1092399E-01
    1      -46.115743    -46.112734   1.000000   1.000000
    2        2.078259      2.078480  -0.002892  -0.002887
    3        3.422678      3.422883   0.000000   0.000000
    4        6.450053      6.450722   0.000000   0.000000
    5       10.729515     10.729791   0.000000   0.000000
    6       18.426460     18.426581   0.000000   0.000000
    7       18.998297     18.998834   0.000000   0.000000
    8       20.001417     20.001649   0.000000   0.000000
 
  0.7692308E-01  0.7692308E-01  0.7692308E-01  0.3641329E-02
    1      -46.128520    -46.125516   1.000000   1.000000
    2       -2.347239     -2.346786   1.000000   1.000000
    3       11.915899     11.916064   0.000000   0.000000
    4       11.915899     11.916064   0.000000   0.000000
    5       12.019245     12.019802   0.000000   0.000000
    6       17.302662     17.302901   0.000000   0.000000
    7       17.302663     17.302901   0.000000   0.000000
    8       20.585294     20.585404   0.000000   0.000000
 
  0.1538462E+00  0.7692308E-01  0.7692308E-01  0.1092399E-01
    1      -46.125312    -46.122307   1.000000   1.000000
    2       -1.797409     -1.796985   1.000000   1.000000
    3        9.552611      9.552881   0.000000   0.000000
    4       10.942110     10.942262   0.000000   0.000000
    5       11.221696     11.222130   0.000000   0.000000
    6       17.400358     17.400680   0.000000   0.000000
    7       17.585576     17.585861   0.000000   0.000000
    8       20.439119     20.439265   0.000000   0.000000
 
  0.2307692E+00  0.7692308E-01  0.7692308E-01  0.1092399E-01
    1      -46.121896    -46.118889   1.000000   1.000000
    2       -1.033211     -1.032829   1.001191   1.001194
    3        7.295215      7.295521   0.000000   0.000000
    4       10.164822     10.164969   0.000000   0.000000
    5       10.595951     10.596409   0.000000   0.000000
    6       17.207050     17.207391   0.000000   0.000000
    7       17.788778     17.789236   0.000000   0.000000
    8       20.747311     20.747485   0.000000   0.000000
 
  0.3076923E+00  0.7692308E-01  0.7692308E-01  0.1092399E-01
    1      -46.119091    -46.116085   1.000000   1.000000
    2       -0.088276     -0.087955   1.032503   1.032400
    3        5.321843      5.322210   0.000000   0.000000
    4        9.632540      9.632686   0.000000   0.000000
    5       10.164741     10.165223   0.000000   0.000000
    6       16.910592     16.910926   0.000000   0.000000
    7       17.991165     17.991485   0.000000   0.000000
    8       21.602769     21.602993   0.000000   0.000000
 
  0.3846154E+00  0.7692308E-01  0.7692308E-01  0.1092399E-01
    1      -46.117507    -46.114501   1.000000   1.000000
    2        0.839479      0.839709   0.071543   0.071369
    3        3.872703      3.873160   0.000000   0.000000
    4        9.363210      9.363355   0.000000   0.000000
    5        9.945499      9.945994   0.000000   0.000000
    6       16.722985     16.723312   0.000000   0.000000
    7       18.142005     18.142394   0.000000   0.000000
    8       22.555179     22.555494   0.000000   0.000000
 
 -0.7692308E-01  0.7692308E-01  0.7692308E-01  0.2730997E-02
    1      -46.131599    -46.128596   1.000000   1.000000
    2       -2.786735     -2.786257   1.000000   1.000000
    3       13.465144     13.465374   0.000000   0.000000
    4       13.465202     13.465398   0.000000   0.000000
    5       14.097348     14.097595   0.000000   0.000000
    6       16.848869     16.848765   0.000000   0.000000
    7       18.439604     18.440058   0.000000   0.000000
    8       18.439626     18.440077   0.000000   0.000000
 
  0.1538462E+00  0.1538462E+00  0.7692308E-01  0.1092399E-01
    1      -46.122409    -46.119402   1.000000   1.000000
    2       -1.137985     -1.137596   1.000468   1.000470
    3        8.220971      8.221166   0.000000   0.000000
    4        9.144329      9.144621   0.000000   0.000000
    5       10.527482     10.527944   0.000000   0.000000
    6       18.149706     18.150125   0.000000   0.000000
    7       18.275151     18.275292   0.000000   0.000000
    8       21.166259     21.166521   0.000000   0.000000
 
  0.2307692E+00  0.1538462E+00  0.7692308E-01  0.2184797E-01
    1      -46.119592    -46.116586   1.000000   1.000000
    2       -0.267852     -0.267511   1.054654   1.054599
    3        6.317109      6.317360   0.000000   0.000000
    4        8.285302      8.285590   0.000000   0.000000
    5       10.047284     10.047791   0.000000   0.000000
    6       18.456327     18.456732   0.000000   0.000000
    7       18.818362     18.818531   0.000000   0.000000
    8       21.720840     21.721326   0.000000   0.000000
 
  0.3076923E+00  0.1538462E+00  0.7692308E-01  0.2184797E-01
    1      -46.117633    -46.114627   1.000000   1.000000
    2        0.748354      0.748629   0.190391   0.190145
    3        4.572398      4.572723   0.000000   0.000000
    4        7.851389      7.851669   0.000000   0.000000
    5        9.755401      9.755938   0.000000   0.000000
    6       18.455740     18.456105   0.000000   0.000000
    7       19.261284     19.261514   0.000000   0.000000
    8       22.506765     22.507366   0.000000   0.000000
 
  0.3846154E+00  0.1538462E+00  0.7692308E-01  0.1092399E-01
    1      -46.116901    -46.113893   1.000000   1.000000
    2        1.424858      1.425059  -0.011616  -0.011604
    3        3.645846      3.646247   0.000000   0.000000
    4        7.710538      7.710814   0.000000   0.000000
    5        9.657873      9.658420   0.000000   0.000000
    6       18.427007     18.427375   0.000000   0.000000
    7       19.448747     19.449007   0.000000   0.000000
    8       23.216006     23.216736   0.000000   0.000000
 
 -0.1538462E+00  0.1538462E+00  0.7692308E-01  0.1092399E-01
    1      -46.129112    -46.126109   1.000000   1.000000
    2       -2.455740     -2.455280   1.000000   1.000000
    3       11.789257     11.789614   0.000000   0.000000
    4       12.398704     12.398986   0.000000   0.000000
    5       13.702801     13.702929   0.000000   0.000000
    6       15.739698     15.739648   0.000000   0.000000
    7       17.501284     17.501803   0.000000   0.000000
    8       18.627637     18.628174   0.000000   0.000000
 
  0.2307692E+00  0.2307692E+00  0.7692308E-01  0.1092399E-01
    1      -46.117675    -46.114668   1.000000   1.000000
    2        0.703299      0.703591   0.239317   0.239053
    3        5.135386      5.135585   0.000000   0.000000
    4        7.002667      7.003069   0.000000   0.000000
    5        9.707565      9.708118   0.000000   0.000000
    6       19.395738     19.396196   0.000000   0.000000
    7       19.590141     19.590273   0.000000   0.000000
    8       22.810677     22.811558   0.000000   0.000000
 
  0.3076923E+00  0.2307692E+00  0.7692308E-01  0.2184797E-01
    1      -46.116566    -46.113559   1.000000   1.000000
    2        1.761541      1.761767  -0.009502  -0.009494
    3        3.822022      3.822267   0.000000   0.000000
    4        6.496733      6.497156   0.000000   0.000000
    5        9.537595      9.538176   0.000000   0.000000
    6       19.685075     19.685493   0.000000   0.000000
    7       20.437790     20.437997   0.000000   0.000000
    8       22.647029     22.647163   0.000000   0.000000
 
 -0.2307692E+00  0.2307692E+00  0.7692308E-01  0.1092399E-01
    1      -46.125669    -46.122663   1.000000   1.000000
    2       -1.904716     -1.904283   1.000000   1.000000
    3        9.499184      9.499525   0.000000   0.000000
    4       11.398651     11.398968   0.000000   0.000000
    5       13.146108     13.146105   0.000000   0.000000
    6       15.556653     15.556688   0.000000   0.000000
    7       16.424058     16.424593   0.000000   0.000000
    8       19.119353     19.120149   0.000000   0.000000
 
 -0.1538462E+00  0.2307692E+00  0.7692308E-01  0.1092399E-01
    1      -46.126221    -46.123216   1.000000   1.000000
    2       -2.012954     -2.012515   1.000000   1.000000
    3       10.493467     10.493720   0.000000   0.000000
    4       10.905628     10.906058   0.000000   0.000000
    5       13.314812     13.314918   0.000000   0.000000
    6       14.926457     14.926438   0.000000   0.000000
    7       17.401025     17.401885   0.000000   0.000000
    8       19.078933     19.079255   0.000000   0.000000
 
  0.3076923E+00  0.3076923E+00  0.7692308E-01  0.3641329E-02
    1      -46.116144    -46.113136   1.000000   1.000000
    2        2.857189      2.857388   0.000000   0.000000
    3        2.857214      2.857413   0.000000   0.000000
    4        5.996136      5.996633   0.000000   0.000000
    5        9.466017      9.466613   0.000000   0.000000
    6       20.400302     20.400814   0.000000   0.000000
    7       21.322239     21.322399   0.000000   0.000000
    8       21.322284     21.322412   0.000000   0.000000
 
 -0.3076923E+00  0.3076923E+00  0.7692308E-01  0.1092399E-01
    1      -46.121950    -46.118945   1.000000   1.000000
    2       -1.140808     -1.140417   1.000000   1.000000
    3        7.263809      7.264179   0.000000   0.000000
    4       10.608305     10.608639   0.000000   0.000000
    5       12.579419     12.579380   0.000000   0.000000
    6       15.585904     15.586442   0.000000   0.000000
    7       15.809183     15.809285   0.000000   0.000000
    8       19.791639     19.792164   0.000000   0.000000
 
 -0.2307692E+00  0.3076923E+00  0.7692308E-01  0.2184797E-01
    1      -46.122681    -46.119675   1.000000   1.000000
    2       -1.350503     -1.350098   1.000000   1.000000
    3        8.395093      8.395398   0.000000   0.000000
    4        9.929061      9.929455   0.000000   0.000000
    5       12.816771     12.816819   0.000000   0.000000
    6       14.889212     14.889250   0.000000   0.000000
    7       16.977471     16.978123   0.000000   0.000000
    8       19.716185     19.716836   0.000000   0.000000
 
 -0.3846154E+00  0.3846154E+00  0.7692308E-01  0.1092399E-01
    1      -46.118877    -46.115870   1.000000   1.000000
    2       -0.202019     -0.201691   1.053020   1.053024
    3        5.302814      5.303239   0.000000   0.000000
    4       10.069615     10.069959   0.000000   0.000000
    5       12.154393     12.154345   0.000000   0.000000
    6       15.020560     15.021099   0.000000   0.000000
    7       16.214756     16.214947   0.000000   0.000000
    8       20.554724     20.555246   0.000000   0.000000
 
 -0.3076923E+00  0.3846154E+00  0.7692308E-01  0.2184797E-01
    1      -46.119361    -46.116355   1.000000   1.000000
    2       -0.483439     -0.483082   1.029105   1.029120
    3        6.319648      6.320002   0.000000   0.000000
    4        9.275966      9.276365   0.000000   0.000000
    5       12.316898     12.316937   0.000000   0.000000
    6       15.212276     15.212435   0.000000   0.000000
    7       16.656074     16.656518   0.000000   0.000000
    8       20.243393     20.243913   0.000000   0.000000
 
 -0.2307692E+00  0.3846154E+00  0.7692308E-01  0.1092399E-01
    1      -46.119542    -46.116535   1.000000   1.000000
    2       -0.578205     -0.577841   1.024237   1.024248
    3        7.060872      7.061098   0.000000   0.000000
    4        8.496179      8.496709   0.000000   0.000000
    5       12.530427     12.530484   0.000000   0.000000
    6       14.808401     14.808460   0.000000   0.000000
    7       17.312877     17.313540   0.000000   0.000000
    8       20.786444     20.786742   0.000000   0.000000
 
 -0.4615385E+00  0.4615385E+00  0.7692308E-01  0.1092399E-01
    1      -46.117135    -46.114128   1.000000   1.000000
    2        0.703708      0.703941   0.169912   0.169591
    3        3.877571      3.878086   0.000000   0.000000
    4        9.797629      9.797977   0.000000   0.000000
    5       11.931586     11.931534   0.000000   0.000000
    6       14.736581     14.737121   0.000000   0.000000
    7       16.536008     16.536291   0.000000   0.000000
    8       21.314773     21.316100   0.000000   0.000000
 
 -0.3846154E+00  0.4615385E+00  0.7692308E-01  0.2184797E-01
    1      -46.116996    -46.113989   1.000000   1.000000
    2        0.509202      0.509486   0.469841   0.469440
    3        4.571629      4.572052   0.000000   0.000000
    4        8.882202      8.882606   0.000000   0.000000
    5       11.981231     11.981270   0.000000   0.000000
    6       15.443253     15.443639   0.000000   0.000000
    7       16.734859     16.735106   0.000000   0.000000
    8       20.256484     20.256886   0.000000   0.000000
 
 -0.3076923E+00  0.4615385E+00  0.7692308E-01  0.2184797E-01
    1      -46.116911    -46.113905   1.000000   1.000000
    2        0.387019      0.387333   0.614268   0.613918
    3        5.385398      5.385673   0.000000   0.000000
    4        7.769870      7.770415   0.000000   0.000000
    5       12.218001     12.218066   0.000000   0.000000
    6       15.184560     15.184679   0.000000   0.000000
    7       17.490457     17.491074   0.000000   0.000000
    8       20.475269     20.475464   0.000000   0.000000
 
 -0.4615385E+00 -0.4615385E+00  0.7692308E-01  0.1092399E-01
    1      -46.116162    -46.113153   1.000000   1.000000
    2        1.134512      1.134715  -0.030558  -0.030515
    3        3.690833      3.691336   0.000000   0.000000
    4        8.750392      8.750797   0.000000   0.000000
    5       11.865141     11.865180   0.000000   0.000000
    6       15.472980     15.473595   0.000000   0.000000
    7       16.939964     16.940152   0.000000   0.000000
    8       19.977583     19.977989   0.000000   0.000000
 
 -0.3846154E+00 -0.4615385E+00  0.7692308E-01  0.2184797E-01
    1      -46.115462    -46.112454   1.000000   1.000000
    2        1.377525      1.377760  -0.029895  -0.029888
    3        3.962732      3.963096   0.000000   0.000000
    4        7.463761      7.464302   0.000000   0.000000
    5       12.025809     12.025878   0.000000   0.000000
    6       15.582930     15.583186   0.000000   0.000000
    7       17.920407     17.920965   0.000000   0.000000
    8       19.016417     19.016600   0.000000   0.000000
 
 -0.3076923E+00 -0.4615385E+00  0.7692308E-01  0.1092399E-01
    1      -46.115202    -46.112193   1.000000   1.000000
    2        1.436252      1.436515  -0.032446  -0.032438
    3        4.264447      4.264661   0.000000   0.000000
    4        6.814414      6.815086   0.000000   0.000000
    5       12.122930     12.123011   0.000000   0.000000
    6       15.672674     15.672771   0.000000   0.000000
    7       17.675433     17.675938   0.000000   0.000000
    8       19.269277     19.269672   0.000000   0.000000
 
 -0.3846154E+00 -0.3846154E+00  0.7692308E-01  0.1092399E-01
    1      -46.114568    -46.111560   1.000000   1.000000
    2        2.276526      2.276733  -0.000324  -0.000322
    3        3.360204      3.360450   0.000000   0.000000
    4        6.526834      6.527533   0.000000   0.000000
    5       12.077166     12.077255   0.000000   0.000000
    6       16.163759     16.163902   0.000000   0.000000
    7       17.406727     17.406853   0.000000   0.000000
    8       18.776085     18.776843   0.000000   0.000000
 
  0.1538462E+00  0.1538462E+00  0.1538462E+00  0.3641329E-02
    1      -46.119969    -46.116962   1.000000   1.000000
    2       -0.369047     -0.368698   1.065523   1.065492
    3        7.400240      7.400427   0.000000   0.000000
    4        7.400240      7.400427   0.000000   0.000000
    5        9.625761      9.626465   0.000000   0.000000
    6       19.373357     19.373602   0.000000   0.000000
    7       19.373357     19.373603   0.000000   0.000000
    8       23.186815     23.186920   0.000000   0.000000
 
  0.2307692E+00  0.1538462E+00  0.1538462E+00  0.1092399E-01
    1      -46.117997    -46.114991   1.000000   1.000000
    2        0.604096      0.604394   0.330721   0.330431
    3        5.532846      5.533073   0.000000   0.000000
    4        6.846121      6.846304   0.000000   0.000000
    5        9.211379      9.212156   0.000000   0.000000
    6       20.044372     20.044684   0.000000   0.000000
    7       20.282411     20.282720   0.000000   0.000000
    8       23.601528     23.601815   0.000000   0.000000
 
  0.3076923E+00  0.1538462E+00  0.1538462E+00  0.1092399E-01
    1      -46.116849    -46.113842   1.000000   1.000000
    2        1.642071      1.642299  -0.011701  -0.011695
    3        4.015994      4.016291   0.000000   0.000000
    4        6.567481      6.567662   0.000000   0.000000
    5        9.025012      9.025815   0.000000   0.000000
    6       20.314264     20.314598   0.000000   0.000000
    7       20.772546     20.772870   0.000000   0.000000
    8       24.209348     24.209609   0.000000   0.000000
 
 -0.1538462E+00  0.1538462E+00  0.1538462E+00  0.2730997E-02
    1      -46.126772    -46.123768   1.000000   1.000000
    2       -2.121525     -2.121082   1.000000   1.000000
    3       11.270454     11.270799   0.000000   0.000000
    4       11.270499     11.270829   0.000000   0.000000
    5       13.318628     13.318822   0.000000   0.000000
    6       13.937345     13.937251   0.000000   0.000000
    7       18.884265     18.884598   0.000000   0.000000
    8       18.884290     18.884607   0.000000   0.000000
 
  0.2307692E+00  0.2307692E+00  0.1538462E+00  0.1092399E-01
    1      -46.116850    -46.113842   1.000000   1.000000
    2        1.674441      1.674690  -0.013579  -0.013573
    3        4.573433      4.573627   0.000000   0.000000
    4        5.728848      5.729080   0.000000   0.000000
    5        8.866639      8.867503   0.000000   0.000000
    6       21.107143     21.107517   0.000000   0.000000
    7       21.570477     21.570728   0.000000   0.000000
    8       24.442001     24.443053   0.000000   0.000000
 
  0.3076923E+00  0.2307692E+00  0.1538462E+00  0.1092399E-01
    1      -46.116440    -46.113433   1.000000   1.000000
    2        2.573501      2.573698   0.000000   0.000000
    3        3.597314      3.597542   0.000000   0.000000
    4        5.450775      5.451019   0.000000   0.000000
    5        8.766677      8.767566   0.000000   0.000000
    6       21.472206     21.472636   0.000000   0.000000
    7       22.281012     22.281286   0.000000   0.000000
    8       23.832636     23.832916   0.000000   0.000000
 
 -0.2307692E+00  0.2307692E+00  0.1538462E+00  0.1092399E-01
    1      -46.123490    -46.120483   1.000000   1.000000
    2       -1.564825     -1.564406   1.000000   1.000000
    3        9.553580      9.553922   0.000000   0.000000
    4       10.239891     10.240254   0.000000   0.000000
    5       12.889717     12.889822   0.000000   0.000000
    6       13.448196     13.448233   0.000000   0.000000
    7       18.364742     18.365191   0.000000   0.000000
    8       19.445242     19.445820   0.000000   0.000000
 
 -0.3076923E+00  0.3076923E+00  0.1538462E+00  0.1092399E-01
    1      -46.119976    -46.116970   1.000000   1.000000
    2       -0.791471     -0.791091   1.012930   1.012942
    3        7.444007      7.444355   0.000000   0.000000
    4        9.433618      9.433993   0.000000   0.000000