    6    6    1    2
  0.1363391E+02  0.4930887E-09  0.4930887E-09  0.4930887E-09  0.5000000E-15
  1.000000000000000E-004
  CAR 
 unknown system                          
     32    290     24
 
  0.0000000E+00  0.0000000E+00  0.0000000E+00  0.1736111E-02
    1      -19.940497    -19.940400   1.000000   1.000000
    2      -17.850811    -17.850633   1.000000   1.000000
    3      -14.170607    -14.170565   1.000000   1.000000
    4      -12.730817    -12.730803   1.000000   1.000000
    5      -11.734667    -11.734709   1.000000   1.000000
    6       -6.931745     -6.931726   1.000000   1.000000
    7       -5.808779     -5.808823   1.000000   1.000000
    8       -5.765265     -5.765274   1.000000   1.000000
    9       -2.769018     -2.768866   1.000000   1.000000
   10       -2.063102     -2.062963   1.000000   1.000000
   11       -1.046484     -1.046297   1.000000   1.000000
   12       -1.010142     -1.009995   1.000000   1.000000
   13       -0.016322     -0.016277   1.000000   1.000000
   14        0.279882      0.279949   1.000000   1.000000
   15        0.917507      0.917575   1.000000   1.000000
   16        1.622631      1.622756   1.000000   1.000000
   17        6.478678      6.478718   0.000001   0.000001
   18        7.065690      7.065668   0.000000   0.000000
   19        8.184012      8.184004   0.000000   0.000000
   20        9.755548      9.755768   0.000000   0.000000
   21        9.844050      9.843974   0.000000   0.000000
   22       11.092325     11.092275   0.000000   0.000000
   23       12.991418     12.998005   0.000000   0.000000
   24       13.115226     13.115809   0.000000   0.000000
 
  0.1250000E+00  0.3246351E-17 -0.3246351E-17  0.3472222E-02
    1      -19.917753    -19.917656   1.000000   1.000000
    2      -17.854830    -17.854653   1.000000   1.000000
    3      -14.239602    -14.239566   1.000000   1.000000
    4      -13.054391    -13.054385   1.000000   1.000000
    5      -11.277417    -11.277445   1.000000   1.000000
    6       -6.903354     -6.903335   1.000000   1.000000
    7       -5.856795     -5.856831   1.000000   1.000000
    8       -5.732959     -5.732975   1.000000   1.000000
    9       -2.741965     -2.741814   1.000000   1.000000
   10       -2.090992     -2.090854   1.000000   1.000000
   11       -1.222505     -1.222358   1.000000   1.000000
   12       -0.997162     -0.996982   1.000000   1.000000
   13        0.032784      0.032839   1.000000   1.000000
   14        0.212046      0.212112   1.000000   1.000000
   15        0.876680      0.876750   1.000000   1.000000
   16        1.618165      1.618286   1.000000   1.000000
   17        6.654371      6.654400  -0.000000  -0.000000
   18        7.147161      7.147133   0.000000   0.000000
   19        8.075956      8.075974   0.000000   0.000000
   20        9.782646      9.782604   0.000000   0.000000
   21        9.960266      9.960436   0.000000   0.000000
   22       10.959560     10.959505   0.000000   0.000000
   23       13.030665     12.988252   0.000000   0.000000
   24       13.132555     13.097677   0.000000   0.000000
 
  0.2500000E+00  0.6492702E-17 -0.6492702E-17  0.3472222E-02
    1      -19.860787    -19.860686   1.000000   1.000000
    2      -17.864849    -17.864672   1.000000   1.000000
    3      -14.443261    -14.443246   1.000000   1.000000
    4      -13.415172    -13.415158   1.000000   1.000000
    5      -10.535730    -10.535750   1.000000   1.000000
    6       -6.831893     -6.831872   1.000000   1.000000
    7       -6.006125     -6.006156   1.000000   1.000000
    8       -5.632385     -5.632404   1.000000   1.000000
    9       -2.671648     -2.671497   1.000000   1.000000
   10       -2.216259     -2.216123   1.000000   1.000000
   11       -1.592968     -1.592832   1.000000   1.000000
   12       -0.923083     -0.922902   1.000000   1.000000
   13        0.038195      0.038262   1.000000   1.000000
   14        0.123575      0.123646   1.000000   1.000000
   15        0.803628      0.803693   1.000000   1.000000
   16        1.573847      1.573964   1.000000   1.000000
   17        7.012730      7.012748   0.000000   0.000000
   18        7.184507      7.184463   0.000000   0.000000
   19        8.303823      8.303868   0.000000   0.000000
   20        9.590355      9.590365   0.000000   0.000000
   21       10.174251     10.174264   0.000000   0.000000
   22       10.899348     10.899472   0.000000   0.000000
   23       12.513736     12.514823   0.000000   0.000000
   24       12.822185     12.826398   0.000000   0.000000
 
  0.3750000E+00  0.4217377E-17 -0.4217377E-17  0.3472222E-02
    1      -19.800658    -19.800555   1.000000   1.000000
    2      -17.875444    -17.875267   1.000000   1.000000
    3      -14.677919    -14.677922   1.000000   1.000000
    4      -13.586259    -13.586234   1.000000   1.000000
    5       -9.911634     -9.911652   1.000000   1.000000
    6       -6.758869     -6.758848   1.000000   1.000000
    7       -6.175036     -6.175064   1.000000   1.000000
    8       -5.536194     -5.536214   1.000000   1.000000
    9       -2.604500     -2.604346   1.000000   1.000000
   10       -2.471315     -2.471177   1.000000   1.000000
   11       -1.803476     -1.803346   1.000000   1.000000
   12       -0.786193     -0.786005   1.000000   1.000000
   13       -0.151867     -0.151805   1.000000   1.000000
   14        0.072846      0.072920   1.000000   1.000000
   15        0.866431      0.866488   1.000000   1.000000
   16        1.445517      1.445633   1.000000   1.000000
   17        7.128421      7.128420   0.000000   0.000000
   18        7.411062      7.411041   0.000000   0.000000
   19        8.825965      8.825961   0.000000   0.000000
   20        9.437127      9.437174   0.000000   0.000000
   21       10.121981     10.121895   0.000000   0.000000
   22       11.083878     11.083936   0.000000   0.000000
   23       12.025275     12.023411   0.000000   0.000000
   24       12.295706     12.295183   0.000000   0.000000
 
  0.5000000E+00  0.1298540E-16 -0.1298540E-16  0.1736111E-02
    1      -19.774807    -19.774703   1.000000   1.000000
    2      -17.880123    -17.879947   1.000000   1.000000
    3      -14.777820    -14.777829   1.000000   1.000000
    4      -13.632637    -13.632608   1.000000   1.000000
    5       -9.657389     -9.657406   1.000000   1.000000
    6       -6.730602     -6.730582   1.000000   1.000000
    7       -6.253011     -6.253037   1.000000   1.000000
    8       -5.498375     -5.498396   1.000000   1.000000
    9       -2.670972     -2.670828   1.000000   1.000000
   10       -2.514657     -2.514505   1.000000   1.000000
   11       -1.852041     -1.851914   1.000000   1.000000
   12       -0.654161     -0.653931   1.000000   1.000000
   13       -0.337894     -0.337875   1.000000   1.000000
   14        0.056318      0.056391   1.000000   1.000000
   15        0.962843      0.962893   1.000000   1.000000
   16        1.334797      1.334918   1.000000   1.000000
   17        7.219860      7.219866   0.000000   0.000000
   18        7.491969      7.491953   0.000000   0.000000
   19        8.869471      8.869421   0.000000   0.000000
   20        9.785174      9.785224   0.000000   0.000000
   21       10.004473     10.004411   0.000000   0.000000
   22       10.900527     10.900744   0.000000   0.000000
   23       11.954352     11.954299   0.000000   0.000000
   24       12.204972     12.204258   0.000000   0.000000
 
 -0.5109760E-17  0.1250000E+00 -0.2264582E-16  0.3472222E-02
    1      -19.875913    -19.875815   1.000000   1.000000
    2      -17.946734    -17.946562   1.000000   1.000000
    3      -14.287353    -14.287315   1.000000   1.000000
    4      -12.742970    -12.742956   1.000000   1.000000
    5      -11.493018    -11.493053   1.000000   1.000000
    6       -6.965056     -6.965036   1.000000   1.000000
    7       -5.880999     -5.881024   1.000000   1.000000
    8       -5.639895     -5.639922   1.000000   1.000000
    9       -2.798988     -2.798841   1.000000   1.000000
   10       -2.073378     -2.073238   1.000000   1.000000
   11       -1.149691     -1.149517   1.000000   1.000000
   12       -1.018611     -1.018452   1.000000   1.000000
   13        0.022735      0.022779   1.000000   1.000000
   14        0.201208      0.201276   1.000000   1.000000
   15        0.823906      0.823983   1.000000   1.000000
   16        1.622955      1.623075   1.000000   1.000000
   17        6.723173      6.723198  -0.000000  -0.000000
   18        7.217038      7.217021   0.000000   0.000000
   19        8.256064      8.256059   0.000000   0.000000
   20        9.561403      9.561478   0.000000   0.000000
   21        9.926168      9.926198   0.000000   0.000000
   22       11.193887     11.193852   0.000000   0.000000
   23       12.511128     12.521130   0.000000   0.000000
   24       13.338468     13.334803   0.000000   0.000000
 
  0.1250000E+00  0.1250000E+00 -0.4529163E-16  0.3472222E-02
    1      -19.836141    -19.836041   1.000000   1.000000
    2      -17.957538    -17.957366   1.000000   1.000000
    3      -14.468969    -14.468942   1.000000   1.000000
    4      -12.987335    -12.987324   1.000000   1.000000
    5      -10.953814    -10.953838   1.000000   1.000000
    6       -6.941630     -6.941610   1.000000   1.000000
    7       -5.912968     -5.912985   1.000000   1.000000
    8       -5.623566     -5.623598   1.000000   1.000000
    9       -2.741138     -2.740990   1.000000   1.000000
   10       -2.163141     -2.163004   1.000000   1.000000
   11       -1.346710     -1.346560   1.000000   1.000000
   12       -1.021873     -1.021702   1.000000   1.000000
   13        0.006299      0.006364   1.000000   1.000000
   14        0.156833      0.156896   1.000000   1.000000
   15        0.729318      0.729394   1.000000   1.000000
   16        1.644897      1.645011   1.000000   1.000000
   17        6.948050      6.948066  -0.000000  -0.000000
   18        7.351376      7.351350   0.000000   0.000000
   19        8.275495      8.275520   0.000000   0.000000
   20        9.681293      9.681286   0.000000   0.000000
   21        9.937139      9.937223   0.000000   0.000000
   22       10.962934     10.962901   0.000000   0.000000
   23       12.477750     12.476287   0.000000   0.000000
   24       13.164392     13.164116   0.000000   0.000000
 
  0.2500000E+00  0.1250000E+00  0.2353820E-16  0.3472222E-02
    1      -19.773789    -19.773685   1.000000   1.000000
    2      -17.974078    -17.973908   1.000000   1.000000
    3      -14.662566    -14.662554   1.000000   1.000000
    4      -13.304689    -13.304673   1.000000   1.000000
    5      -10.225598    -10.225616   1.000000   1.000000
    6       -6.948865     -6.948849   1.000000   1.000000
    7       -5.996758     -5.996773   1.000000   1.000000
    8       -5.538862     -5.538891   1.000000   1.000000
    9       -2.669687     -2.669537   1.000000   1.000000
   10       -2.350269     -2.350135   1.000000   1.000000
   11       -1.666033     -1.665895   1.000000   1.000000
   12       -0.930896     -0.930720   1.000000   1.000000
   13       -0.037150     -0.037067   1.000000   1.000000
   14        0.098800      0.098865   1.000000   1.000000
   15        0.668322      0.668387   1.000000   1.000000
   16        1.616937      1.617045   1.000000   1.000000
   17        7.157239      7.157240   0.000000   0.000000
   18        7.498500      7.498468   0.000000   0.000000
   19        8.554503      8.554540   0.000000   0.000000
   20        9.608596      9.608620   0.000000   0.000000
   21       10.011266     10.011201   0.000000   0.000000
   22       10.931686     10.931837   0.000000   0.000000
   23       12.145636     12.144950   0.000000   0.000000
   24       12.822293     12.820078   0.000000   0.000000
 
  0.3750000E+00  0.1250000E+00 -0.9625213E-16  0.3472222E-02
    1      -19.724898    -19.724792   1.000000   1.000000
    2      -17.986863    -17.986694   1.000000   1.000000
    3      -14.768358    -14.768357   1.000000   1.000000
    4      -13.529368    -13.529344   1.000000   1.000000
    5       -9.672372     -9.672387   1.000000   1.000000
    6       -7.016186     -7.016176   1.000000   1.000000
    7       -6.059812     -6.059825   1.000000   1.000000
    8       -5.451421     -5.451446   1.000000   1.000000
    9       -2.680664     -2.680523   1.000000   1.000000
   10       -2.510637     -2.510491   1.000000   1.000000
   11       -1.841117     -1.840986   1.000000   1.000000
   12       -0.754839     -0.754639   1.000000   1.000000
   13       -0.207106     -0.207048   1.000000   1.000000
   14        0.043777      0.043848   1.000000   1.000000
   15        0.791162      0.791225   1.000000   1.000000
   16        1.482073      1.482178   1.000000   1.000000
   17        7.287942      7.287939   0.000000   0.000000
   18        7.546738      7.546721   0.000000   0.000000
   19        8.787649      8.787621   0.000000   0.000000
   20        9.718243      9.718272   0.000000   0.000000
   21       10.044484     10.044411   0.000000   0.000000
   22       11.027961     11.028212   0.000000   0.000000
   23       11.903542     11.903526   0.000000   0.000000
   24       12.375423     12.373163   0.000000   0.000000
 
  0.5000000E+00  0.1250000E+00 -0.4950901E-16  0.3472222E-02
    1      -19.721503    -19.721397   1.000000   1.000000
    2      -17.987095    -17.986925   1.000000   1.000000
    3      -14.699834    -14.699838   1.000000   1.000000
    4      -13.666149    -13.666121   1.000000   1.000000
    5       -9.562096     -9.562111   1.000000   1.000000
    6       -7.051437     -7.051430   1.000000   1.000000
    7       -6.065160     -6.065175   1.000000   1.000000
    8       -5.421012     -5.421032   1.000000   1.000000
    9       -2.674249     -2.674110   1.000000   1.000000
   10       -2.558257     -2.558112   1.000000   1.000000
   11       -1.878987     -1.878857   1.000000   1.000000
   12       -0.706197     -0.705975   1.000000   1.000000
   13       -0.237676     -0.237637   1.000000   1.000000
   14        0.062757      0.062829   1.000000   1.000000
   15        0.978312      0.978372   1.000000   1.000000
   16        1.315225      1.315335   1.000000   1.000000
   17        7.157988      7.157985   0.000000   0.000000
   18        7.551470      7.551451   0.000000   0.000000
   19        8.805190      8.805155   0.000000   0.000000
   20       10.001744     10.001733   0.000000   0.000000
   21       10.064191     10.064151   0.000000   0.000000
   22       10.894706     10.894948   0.000000   0.000000
   23       11.929422     11.929423   0.000000   0.000000
   24       12.247872     12.239612   0.000000   0.000000
 
 -0.3750000E+00  0.1250000E+00  0.1753606E-16  0.3472222E-02
    1      -19.765843    -19.765739   1.000000   1.000000
    2      -17.974586    -17.974416   1.000000   1.000000
    3      -14.451115    -14.451112   1.000000   1.000000
    4      -13.712664    -13.712639   1.000000   1.000000
    5       -9.952111     -9.952128   1.000000   1.000000
    6       -7.007786     -7.007775   1.000000   1.000000
    7       -6.014881     -6.014906   1.000000   1.000000
    8       -5.464770     -5.464786   1.000000   1.000000
    9       -2.687855     -2.687711   1.000000   1.000000
   10       -2.385255     -2.385122   1.000000   1.000000
   11       -1.808548     -1.808413   1.000000   1.000000
   12       -0.867762     -0.867566   1.000000   1.000000
   13       -0.042969     -0.042904   1.000000   1.000000
   14        0.132499      0.132573   1.000000   1.000000
   15        0.966370      0.966435   1.000000   1.000000
   16        1.386515      1.386627   1.000000   1.000000
   17        6.934339      6.934332   0.000000   0.000000
   18        7.407055      7.407023   0.000000   0.000000
   19        8.787676      8.787692   0.000000   0.000000
   20        9.539531      9.539573   0.000000   0.000000
   21       10.291845     10.291737   0.000000   0.000000
   22       11.117153     11.117493   0.000000   0.000000
   23       11.874831     11.874804   0.000000   0.000000
   24       12.328961     12.323959   0.000000   0.000000
 
 -0.2500000E+00  0.1250000E+00 -0.3003090E-16  0.3472222E-02
    1      -19.828533    -19.828432   1.000000   1.000000
    2      -17.958048    -17.957876   1.000000   1.000000
    3      -14.199050    -14.199022   1.000000   1.000000
    4      -13.547592    -13.547585   1.000000   1.000000
    5      -10.606389    -10.606409   1.000000   1.000000
    6       -6.981863     -6.981846   1.000000   1.000000
    7       -5.929123     -5.929157   1.000000   1.000000
    8       -5.554521     -5.554535   1.000000   1.000000
    9       -2.773774     -2.773632   1.000000   1.000000
   10       -2.117717     -2.117580   1.000000   1.000000
   11       -1.561301     -1.561166   1.000000   1.000000
   12       -1.001849     -1.001659   1.000000   1.000000
   13        0.059018      0.059081   1.000000   1.000000
   14        0.193624      0.193695   1.000000   1.000000
   15        0.919846      0.919920   1.000000   1.000000
   16        1.527199      1.527314   1.000000   1.000000
   17        6.902712      6.902724   0.000000   0.000000
   18        7.142534      7.142486   0.000000   0.000000
   19        8.325160      8.325205   0.000000   0.000000
   20        9.624132      9.624116   0.000000   0.000000
   21       10.270316     10.270396   0.000000   0.000000
   22       10.954173     10.954142   0.000000   0.000000
   23       12.338044     12.336257   0.000000   0.000000
   24       12.694978     12.682729   0.000000   0.000000
 
 -0.1250000E+00  0.1250000E+00 -0.3851755E-16  0.3472222E-02
    1      -19.872884    -19.872786   1.000000   1.000000
    2      -17.946954    -17.946781   1.000000   1.000000
    3      -14.176648    -14.176607   1.000000   1.000000
    4      -13.066442    -13.066438   1.000000   1.000000
    5      -11.260467    -11.260495   1.000000   1.000000
    6       -6.979021     -6.979002   1.000000   1.000000
    7       -5.879819     -5.879853   1.000000   1.000000
    8       -5.619384     -5.619401   1.000000   1.000000
    9       -2.813028     -2.812883   1.000000   1.000000
   10       -2.048480     -2.048340   1.000000   1.000000
   11       -1.195951     -1.195810   1.000000   1.000000
   12       -1.077713     -1.077526   1.000000   1.000000
   13        0.066124      0.066180   1.000000   1.000000
   14        0.212420      0.212484   1.000000   1.000000
   15        0.888724      0.888802   1.000000   1.000000
   16        1.593767      1.593888   1.000000   1.000000
   17        6.730242      6.730261   0.000000   0.000000
   18        7.174677      7.174648   0.000000   0.000000
   19        8.129807      8.129828   0.000000   0.000000
   20        9.684945      9.684933   0.000000   0.000000
   21        9.978006      9.978136   0.000000   0.000000
   22       11.132331     11.132272   0.000000   0.000000
   23       12.493680     12.488658   0.000000   0.000000
   24       13.233473     13.212047   0.000000   0.000000
 
 -0.1021952E-16  0.2500000E+00 -0.4529163E-16  0.3472222E-02
    1      -19.688031    -19.687928   1.000000   1.000000
    2      -18.211031    -18.210872   1.000000   1.000000
    3      -14.505555    -14.505522   1.000000   1.000000
    4      -12.775302    -12.775289   1.000000   1.000000
    5      -10.940486    -10.940509   1.000000   1.000000
    6       -7.088853     -7.088832   1.000000   1.000000
    7       -5.877016     -5.877034   1.000000   1.000000
    8       -5.492462     -5.492492   1.000000   1.000000
    9       -2.868387     -2.868251   1.000000   1.000000
   10       -2.118591     -2.118454   1.000000   1.000000
   11       -1.306820     -1.306649   1.000000   1.000000
   12       -1.193620     -1.193460   1.000000   1.000000
   13       -0.070086     -0.070010   1.000000   1.000000
   14        0.242137      0.242188   1.000000   1.000000
   15        0.703054      0.703142   1.000000   1.000000
   16        1.608800      1.608908   1.000000   1.000000
   17        7.150817      7.150813   0.000000   0.000000
   18        7.598853      7.598833   0.000000   0.000000
   19        8.533388      8.533388   0.000000   0.000000
   20        9.500177      9.500171   0.000000   0.000000
   21        9.960419      9.960505   0.000000   0.000000
   22       11.056803     11.056745   0.000000   0.000000
   23       12.173783     12.176325   0.000000   0.000000
   24       12.745902     12.748352   0.000000   0.000000
 
  0.1250000E+00  0.2500000E+00 -0.2913852E-16  0.3472222E-02
    1      -19.636901    -19.636795   1.000000   1.000000
    2      -18.236111    -18.235954   1.000000   1.000000
    3      -14.659707    -14.659680   1.000000   1.000000
    4      -12.961443    -12.961431   1.000000   1.000000
    5      -10.440395    -10.440412   1.000000   1.000000
    6       -7.143030     -7.143011   1.000000   1.000000
    7       -5.877896     -5.877905   1.000000   1.000000
    8       -5.466276     -5.466310   1.000000   1.000000
    9       -2.811420     -2.811283   1.000000   1.000000
   10       -2.256714     -2.256583   1.000000   1.000000
   11       -1.485675     -1.485524   1.000000   1.000000
   12       -1.186153     -1.185978   1.000000   1.000000
   13       -0.109060     -0.108968   1.000000   1.000000
   14        0.244846      0.244901   1.000000   1.000000
   15        0.618641      0.618722   1.000000   1.000000
   16        1.645506      1.645605   1.000000   1.000000
   17        7.243913      7.243917   0.000000   0.000000
   18        7.731252      7.731213   0.000000   0.000000
   19        8.736424      8.736444   0.000000   0.000000
   20        9.557802      9.557733   0.000000   0.000000
   21       10.025277     10.025372   0.000000   0.000000
   22       10.785131     10.785134   0.000000   0.000000
   23       12.203377     12.203344   0.000000   0.000000
   24       12.704593     12.703806   0.000000   0.000000
 
  0.2500000E+00  0.2500000E+00 -0.9058326E-16  0.3472222E-02
    1      -19.577384    -19.577275   1.000000   1.000000
    2      -18.263533    -18.263379   1.000000   1.000000
    3      -14.749076    -14.749058   1.000000   1.000000
    4      -13.264638    -13.264622   1.000000   1.000000
    5       -9.776858     -9.776872   1.000000   1.000000
    6       -7.330671     -7.330659   1.000000   1.000000
    7       -5.863164     -5.863170   1.000000   1.000000
    8       -5.390320     -5.390350   1.000000   1.000000
    9       -2.810882     -2.810748   1.000000   1.000000
   10       -2.400939     -2.400805   1.000000   1.000000
   11       -1.746443     -1.746301   1.000000   1.000000
   12       -1.014087     -1.013897   1.000000   1.000000
   13       -0.070006     -0.069905   1.000000   1.000000
   14        0.099822      0.099877   1.000000   1.000000
   15        0.600340      0.600410   1.000000   1.000000
   16        1.639551      1.639643   1.000000   1.000000
   17        7.301890      7.301887   0.000000   0.000000
   18        7.857579      7.857541   0.000000   0.000000
   19        8.790594      8.790592   0.000000   0.000000
   20        9.671198      9.671104   0.000000   0.000000
   21        9.971397      9.971465   0.000000   0.000000
   22       11.063480     11.063566   0.000000   0.000000
   23       12.024565     12.024779   0.000000   0.000000
   24       12.659907     12.658519   0.000000   0.000000
 
  0.3750000E+00  0.2500000E+00 -0.1605313E-15  0.3472222E-02
    1      -19.546236    -19.546125   1.000000   1.000000
    2      -18.275781    -18.275627   1.000000   1.000000
    3      -14.712329    -14.712319   1.000000   1.000000
    4      -13.537722    -13.537700   1.000000   1.000000
    5       -9.284936     -9.284947   1.000000   1.000000
    6       -7.571998     -7.571994   1.000000   1.000000
    7       -5.830206     -5.830213   1.000000   1.000000
    8       -5.317945     -5.317968   1.000000   1.000000
    9       -2.820998     -2.820872   1.000000   1.000000
   10       -2.502746     -2.502605   1.000000   1.000000
   11       -1.909016     -1.908877   1.000000   1.000000
   12       -0.848915     -0.848701   1.000000   1.000000
   13       -0.154818     -0.154762   1.000000   1.000000
   14        0.086757      0.086841   1.000000   1.000000
   15        0.750341      0.750415   1.000000   1.000000
   16        1.509913      1.509997   1.000000   1.000000
   17        7.390960      7.390949   0.000000   0.000000
   18        7.692120      7.692097   0.000000   0.000000
   19        8.754448      8.754415   0.000000   0.000000
   20        9.690449      9.690355   0.000000   0.000000
   21       10.397733     10.397841   0.000000   0.000000
   22       11.196204     11.196261   0.000000   0.000000
   23       11.845175     11.845447   0.000000   0.000000
   24       12.465475     12.457380   0.000000   0.000000
 
  0.5000000E+00  0.2500000E+00  0.4707640E-16  0.3472222E-02
    1      -19.564994    -19.564884   1.000000   1.000000
    2      -18.263598    -18.263444   1.000000   1.000000
    3      -14.510380    -14.510373   1.000000   1.000000
    4      -13.751791    -13.751764   1.000000   1.000000
    5       -9.313344     -9.313354   1.000000   1.000000
    6       -7.587962     -7.587961   1.000000   1.000000
    7       -5.794807     -5.794820   1.000000   1.000000
    8       -5.298912     -5.298930   1.000000   1.000000
    9       -2.724369     -2.724245   1.000000   1.000000
   10       -2.596111     -2.595973   1.000000   1.000000
   11       -1.931852     -1.931711   1.000000   1.000000
   12       -0.919538     -0.919340   1.000000   1.000000
   13       -0.098212     -0.098147   1.000000   1.000000
   14        0.178129      0.178223   1.000000   1.000000
   15        0.996875      0.996955   1.000000   1.000000
   16        1.325260      1.325344   1.000000   1.000000
   17        7.099674      7.099661   0.000000   0.000000
   18        7.718061      7.718022   0.000000   0.000000
   19        8.708509      8.708489   0.000000   0.000000
   20        9.983628      9.983557   0.000000   0.000000
   21       10.477007     10.477020   0.000000   0.000000
   22       11.093540     11.093575   0.000000   0.000000
   23       11.600194     11.600181   0.000000   0.000000
   24       12.194964     12.176777   0.000000   0.000000
 
 -0.3750000E+00  0.2500000E+00  0.6427918E-16  0.3472222E-02
    1      -19.620164    -19.620057   1.000000   1.000000
    2      -18.235955    -18.235798   1.000000   1.000000
    3      -14.199002    -14.198986   1.000000   1.000000
    4      -13.858178    -13.858157   1.000000   1.000000
    5       -9.805386     -9.805400   1.000000   1.000000
    6       -7.401236     -7.401231   1.000000   1.000000
    7       -5.774775     -5.774796   1.000000   1.000000
    8       -5.348083     -5.348097   1.000000   1.000000
    9       -2.839098     -2.838968   1.000000   1.000000
   10       -2.302887     -2.302754   1.000000   1.000000
   11       -1.850941     -1.850799   1.000000   1.000000
   12       -1.067648     -1.067460   1.000000   1.000000
   13       -0.045789     -0.045726   1.000000   1.000000
   14        0.294626      0.294728   1.000000   1.000000
   15        1.017168      1.017244   1.000000   1.000000
   16        1.393240      1.393339   1.000000   1.000000
   17        6.913141      6.913133   0.000000   0.000000
   18        7.533698      7.533641   0.000000   0.000000
   19        8.839106      8.839120   0.000000   0.000000
   20        9.742845      9.742862   0.000000   0.000000
   21       10.460236     10.460167   0.000000   0.000000
   22       11.107607     11.107776   0.000000   0.000000
   23       11.504097     11.504007   0.000000   0.000000
   24       12.075075     12.074740   0.000000   0.000000
 
 -0.2500000E+00  0.2500000E+00 -0.1726820E-16  0.3472222E-02
    1      -19.676666    -19.676563   1.000000   1.000000
    2      -18.210774    -18.210615   1.000000   1.000000
    3      -14.189421    -14.189385   1.000000   1.000000
    4      -13.512575    -13.512569   1.000000   1.000000
    5      -10.414008    -10.414026   1.000000   1.000000
    6       -7.237100     -7.237088   1.000000   1.000000
    7       -5.789373     -5.789399   1.000000   1.000000
    8       -5.426423     -5.426438   1.000000   1.000000
    9       -2.918864     -2.918733   1.000000   1.000000
   10       -2.063571     -2.063431   1.000000   1.000000
   11       -1.599598     -1.599462   1.000000   1.000000
   12       -1.168472     -1.168283   1.000000   1.000000
   13        0.001577      0.001634   1.000000   1.000000
   14        0.279721      0.279812   1.000000   1.000000
   15        0.903078      0.903160   1.000000   1.000000
   16        1.539694      1.539802   1.000000   1.000000
   17        7.016756      7.016764   0.000000   0.000000
   18        7.318625      7.318558   0.000000   0.000000
   19        8.616363      8.616404   0.000000   0.000000
   20        9.674044      9.674008   0.000000   0.000000
   21       10.194042     10.194111   0.000000   0.000000
   22       11.142829     11.142779   0.000000   0.000000
   23       11.675899     11.675813   0.000000   0.000000
   24       12.560337     12.547224   0.000000   0.000000
 
 -0.1250000E+00  0.2500000E+00 -0.8509586E-16  0.3472222E-02
    1      -19.703767    -19.703664   1.000000   1.000000
    2      -18.201096    -18.200936   1.000000   1.000000
    3      -14.337865    -14.337828   1.000000   1.000000
    4      -13.004111    -13.004101   1.000000   1.000000
    5      -10.898761    -10.898784   1.000000   1.000000
    6       -7.132107     -7.132089   1.000000   1.000000
    7       -5.841975     -5.842001   1.000000   1.000000
    8       -5.475207     -5.475229   1.000000   1.000000
    9       -2.919234     -2.919100   1.000000   1.000000
   10       -2.045465     -2.045324   1.000000   1.000000
   11       -1.338114     -1.337963   1.000000   1.000000