       N       E                     dE             d eps       ncg     rms          rms(c)
DAV:   1     0.637160079925E+00    0.63716E+00   -0.68575E+02  2034   0.338E+02
DAV:   2    -0.151923197672E+01   -0.21564E+01   -0.21183E+01  2862   0.486E+01
DAV:   3    -0.160044203859E+01   -0.81210E-01   -0.80872E-01  2550   0.644E+00
DAV:   4    -0.160156447085E+01   -0.11224E-02   -0.11190E-02  2910   0.730E-01
DAV:   5    -0.160157124883E+01   -0.67780E-05   -0.67532E-05  2712   0.443E-02    0.545E+00
RMM:   6    -0.182843653819E+01   -0.22687E+00   -0.62490E-02  2362   0.237E+00    0.260E+00
RMM:   7    -0.190177237176E+01   -0.73336E-01   -0.20132E-02  2227   0.149E+00    0.165E-01
RMM:   8    -0.190323824406E+01   -0.14659E-02   -0.89092E-03  2500   0.850E-01    0.887E-02
RMM:   9    -0.190347057518E+01   -0.23233E-03   -0.23135E-03  2875   0.450E-01    0.331E-02
RMM:  10    -0.190382906868E+01   -0.35849E-03   -0.13564E-03  2684   0.349E-01    0.277E-02
RMM:  11    -0.190387720201E+01   -0.48133E-04   -0.27258E-04  2922   0.141E-01    0.219E-02
RMM:  12    -0.190389677743E+01   -0.19575E-04   -0.12687E-04  2742   0.102E-01    0.726E-03
RMM:  13    -0.190390610106E+01   -0.93236E-05   -0.34874E-05  2413   0.567E-02
   1 F= -.19039061E+01 E0= -.19039061E+01  d E =0.000000E+00  mag=    -0.0001
