Automatically generated mesh
     424
Reciprocal lattice
    0.00000000000000    0.00000000000000    0.00000000000000             1
    0.09090909090909    0.00000000000000   -0.00000000000000             2
    0.18181818181818    0.00000000000000   -0.00000000000000             2
    0.27272727272727   -0.00000000000000   -0.00000000000000             2
    0.36363636363637    0.00000000000000   -0.00000000000000             2
    0.45454545454545    0.00000000000000   -0.00000000000000             2
   -0.00000000000000    0.09090909090909   -0.00000000000000             2
    0.09090909090909    0.09090909090909   -0.00000000000000             2
    0.18181818181818    0.09090909090909   -0.00000000000000             2
    0.27272727272727    0.09090909090909   -0.00000000000000             2
    0.36363636363637    0.09090909090909   -0.00000000000000             2
    0.45454545454545    0.09090909090909   -0.00000000000000             2
   -0.45454545454545    0.09090909090909    0.00000000000000             2
   -0.36363636363637    0.09090909090909    0.00000000000000             2
   -0.27272727272727    0.09090909090909   -0.00000000000000             2
   -0.18181818181818    0.09090909090909   -0.00000000000000             2
   -0.09090909090909    0.09090909090909   -0.00000000000000             2
    0.00000000000000    0.18181818181818   -0.00000000000000             2
    0.09090909090909    0.18181818181818   -0.00000000000000             2
    0.18181818181818    0.18181818181818   -0.00000000000000             2
    0.27272727272727    0.18181818181818   -0.00000000000000             2
    0.36363636363637    0.18181818181818   -0.00000000000000             2
    0.45454545454545    0.18181818181818   -0.00000000000000             2
   -0.45454545454545    0.18181818181818    0.00000000000000             2
   -0.36363636363637    0.18181818181818    0.00000000000000             2
   -0.27272727272727    0.18181818181818   -0.00000000000000             2
   -0.18181818181818    0.18181818181818   -0.00000000000000             2
   -0.09090909090909    0.18181818181818   -0.00000000000000             2
    0.00000000000000    0.27272727272727   -0.00000000000000             2
    0.09090909090909    0.27272727272727   -0.00000000000000             2
    0.18181818181818    0.27272727272727   -0.00000000000000             2
    0.27272727272727    0.27272727272727   -0.00000000000000             2
    0.36363636363637    0.27272727272727   -0.00000000000000             2
    0.45454545454545    0.27272727272727   -0.00000000000000             2
   -0.45454545454545    0.27272727272727    0.00000000000000             2
   -0.36363636363637    0.27272727272727    0.00000000000000             2
   -0.27272727272727    0.27272727272727    0.00000000000000             2
   -0.18181818181818    0.27272727272727   -0.00000000000000             2
   -0.09090909090909    0.27272727272727   -0.00000000000000             2
   -0.00000000000000    0.36363636363637   -0.00000000000000             2
    0.09090909090909    0.36363636363637   -0.00000000000000             2
    0.18181818181818    0.36363636363637   -0.00000000000000             2
    0.27272727272727    0.36363636363637   -0.00000000000000             2
    0.36363636363637    0.36363636363637   -0.00000000000000             2
    0.45454545454545    0.36363636363637   -0.00000000000000             2
   -0.45454545454545    0.36363636363637   -0.00000000000000             2
   -0.36363636363637    0.36363636363637   -0.00000000000000             2
   -0.27272727272727    0.36363636363637   -0.00000000000000             2
   -0.18181818181818    0.36363636363637   -0.00000000000000             2
   -0.09090909090909    0.36363636363637   -0.00000000000000             2
   -0.00000000000000    0.45454545454545   -0.00000000000000             2
    0.09090909090909    0.45454545454545   -0.00000000000000             2
    0.18181818181818    0.45454545454545   -0.00000000000000             2
    0.27272727272727    0.45454545454545   -0.00000000000000             2
    0.36363636363637    0.45454545454545   -0.00000000000000             2
    0.45454545454545    0.45454545454545   -0.00000000000000             2
   -0.45454545454545    0.45454545454545   -0.00000000000000             2
   -0.36363636363637    0.45454545454545   -0.00000000000000             2
   -0.27272727272727    0.45454545454545   -0.00000000000000             2
   -0.18181818181818    0.45454545454545   -0.00000000000000             2
   -0.09090909090909    0.45454545454545   -0.00000000000000             2
    0.00000000000000    0.00000000000000    0.14285714285714             2
    0.09090909090909    0.00000000000000    0.14285714285714             2
    0.18181818181818    0.00000000000000    0.14285714285714             2
    0.27272727272727   -0.00000000000000    0.14285714285714             2
    0.36363636363637    0.00000000000000    0.14285714285714             2
    0.45454545454545    0.00000000000000    0.14285714285714             2
   -0.45454545454545   -0.00000000000000    0.14285714285714             2
   -0.36363636363637   -0.00000000000000    0.14285714285714             2
   -0.27272727272727    0.00000000000000    0.14285714285714             2
   -0.18181818181818   -0.00000000000000    0.14285714285714             2
   -0.09090909090909   -0.00000000000000    0.14285714285714             2
   -0.00000000000000    0.09090909090909    0.14285714285714             2
    0.09090909090909    0.09090909090909    0.14285714285714             2
    0.18181818181818    0.09090909090909    0.14285714285714             2
    0.27272727272727    0.09090909090909    0.14285714285714             2
    0.36363636363637    0.09090909090909    0.14285714285714             2
    0.45454545454545    0.09090909090909    0.14285714285714             2
   -0.45454545454545    0.09090909090909    0.14285714285714             2
   -0.36363636363637    0.09090909090909    0.14285714285714             2
   -0.27272727272727    0.09090909090909    0.14285714285714             2
   -0.18181818181818    0.09090909090909    0.14285714285714             2
   -0.09090909090909    0.09090909090909    0.14285714285714             2
    0.00000000000000    0.18181818181818    0.14285714285714             2
    0.09090909090909    0.18181818181818    0.14285714285714             2
    0.18181818181818    0.18181818181818    0.14285714285714             2
    0.27272727272727    0.18181818181818    0.14285714285714             2
    0.36363636363637    0.18181818181818    0.14285714285714             2
    0.45454545454545    0.18181818181818    0.14285714285714             2
   -0.45454545454545    0.18181818181818    0.14285714285714             2
   -0.36363636363637    0.18181818181818    0.14285714285714             2
   -0.27272727272727    0.18181818181818    0.14285714285714             2
   -0.18181818181818    0.18181818181818    0.14285714285714             2
   -0.09090909090909    0.18181818181818    0.14285714285714             2
    0.00000000000000    0.27272727272727    0.14285714285714             2
    0.09090909090909    0.27272727272727    0.14285714285714             2
    0.18181818181818    0.27272727272727    0.14285714285714             2
    0.27272727272727    0.27272727272727    0.14285714285714             2
    0.36363636363637    0.27272727272727    0.14285714285714             2
    0.45454545454545    0.27272727272727    0.14285714285714             2
   -0.45454545454545    0.27272727272727    0.14285714285714             2
   -0.36363636363637    0.27272727272727    0.14285714285714             2
   -0.27272727272727    0.27272727272727    0.14285714285714             2
   -0.18181818181818    0.27272727272727    0.14285714285714             2
   -0.09090909090909    0.27272727272727    0.14285714285714             2
   -0.00000000000000    0.36363636363637    0.14285714285714             2
    0.09090909090909    0.36363636363637    0.14285714285714             2
    0.18181818181818    0.36363636363637    0.14285714285714             2
    0.27272727272727    0.36363636363637    0.14285714285714             2
    0.36363636363637    0.36363636363637    0.14285714285714             2
    0.45454545454545    0.36363636363637    0.14285714285714             2
   -0.45454545454545    0.36363636363637    0.14285714285714             2
   -0.36363636363637    0.36363636363637    0.14285714285714             2
   -0.27272727272727    0.36363636363637    0.14285714285714             2
   -0.18181818181818    0.36363636363637    0.14285714285714             2
   -0.09090909090909    0.36363636363637    0.14285714285714             2
   -0.00000000000000    0.45454545454545    0.14285714285714             2
    0.09090909090909    0.45454545454545    0.14285714285714             2
    0.18181818181818    0.45454545454545    0.14285714285714             2
    0.27272727272727    0.45454545454545    0.14285714285714             2
    0.36363636363637    0.45454545454545    0.14285714285714             2
    0.45454545454545    0.45454545454545    0.14285714285714             2
   -0.45454545454545    0.45454545454545    0.14285714285714             2
   -0.36363636363637    0.45454545454545    0.14285714285714             2
   -0.27272727272727    0.45454545454545    0.14285714285714             2
   -0.18181818181818    0.45454545454545    0.14285714285714             2
   -0.09090909090909    0.45454545454545    0.14285714285714             2
    0.00000000000000   -0.45454545454545    0.14285714285714             2
    0.09090909090909   -0.45454545454545    0.14285714285714             2
    0.18181818181818   -0.45454545454545    0.14285714285714             2
    0.27272727272727   -0.45454545454545    0.14285714285714             2
    0.36363636363637   -0.45454545454545    0.14285714285714             2
    0.45454545454545   -0.45454545454545    0.14285714285714             2
   -0.45454545454545   -0.45454545454545    0.14285714285714             2
   -0.36363636363637   -0.45454545454545    0.14285714285714             2
   -0.27272727272727   -0.45454545454545    0.14285714285714             2
   -0.18181818181818   -0.45454545454545    0.14285714285714             2
   -0.09090909090909   -0.45454545454545    0.14285714285714             2
    0.00000000000000   -0.36363636363637    0.14285714285714             2
    0.09090909090909   -0.36363636363637    0.14285714285714             2
    0.18181818181818   -0.36363636363637    0.14285714285714             2
    0.27272727272727   -0.36363636363637    0.14285714285714             2
    0.36363636363637   -0.36363636363637    0.14285714285714             2
    0.45454545454545   -0.36363636363637    0.14285714285714             2
   -0.45454545454545   -0.36363636363637    0.14285714285714             2
   -0.36363636363637   -0.36363636363637    0.14285714285714             2
   -0.27272727272727   -0.36363636363637    0.14285714285714             2
   -0.18181818181818   -0.36363636363637    0.14285714285714             2
   -0.09090909090909   -0.36363636363637    0.14285714285714             2
   -0.00000000000000   -0.27272727272727    0.14285714285714             2
    0.09090909090909   -0.27272727272727    0.14285714285714             2
    0.18181818181818   -0.27272727272727    0.14285714285714             2
    0.27272727272727   -0.27272727272727    0.14285714285714             2
    0.36363636363637   -0.27272727272727    0.14285714285714             2
    0.45454545454545   -0.27272727272727    0.14285714285714             2
   -0.45454545454545   -0.27272727272727    0.14285714285714             2
   -0.36363636363637   -0.27272727272727    0.14285714285714             2
   -0.27272727272727   -0.27272727272727    0.14285714285714             2
   -0.18181818181818   -0.27272727272727    0.14285714285714             2
   -0.09090909090909   -0.27272727272727    0.14285714285714             2
   -0.00000000000000   -0.18181818181818    0.14285714285714             2
    0.09090909090909   -0.18181818181818    0.14285714285714             2
    0.18181818181818   -0.18181818181818    0.14285714285714             2
    0.27272727272727   -0.18181818181818    0.14285714285714             2
    0.36363636363637   -0.18181818181818    0.14285714285714             2
    0.45454545454545   -0.18181818181818    0.14285714285714             2
   -0.45454545454545   -0.18181818181818    0.14285714285714             2
   -0.36363636363637   -0.18181818181818    0.14285714285714             2
   -0.27272727272727   -0.18181818181818    0.14285714285714             2
   -0.18181818181818   -0.18181818181818    0.14285714285714             2
   -0.09090909090909   -0.18181818181818    0.14285714285714             2
    0.00000000000000   -0.09090909090909    0.14285714285714             2
    0.09090909090909   -0.09090909090909    0.14285714285714             2
    0.18181818181818   -0.09090909090909    0.14285714285714             2
    0.27272727272727   -0.09090909090909    0.14285714285714             2
    0.36363636363637   -0.09090909090909    0.14285714285714             2
    0.45454545454545   -0.09090909090909    0.14285714285714             2
   -0.45454545454545   -0.09090909090909    0.14285714285714             2
   -0.36363636363637   -0.09090909090909    0.14285714285714             2
   -0.27272727272727   -0.09090909090909    0.14285714285714             2
   -0.18181818181818   -0.09090909090909    0.14285714285714             2
   -0.09090909090909   -0.09090909090909    0.14285714285714             2
    0.00000000000000    0.00000000000000    0.28571428571429             2
    0.09090909090909    0.00000000000000    0.28571428571429             2
    0.18181818181818    0.00000000000000    0.28571428571429             2
    0.27272727272727   -0.00000000000000    0.28571428571429             2
    0.36363636363637    0.00000000000000    0.28571428571429             2
    0.45454545454545    0.00000000000000    0.28571428571429             2
   -0.45454545454545   -0.00000000000000    0.28571428571429             2
   -0.36363636363637   -0.00000000000000    0.28571428571429             2
   -0.27272727272727    0.00000000000000    0.28571428571429             2
   -0.18181818181818   -0.00000000000000    0.28571428571429             2
   -0.09090909090909   -0.00000000000000    0.28571428571429             2
   -0.00000000000000    0.09090909090909    0.28571428571429             2
    0.09090909090909    0.09090909090909    0.28571428571429             2
    0.18181818181818    0.09090909090909    0.28571428571429             2
    0.27272727272727    0.09090909090909    0.28571428571429             2
    0.36363636363637    0.09090909090909    0.28571428571429             2
    0.45454545454545    0.09090909090909    0.28571428571429             2
   -0.45454545454545    0.09090909090909    0.28571428571429             2
   -0.36363636363637    0.09090909090909    0.28571428571429             2
   -0.27272727272727    0.09090909090909    0.28571428571429             2
   -0.18181818181818    0.09090909090909    0.28571428571429             2
   -0.09090909090909    0.09090909090909    0.28571428571429             2
    0.00000000000000    0.18181818181818    0.28571428571429             2
    0.09090909090909    0.18181818181818    0.28571428571429             2
    0.18181818181818    0.18181818181818    0.28571428571429             2
    0.27272727272727    0.18181818181818    0.28571428571429             2
    0.36363636363637    0.18181818181818    0.28571428571429             2
    0.45454545454545    0.18181818181818    0.28571428571429             2
   -0.45454545454545    0.18181818181818    0.28571428571429             2
   -0.36363636363637    0.18181818181818    0.28571428571429             2
   -0.27272727272727    0.18181818181818    0.28571428571429             2
   -0.18181818181818    0.18181818181818    0.28571428571429             2
   -0.09090909090909    0.18181818181818    0.28571428571429             2
    0.00000000000000    0.27272727272727    0.28571428571429             2
    0.09090909090909    0.27272727272727    0.28571428571429             2
    0.18181818181818    0.27272727272727    0.28571428571429             2
    0.27272727272727    0.27272727272727    0.28571428571429             2
    0.36363636363637    0.27272727272727    0.28571428571429             2
    0.45454545454545    0.27272727272727    0.28571428571429             2
   -0.45454545454545    0.27272727272727    0.28571428571429             2
   -0.36363636363637    0.27272727272727    0.28571428571429             2
   -0.27272727272727    0.27272727272727    0.28571428571429             2
   -0.18181818181818    0.27272727272727    0.28571428571429             2
   -0.09090909090909    0.27272727272727    0.28571428571429             2
   -0.00000000000000    0.36363636363637    0.28571428571429             2
    0.09090909090909    0.36363636363637    0.28571428571429             2
    0.18181818181818    0.36363636363637    0.28571428571429             2
    0.27272727272727    0.36363636363637    0.28571428571429             2
    0.36363636363637    0.36363636363637    0.28571428571429             2
    0.45454545454545    0.36363636363637    0.28571428571429             2
   -0.45454545454545    0.36363636363637    0.28571428571429             2
   -0.36363636363637    0.36363636363637    0.28571428571429             2
   -0.27272727272727    0.36363636363637    0.28571428571429             2
   -0.18181818181818    0.36363636363637    0.28571428571429             2
   -0.09090909090909    0.36363636363637    0.28571428571429             2
   -0.00000000000000    0.45454545454545    0.28571428571429             2
    0.09090909090909    0.45454545454545    0.28571428571429             2
    0.18181818181818    0.45454545454545    0.28571428571429             2
    0.27272727272727    0.45454545454545    0.28571428571429             2
    0.36363636363637    0.45454545454545    0.28571428571429             2
    0.45454545454545    0.45454545454545    0.28571428571429             2
   -0.45454545454545    0.45454545454545    0.28571428571429             2
   -0.36363636363637    0.45454545454545    0.28571428571429             2
   -0.27272727272727    0.45454545454545    0.28571428571429             2
   -0.18181818181818    0.45454545454545    0.28571428571429             2
   -0.09090909090909    0.45454545454545    0.28571428571429             2
    0.00000000000000   -0.45454545454545    0.28571428571429             2
    0.09090909090909   -0.45454545454545    0.28571428571429             2
    0.18181818181818   -0.45454545454545    0.28571428571429             2
    0.27272727272727   -0.45454545454545    0.28571428571429             2
    0.36363636363637   -0.45454545454545    0.28571428571429             2
    0.45454545454545   -0.45454545454545    0.28571428571429             2
   -0.45454545454545   -0.45454545454545    0.28571428571429             2
   -0.36363636363637   -0.45454545454545    0.28571428571429             2
   -0.27272727272727   -0.45454545454545    0.28571428571429             2
   -0.18181818181818   -0.45454545454545    0.28571428571429             2
   -0.09090909090909   -0.45454545454545    0.28571428571429             2
    0.00000000000000   -0.36363636363637    0.28571428571429             2
    0.09090909090909   -0.36363636363637    0.28571428571429             2
    0.18181818181818   -0.36363636363637    0.28571428571429             2
    0.27272727272727   -0.36363636363637    0.28571428571429             2
    0.36363636363637   -0.36363636363637    0.28571428571429             2
    0.45454545454545   -0.36363636363637    0.28571428571429             2
   -0.45454545454545   -0.36363636363637    0.28571428571429             2
   -0.36363636363637   -0.36363636363637    0.28571428571429             2
   -0.27272727272727   -0.36363636363637    0.28571428571429             2
   -0.18181818181818   -0.36363636363637    0.28571428571429             2
   -0.09090909090909   -0.36363636363637    0.28571428571429             2
   -0.00000000000000   -0.27272727272727    0.28571428571429             2
    0.09090909090909   -0.27272727272727    0.28571428571429             2
    0.18181818181818   -0.27272727272727    0.28571428571429             2
    0.27272727272727   -0.27272727272727    0.28571428571429             2
    0.36363636363637   -0.27272727272727    0.28571428571429             2
    0.45454545454545   -0.27272727272727    0.28571428571429             2
   -0.45454545454545   -0.27272727272727    0.28571428571429             2
   -0.36363636363637   -0.27272727272727    0.28571428571429             2
   -0.27272727272727   -0.27272727272727    0.28571428571429             2
   -0.18181818181818   -0.27272727272727    0.28571428571429             2
   -0.09090909090909   -0.27272727272727    0.28571428571429             2
   -0.00000000000000   -0.18181818181818    0.28571428571429             2
    0.09090909090909   -0.18181818181818    0.28571428571429             2
    0.18181818181818   -0.18181818181818    0.28571428571429             2
    0.27272727272727   -0.18181818181818    0.28571428571429             2
    0.36363636363637   -0.18181818181818    0.28571428571429             2
    0.45454545454545   -0.18181818181818    0.28571428571429             2
   -0.45454545454545   -0.18181818181818    0.28571428571429             2
   -0.36363636363637   -0.18181818181818    0.28571428571429             2
   -0.27272727272727   -0.18181818181818    0.28571428571429             2
   -0.18181818181818   -0.18181818181818    0.28571428571429             2
   -0.09090909090909   -0.18181818181818    0.28571428571429             2
    0.00000000000000   -0.09090909090909    0.28571428571429             2
    0.09090909090909   -0.09090909090909    0.28571428571429             2
    0.18181818181818   -0.09090909090909    0.28571428571429             2
    0.27272727272727   -0.09090909090909    0.28571428571429             2
    0.36363636363637   -0.09090909090909    0.28571428571429             2
    0.45454545454545   -0.09090909090909    0.28571428571429             2
   -0.45454545454545   -0.09090909090909    0.28571428571429             2
   -0.36363636363637   -0.09090909090909    0.28571428571429             2
   -0.27272727272727   -0.09090909090909    0.28571428571429             2
   -0.18181818181818   -0.09090909090909    0.28571428571429             2
   -0.09090909090909   -0.09090909090909    0.28571428571429             2
    0.00000000000000    0.00000000000000    0.42857142857143             2
    0.09090909090909    0.00000000000000    0.42857142857143             2
    0.18181818181818    0.00000000000000    0.42857142857143             2
    0.27272727272727   -0.00000000000000    0.42857142857143             2
    0.36363636363637    0.00000000000000    0.42857142857143             2
    0.45454545454545    0.00000000000000    0.42857142857143             2
   -0.45454545454545   -0.00000000000000    0.42857142857143             2
   -0.36363636363637   -0.00000000000000    0.42857142857143             2
   -0.27272727272727    0.00000000000000    0.42857142857143             2
   -0.18181818181818   -0.00000000000000    0.42857142857143             2
   -0.09090909090909   -0.00000000000000    0.42857142857143             2
   -0.00000000000000    0.09090909090909    0.42857142857143             2
    0.09090909090909    0.09090909090909    0.42857142857143             2
    0.18181818181818    0.09090909090909    0.42857142857143             2
    0.27272727272727    0.09090909090909    0.42857142857143             2
    0.36363636363637    0.09090909090909    0.42857142857143             2
    0.45454545454545    0.09090909090909    0.42857142857143             2
   -0.45454545454545    0.09090909090909    0.42857142857143             2
   -0.36363636363637    0.09090909090909    0.42857142857143             2
   -0.27272727272727    0.09090909090909    0.42857142857143             2
   -0.18181818181818    0.09090909090909    0.42857142857143             2
   -0.09090909090909    0.09090909090909    0.42857142857143             2
    0.00000000000000    0.18181818181818    0.42857142857143             2
    0.09090909090909    0.18181818181818    0.42857142857143             2
    0.18181818181818    0.18181818181818    0.42857142857143             2
    0.27272727272727    0.18181818181818    0.42857142857143             2
    0.36363636363637    0.18181818181818    0.42857142857143             2
    0.45454545454545    0.18181818181818    0.42857142857143             2
   -0.45454545454545    0.18181818181818    0.42857142857143             2
   -0.36363636363637    0.18181818181818    0.42857142857143             2
   -0.27272727272727    0.18181818181818    0.42857142857143             2
   -0.18181818181818    0.18181818181818    0.42857142857143             2
   -0.09090909090909    0.18181818181818    0.42857142857143             2
    0.00000000000000    0.27272727272727    0.42857142857143             2
    0.09090909090909    0.27272727272727    0.42857142857143             2
    0.18181818181818    0.27272727272727    0.42857142857143             2
    0.27272727272727    0.27272727272727    0.42857142857143             2
    0.36363636363637    0.27272727272727    0.42857142857143             2
    0.45454545454545    0.27272727272727    0.42857142857143             2
   -0.45454545454545    0.27272727272727    0.42857142857143             2
   -0.36363636363637    0.27272727272727    0.42857142857143             2
   -0.27272727272727    0.27272727272727    0.42857142857143             2
   -0.18181818181818    0.27272727272727    0.42857142857143             2
   -0.09090909090909    0.27272727272727    0.42857142857143             2
   -0.00000000000000    0.36363636363637    0.42857142857143             2
    0.09090909090909    0.36363636363637    0.42857142857143             2
    0.18181818181818    0.36363636363637    0.42857142857143             2
    0.27272727272727    0.36363636363637    0.42857142857143             2
    0.36363636363637    0.36363636363637    0.42857142857143             2
    0.45454545454545    0.36363636363637    0.42857142857143             2
   -0.45454545454545    0.36363636363637    0.42857142857143             2
   -0.36363636363637    0.36363636363637    0.42857142857143             2
   -0.27272727272727    0.36363636363637    0.42857142857143             2
   -0.18181818181818    0.36363636363637    0.42857142857143             2
   -0.09090909090909    0.36363636363637    0.42857142857143             2
   -0.00000000000000    0.45454545454545    0.42857142857143             2
    0.09090909090909    0.45454545454545    0.42857142857143             2
    0.18181818181818    0.45454545454545    0.42857142857143             2
    0.27272727272727    0.45454545454545    0.42857142857143             2
    0.36363636363637    0.45454545454545    0.42857142857143             2
    0.45454545454545    0.45454545454545    0.42857142857143             2
   -0.45454545454545    0.45454545454545    0.42857142857143             2
   -0.36363636363637    0.45454545454545    0.42857142857143             2
   -0.27272727272727    0.45454545454545    0.42857142857143             2
   -0.18181818181818    0.45454545454545    0.42857142857143             2
   -0.09090909090909    0.45454545454545    0.42857142857143             2
    0.00000000000000   -0.45454545454545    0.42857142857143             2
    0.09090909090909   -0.45454545454545    0.42857142857143             2
    0.18181818181818   -0.45454545454545    0.42857142857143             2
    0.27272727272727   -0.45454545454545    0.42857142857143             2
    0.36363636363637   -0.45454545454545    0.42857142857143             2
    0.45454545454545   -0.45454545454545    0.42857142857143             2
   -0.45454545454545   -0.45454545454545    0.42857142857143             2
   -0.36363636363637   -0.45454545454545    0.42857142857143             2
   -0.27272727272727   -0.45454545454545    0.42857142857143             2
   -0.18181818181818   -0.45454545454545    0.42857142857143             2
   -0.09090909090909   -0.45454545454545    0.42857142857143             2
    0.00000000000000   -0.36363636363637    0.42857142857143             2
    0.09090909090909   -0.36363636363637    0.42857142857143             2
    0.18181818181818   -0.36363636363637    0.42857142857143             2
    0.27272727272727   -0.36363636363637    0.42857142857143             2
    0.36363636363637   -0.36363636363637    0.42857142857143             2
    0.45454545454545   -0.36363636363637    0.42857142857143             2
   -0.45454545454545   -0.36363636363637    0.42857142857143             2
   -0.36363636363637   -0.36363636363637    0.42857142857143             2
   -0.27272727272727   -0.36363636363637    0.42857142857143             2
   -0.18181818181818   -0.36363636363637    0.42857142857143             2
   -0.09090909090909   -0.36363636363637    0.42857142857143             2
   -0.00000000000000   -0.27272727272727    0.42857142857143             2
    0.09090909090909   -0.27272727272727    0.42857142857143             2
    0.18181818181818   -0.27272727272727    0.42857142857143             2
    0.27272727272727   -0.27272727272727    0.42857142857143             2
    0.36363636363637   -0.27272727272727    0.42857142857143             2
    0.45454545454545   -0.27272727272727    0.42857142857143             2
   -0.45454545454545   -0.27272727272727    0.42857142857143             2
   -0.36363636363637   -0.27272727272727    0.42857142857143             2