 running on   24 total cores
 distrk:  each k-point on   24 cores,    1 groups
 distr:  one band on    6 cores,    4 groups
 using from now: INCAR     
 vasp.6.1.2 22Jul20 (build Mar 31 2021 18:09:49) complex                        
  
 POSCAR found type information on POSCAR LiP 
 POSCAR found :  2 types and       8 ions
 scaLAPACK will be used
 -----------------------------------------------------------------------------
|                                                                             |
|               ----> ADVICE to this user running VASP <----                  |
|                                                                             |
|     You have a (more or less) 'small supercell' and for smaller cells       |
|     it is recommended to use the reciprocal-space projection scheme!        |
|     The real-space optimization is not efficient for small cells and it     |
|     is also less accurate ...                                               |
|     Therefore, set LREAL=.FALSE. in the INCAR file.                         |
|                                                                             |
 -----------------------------------------------------------------------------

 LDA part: xc-table for Pade appr. of Perdew
 generate k-points for:    9    9    4
 POSCAR, INCAR and KPOINTS ok, starting setup
 FFT: planning ...
 WAVECAR not read
 entering main loop
       N       E                     dE             d eps       ncg     rms          rms(c)
DAV:   1     0.158548273740E+03    0.15855E+03   -0.11818E+04  9120   0.118E+03
DAV:   2     0.171852230216E+01   -0.15683E+03   -0.14802E+03  9920   0.299E+02
DAV:   3    -0.236841086737E+02   -0.25403E+02   -0.25172E+02 16232   0.696E+01
DAV:   4    -0.264588064124E+02   -0.27747E+01   -0.27527E+01 13432   0.309E+01
DAV:   5    -0.266566187634E+02   -0.19781E+00   -0.19780E+00 14440   0.659E+00    0.149E+01
RMM:   6    -0.271207409788E+02   -0.46412E+00   -0.16303E+00 11115   0.631E+00    0.756E+00
RMM:   7    -0.278271788628E+02   -0.70644E+00   -0.48983E-01 12484   0.424E+00    0.285E+00
RMM:   8    -0.278985512734E+02   -0.71372E-01   -0.38760E-01 14241   0.285E+00    0.118E+00
RMM:   9    -0.279074779332E+02   -0.89267E-02   -0.96261E-02 15101   0.168E+00    0.517E-01
RMM:  10    -0.279156470764E+02   -0.81691E-02   -0.42589E-02 15848   0.100E+00    0.269E-01
RMM:  11    -0.279177979855E+02   -0.21509E-02   -0.15447E-02 16092   0.576E-01    0.197E-01
WARNING in EDDRMM: call to ZHEGV failed, returncode =   8  4      5
RMM:  12    -0.279185402688E+02   -0.74228E-03   -0.56582E-03 15728   0.438E-01    0.510E-02
RMM:  13    -0.279191169983E+02   -0.57673E-03   -0.31842E-03 16181   0.265E-01    0.186E-02
RMM:  14    -0.279193134995E+02   -0.19650E-03   -0.15615E-03 15915   0.169E-01    0.218E-02
RMM:  15    -0.279193963552E+02   -0.82856E-04   -0.71128E-04 14222   0.111E-01    0.182E-02
RMM:  16    -0.279194376355E+02   -0.41280E-04   -0.36204E-04 14010   0.797E-02    0.230E-02
RMM:  17    -0.279194571042E+02   -0.19469E-04   -0.20374E-04 13784   0.664E-02    0.220E-02
RMM:  18    -0.279194710111E+02   -0.13907E-04   -0.11417E-04 12362   0.488E-02    0.249E-02
RMM:  19    -0.279194793081E+02   -0.82970E-05   -0.80312E-05 12003   0.419E-02
   1 F= -.27919479E+02 E0= -.27919479E+02  d E =0.000000E+00  mag=     0.0001
