       N       E                     dE             d eps       ncg     rms          rms(c)
DAV:   1     0.104874446418E+04    0.10487E+04   -0.68512E+04  6144   0.127E+03
DAV:   2    -0.331510260967E+02   -0.10819E+04   -0.99363E+03  7264   0.279E+02
DAV:   3    -0.166683757435E+03   -0.13353E+03   -0.13177E+03  8304   0.932E+01
DAV:   4    -0.182612343727E+03   -0.15929E+02   -0.15809E+02 11200   0.276E+01
DAV:   5    -0.185434702059E+03   -0.28224E+01   -0.28209E+01  9944   0.784E+00    0.349E+01
DAV:   6    -0.185682540031E+03   -0.24784E+00   -0.88524E+00  7944   0.674E+00    0.193E+01
DAV:   7    -0.187894234114E+03   -0.22117E+01   -0.31539E+00  7704   0.415E+00    0.116E+01
DAV:   8    -0.188738148245E+03   -0.84391E+00   -0.14200E+00  7456   0.297E+00    0.246E+00
DAV:   9    -0.188805980071E+03   -0.67832E-01   -0.19781E-01  8536   0.124E+00    0.118E+00
DAV:  10    -0.188817213206E+03   -0.11233E-01   -0.38786E-02  8120   0.488E-01    0.429E-01
DAV:  11    -0.188821061800E+03   -0.38486E-02   -0.58991E-03  7384   0.238E-01    0.209E-01
DAV:  12    -0.188822842756E+03   -0.17810E-02   -0.21078E-03  8464   0.124E-01    0.106E-01
DAV:  13    -0.188823727951E+03   -0.88520E-03   -0.65124E-04  7472   0.649E-02    0.427E-02
DAV:  14    -0.188824040292E+03   -0.31234E-03   -0.30929E-04  7912   0.423E-02    0.236E-02
DAV:  15    -0.188824114058E+03   -0.73766E-04   -0.78798E-05  6888   0.222E-02    0.123E-02
DAV:  16    -0.188824133000E+03   -0.18942E-04   -0.19204E-05  5976   0.122E-02    0.517E-03
DAV:  17    -0.188824137234E+03   -0.42340E-05   -0.46999E-06  4904   0.668E-03
   1 F= -.18882414E+03 E0= -.18882414E+03  d E =0.000000E+00  mag=    -0.0002
