   16   16    1    2
  0.1086883E+02  0.5316244E-09  0.5296402E-09  0.6176136E-09  0.5000000E-15
  1.000000000000000E-004
  CAR 
 unknown system                          
     76     48     52
 
  0.0000000E+00  0.0000000E+00  0.0000000E+00  0.5555556E-02
    1      -42.051168    -42.050929   1.000000   1.000000
    2      -42.050802    -42.050563   1.000000   1.000000
    3      -41.725751    -41.725593   1.000000   1.000000
    4      -41.721556    -41.721399   1.000000   1.000000
    5      -41.718325    -41.718168   1.000000   1.000000
    6      -41.714182    -41.714024   1.000000   1.000000
    7      -18.577119    -18.577120   1.000000   1.000000
    8      -18.417245    -18.417247   1.000000   1.000000
    9      -16.318733    -16.318740   1.000000   1.000000
   10      -16.282917    -16.282924   1.000000   1.000000
   11      -16.250599    -16.250606   1.000000   1.000000
   12      -16.241129    -16.241136   1.000000   1.000000
   13      -15.796084    -15.796096   1.000000   1.000000
   14      -15.686969    -15.686983   1.000000   1.000000
   15       -6.228630     -6.228646   1.000000   1.000000
   16       -6.123669     -6.123689   1.000000   1.000000
   17       -3.902936     -3.902945   1.000000   1.000000
   18       -3.897457     -3.897470   1.000000   1.000000
   19       -3.743615     -3.743623   1.000000   1.000000
   20       -3.566217     -3.566223   1.000000   1.000000
   21       -3.529813     -3.529825   1.000000   1.000000
   22       -3.410747     -3.410757   1.000000   1.000000
   23       -1.605908     -1.605909   1.000000   1.000000
   24       -1.564203     -1.564203   1.000000   1.000000
   25       -1.373450     -1.373454   1.000000   1.000000
   26       -1.270501     -1.270503   1.000000   1.000000
   27       -1.094701     -1.094714   1.000000   1.000000
   28       -1.057666     -1.057673   1.000000   1.000000
   29       -0.829784     -0.829789   1.000000   1.000000
   30       -0.385152     -0.385167   1.000000   1.000000
   31       -0.367510     -0.367520   1.000000   1.000000
   32       -0.280563     -0.280571   1.000000   1.000000
   33        0.189154      0.189150   1.000000   1.000000
   34        0.220028      0.220018   1.000000   1.000000
   35        0.323490      0.323483   1.000000   1.000000
   36        0.435535      0.435526   1.000000   1.000000
   37        0.505136      0.505124   1.000000   1.000000
   38        0.704156      0.704148   1.000000   1.000000
   39        5.913988      5.914030   0.000000   0.000000
   40        8.322991      8.323360   0.000000   0.000000
   41        8.765656      8.765690   0.000000   0.000000
   42        8.925400      8.925408   0.000000   0.000000
   43        9.432454      9.432516   0.000000   0.000000
   44        9.462362      9.462561   0.000000   0.000000
   45        9.689970      9.690156   0.000000   0.000000
   46       10.124841     10.124855   0.000000   0.000000
   47       10.851495     10.901845   0.000000   0.000000
   48       10.932782     10.933515   0.000000   0.000000
   49       11.348372     11.349811   0.000000   0.000000
   50       11.921301     11.926244   0.000000   0.000000
   51       11.946135     12.687712   0.000000   0.000000
   52       12.839101     12.946372   0.000000   0.000000
 
  0.1666667E+00  0.0000000E+00  0.0000000E+00  0.1111111E-01
    1      -42.051122    -42.050883   1.000000   1.000000
    2      -42.050826    -42.050587   1.000000   1.000000
    3      -41.725484    -41.725327   1.000000   1.000000
    4      -41.721833    -41.721675   1.000000   1.000000
    5      -41.718068    -41.717910   1.000000   1.000000
    6      -41.714430    -41.714273   1.000000   1.000000
    7      -18.563042    -18.563044   1.000000   1.000000
    8      -18.423989    -18.423992   1.000000   1.000000
    9      -16.313897    -16.313904   1.000000   1.000000
   10      -16.281063    -16.281070   1.000000   1.000000
   11      -16.253057    -16.253064   1.000000   1.000000
   12      -16.246729    -16.246736   1.000000   1.000000
   13      -15.799030    -15.799043   1.000000   1.000000
   14      -15.703750    -15.703763   1.000000   1.000000
   15       -6.225575     -6.225591   1.000000   1.000000
   16       -6.119251     -6.119272   1.000000   1.000000
   17       -3.833460     -3.833469   1.000000   1.000000
   18       -3.805435     -3.805447   1.000000   1.000000
   19       -3.715508     -3.715517   1.000000   1.000000
   20       -3.546466     -3.546472   1.000000   1.000000
   21       -3.514421     -3.514435   1.000000   1.000000
   22       -3.411547     -3.411557   1.000000   1.000000
   23       -1.633946     -1.633947   1.000000   1.000000
   24       -1.607585     -1.607584   1.000000   1.000000
   25       -1.410915     -1.410919   1.000000   1.000000
   26       -1.328360     -1.328363   1.000000   1.000000
   27       -1.153001     -1.153013   1.000000   1.000000
   28       -0.973070     -0.973076   1.000000   1.000000
   29       -0.778738     -0.778744   1.000000   1.000000
   30       -0.611191     -0.611203   1.000000   1.000000
   31       -0.391312     -0.391322   1.000000   1.000000
   32       -0.340777     -0.340786   1.000000   1.000000
   33        0.235867      0.235863   1.000000   1.000000
   34        0.294283      0.294272   1.000000   1.000000
   35        0.340203      0.340196   1.000000   1.000000
   36        0.430074      0.430065   1.000000   1.000000
   37        0.506063      0.506051   1.000000   1.000000
   38        0.689185      0.689176   1.000000   1.000000
   39        6.192233      6.192272   0.000000   0.000000
   40        8.067096      8.067239   0.000000   0.000000
   41        8.597417      8.597678   0.000000   0.000000
   42        8.894171      8.894116   0.000000   0.000000
   43        9.486137      9.486132   0.000000   0.000000
   44        9.566618      9.566305   0.000000   0.000000
   45        9.832306      9.833429   0.000000   0.000000
   46       10.045173     10.045184   0.000000   0.000000
   47       10.490989     10.495788   0.000000   0.000000
   48       11.021104     11.017383   0.000000   0.000000
   49       11.068983     11.081172   0.000000   0.000000
   50       12.132274     12.129421   0.000000   0.000000
   51       12.305779     12.313338   0.000000   0.000000
   52       12.479231     12.500436   0.000000   0.000000
 
  0.3333333E+00  0.0000000E+00  0.0000000E+00  0.1111111E-01
    1      -42.051076    -42.050838   1.000000   1.000000
    2      -42.050904    -42.050666   1.000000   1.000000
    3      -41.724779    -41.724622   1.000000   1.000000
    4      -41.722654    -41.722497   1.000000   1.000000
    5      -41.717327    -41.717169   1.000000   1.000000
    6      -41.715219    -41.715061   1.000000   1.000000
    7      -18.526745    -18.526747   1.000000   1.000000
    8      -18.445789    -18.445791   1.000000   1.000000
    9      -16.300483    -16.300490   1.000000   1.000000
   10      -16.275826    -16.275833   1.000000   1.000000
   11      -16.261792    -16.261800   1.000000   1.000000
   12      -16.259680    -16.259687   1.000000   1.000000
   13      -15.799226    -15.799238   1.000000   1.000000
   14      -15.743328    -15.743342   1.000000   1.000000
   15       -6.206006     -6.206023   1.000000   1.000000
   16       -6.127883     -6.127903   1.000000   1.000000
   17       -3.726894     -3.726901   1.000000   1.000000
   18       -3.685228     -3.685237   1.000000   1.000000
   19       -3.557921     -3.557933   1.000000   1.000000
   20       -3.498606     -3.498613   1.000000   1.000000
   21       -3.420342     -3.420351   1.000000   1.000000
   22       -3.412548     -3.412566   1.000000   1.000000
   23       -1.690409     -1.690408   1.000000   1.000000
   24       -1.683875     -1.683874   1.000000   1.000000
   25       -1.481984     -1.481987   1.000000   1.000000
   26       -1.416854     -1.416856   1.000000   1.000000
   27       -1.298014     -1.298023   1.000000   1.000000
   28       -1.095598     -1.095604   1.000000   1.000000
   29       -0.799391     -0.799399   1.000000   1.000000
   30       -0.668021     -0.668028   1.000000   1.000000
   31       -0.468646     -0.468654   1.000000   1.000000
   32       -0.456225     -0.456234   1.000000   1.000000
   33        0.309463      0.309457   1.000000   1.000000
   34        0.404780      0.404772   1.000000   1.000000
   35        0.418783      0.418771   1.000000   1.000000
   36        0.423162      0.423154   1.000000   1.000000
   37        0.508408      0.508395   1.000000   1.000000
   38        0.642204      0.642195   1.000000   1.000000
   39        6.853717      6.853747   0.000000   0.000000
   40        7.740483      7.740517   0.000000   0.000000
   41        8.581588      8.581817   0.000000   0.000000
   42        8.753598      8.753520   0.000000   0.000000
   43        9.209790      9.209869   0.000000   0.000000
   44        9.386616      9.386639   0.000000   0.000000
   45        9.601265      9.601200   0.000000   0.000000
   46        9.874401      9.874544   0.000000   0.000000
   47       10.580478     10.580719   0.000000   0.000000
   48       10.770135     10.768662   0.000000   0.000000
   49       11.433206     11.421639   0.000000   0.000000
   50       11.978539     11.963238   0.000000   0.000000
   51       12.238185     12.236698   0.000000   0.000000
   52       12.371470     12.314977   0.000000   0.000000
 
  0.5000000E+00  0.0000000E+00  0.0000000E+00  0.5555556E-02
    1      -42.050976    -42.050737   1.000000   1.000000
    2      -42.050976    -42.050737   1.000000   1.000000
    3      -41.723725    -41.723568   1.000000   1.000000
    4      -41.723725    -41.723568   1.000000   1.000000
    5      -41.716258    -41.716101   1.000000   1.000000
    6      -41.716258    -41.716101   1.000000   1.000000
    7      -18.482589    -18.482591   1.000000   1.000000
    8      -18.482589    -18.482591   1.000000   1.000000
    9      -16.281476    -16.281483   1.000000   1.000000
   10      -16.281476    -16.281483   1.000000   1.000000
   11      -16.268058    -16.268066   1.000000   1.000000
   12      -16.268058    -16.268066   1.000000   1.000000
   13      -15.781128    -15.781140   1.000000   1.000000
   14      -15.781128    -15.781140   1.000000   1.000000
   15       -6.165216     -6.165235   1.000000   1.000000
   16       -6.165216     -6.165235   1.000000   1.000000
   17       -3.681831     -3.681839   1.000000   1.000000
   18       -3.681831     -3.681839   1.000000   1.000000
   19       -3.449365     -3.449373   1.000000   1.000000
   20       -3.449365     -3.449373   1.000000   1.000000
   21       -3.359367     -3.359385   1.000000   1.000000
   22       -3.359367     -3.359385   1.000000   1.000000
   23       -1.718583     -1.718581   1.000000   1.000000
   24       -1.718583     -1.718581   1.000000   1.000000
   25       -1.496619     -1.496621   1.000000   1.000000
   26       -1.496619     -1.496622   1.000000   1.000000
   27       -1.363978     -1.363983   1.000000   1.000000
   28       -1.363978     -1.363983   1.000000   1.000000
   29       -0.626544     -0.626552   1.000000   1.000000
   30       -0.626544     -0.626552   1.000000   1.000000
   31       -0.552142     -0.552150   1.000000   1.000000
   32       -0.552142     -0.552150   1.000000   1.000000
   33        0.360006      0.360000   1.000000   1.000000
   34        0.360006      0.360000   1.000000   1.000000
   35        0.492087      0.492073   1.000000   1.000000
   36        0.492086      0.492073   1.000000   1.000000
   37        0.550553      0.550544   1.000000   1.000000
   38        0.550553      0.550544   1.000000   1.000000
   39        7.479364      7.479389   0.000000   0.000000
   40        7.479365      7.479389   0.000000   0.000000
   41        8.662974      8.662997   0.000000   0.000000
   42        8.663059      8.663112   0.000000   0.000000
   43        8.923228      8.923273   0.000000   0.000000
   44        8.923247      8.923284   0.000000   0.000000
   45        9.722422      9.722427   0.000000   0.000000
   46        9.722530      9.722480   0.000000   0.000000
   47       10.695225     10.695239   0.000000   0.000000
   48       10.696584     10.696625   0.000000   0.000000
   49       11.792909     11.791869   0.000000   0.000000
   50       11.803013     11.934809   0.000000   0.000000
   51       12.141640     12.150036   0.000000   0.000000
   52       12.500714     12.513372   0.000000   0.000000
 
  0.0000000E+00  0.1666667E+00  0.0000000E+00  0.1111111E-01
    1      -42.051121    -42.050882   1.000000   1.000000
    2      -42.050792    -42.050553   1.000000   1.000000
    3      -41.725796    -41.725639   1.000000   1.000000
    4      -41.721533    -41.721376   1.000000   1.000000
    5      -41.718318    -41.718161   1.000000   1.000000
    6      -41.714163    -41.714006   1.000000   1.000000
    7      -18.566161    -18.566162   1.000000   1.000000
    8      -18.420840    -18.420843   1.000000   1.000000
    9      -16.315079    -16.315085   1.000000   1.000000
   10      -16.302557    -16.302564   1.000000   1.000000
   11      -16.249046    -16.249054   1.000000   1.000000
   12      -16.245547    -16.245555   1.000000   1.000000
   13      -15.789694    -15.789707   1.000000   1.000000
   14      -15.690981    -15.690994   1.000000   1.000000
   15       -6.216115     -6.216131   1.000000   1.000000
   16       -6.114243     -6.114263   1.000000   1.000000
   17       -3.909011     -3.909022   1.000000   1.000000
   18       -3.864802     -3.864814   1.000000   1.000000
   19       -3.713278     -3.713287   1.000000   1.000000
   20       -3.591492     -3.591498   1.000000   1.000000
   21       -3.491590     -3.491601   1.000000   1.000000
   22       -3.386233     -3.386243   1.000000   1.000000
   23       -1.634107     -1.634106   1.000000   1.000000
   24       -1.511945     -1.511947   1.000000   1.000000
   25       -1.457976     -1.457976   1.000000   1.000000
   26       -1.304966     -1.304972   1.000000   1.000000
   27       -1.103635     -1.103643   1.000000   1.000000
   28       -0.913866     -0.913877   1.000000   1.000000
   29       -0.845647     -0.845652   1.000000   1.000000
   30       -0.471266     -0.471275   1.000000   1.000000
   31       -0.385832     -0.385845   1.000000   1.000000
   32       -0.367230     -0.367239   1.000000   1.000000
   33        0.187000      0.186996   1.000000   1.000000
   34        0.244074      0.244064   1.000000   1.000000
   35        0.328379      0.328372   1.000000   1.000000
   36        0.460563      0.460554   1.000000   1.000000
   37        0.471520      0.471509   1.000000   1.000000
   38        0.687579      0.687571   1.000000   1.000000
   39        6.131673      6.131713   0.000000   0.000000
   40        8.238230      8.238244   0.000000   0.000000
   41        8.626630      8.626657   0.000000   0.000000
   42        9.086947      9.087079   0.000000   0.000000
   43        9.284554      9.284521   0.000000   0.000000
   44        9.341144      9.341170   0.000000   0.000000
   45        9.955047      9.955028   0.000000   0.000000
   46       10.098949     10.098954   0.000000   0.000000
   47       10.569241     10.570282   0.000000   0.000000
   48       10.853317     10.854852   0.000000   0.000000
   49       11.361504     11.368542   0.000000   0.000000
   50       11.815954     11.841514   0.000000   0.000000
   51       11.868799     11.906641   0.000000   0.000000
   52       12.730955     12.726679   0.000000   0.000000
 
  0.1666667E+00  0.1666667E+00  0.0000000E+00  0.2222222E-01
    1      -42.051095    -42.050856   1.000000   1.000000
    2      -42.050829    -42.050590   1.000000   1.000000
    3      -41.725539    -41.725382   1.000000   1.000000
    4      -41.721851    -41.721694   1.000000   1.000000
    5      -41.718047    -41.717890   1.000000   1.000000
    6      -41.714442    -41.714285   1.000000   1.000000
    7      -18.552945    -18.552947   1.000000   1.000000
    8      -18.426526    -18.426529   1.000000   1.000000
    9      -16.310795    -16.310801   1.000000   1.000000
   10      -16.299539    -16.299545   1.000000   1.000000
   11      -16.253155    -16.253162   1.000000   1.000000
   12      -16.250607    -16.250615   1.000000   1.000000
   13      -15.793288    -15.793300   1.000000   1.000000
   14      -15.707179    -15.707193   1.000000   1.000000
   15       -6.212344     -6.212361   1.000000   1.000000
   16       -6.111909     -6.111929   1.000000   1.000000
   17       -3.830451     -3.830461   1.000000   1.000000
   18       -3.771145     -3.771158   1.000000   1.000000
   19       -3.680256     -3.680267   1.000000   1.000000
   20       -3.573300     -3.573306   1.000000   1.000000
   21       -3.491320     -3.491331   1.000000   1.000000
   22       -3.392377     -3.392386   1.000000   1.000000
   23       -1.658181     -1.658179   1.000000   1.000000
   24       -1.542026     -1.542028   1.000000   1.000000
   25       -1.461119     -1.461121   1.000000   1.000000
   26       -1.341863     -1.341869   1.000000   1.000000
   27       -1.163577     -1.163585   1.000000   1.000000
   28       -0.888177     -0.888187   1.000000   1.000000
   29       -0.799404     -0.799410   1.000000   1.000000
   30       -0.670239     -0.670249   1.000000   1.000000
   31       -0.446576     -0.446585   1.000000   1.000000
   32       -0.393323     -0.393332   1.000000   1.000000
   33        0.227918      0.227913   1.000000   1.000000
   34        0.301679      0.301668   1.000000   1.000000
   35        0.347176      0.347170   1.000000   1.000000
   36        0.457260      0.457251   1.000000   1.000000
   37        0.476061      0.476050   1.000000   1.000000
   38        0.671856      0.671848   1.000000   1.000000
   39        6.390205      6.390242   0.000000   0.000000
   40        7.981848      7.981967   0.000000   0.000000
   41        8.562111      8.562314   0.000000   0.000000
   42        8.960443      8.960394   0.000000   0.000000
   43        9.350202      9.350204   0.000000   0.000000
   44        9.508935      9.508926   0.000000   0.000000
   45        9.884722      9.885175   0.000000   0.000000
   46       10.016462     10.016446   0.000000   0.000000
   47       10.385678     10.387865   0.000000   0.000000
   48       10.771518     10.772754   0.000000   0.000000
   49       11.297669     11.296687   0.000000   0.000000
   50       11.843621     11.897949   0.000000   0.000000
   51       12.167043     12.171788   0.000000   0.000000
   52       12.243107     12.810083   0.000000   0.000000
 
  0.3333333E+00  0.1666667E+00  0.0000000E+00  0.2222222E-01
    1      -42.051037    -42.050798   1.000000   1.000000
    2      -42.050877    -42.050638   1.000000   1.000000
    3      -41.724784    -41.724626   1.000000   1.000000
    4      -41.722647    -41.722490   1.000000   1.000000
    5      -41.717297    -41.717140   1.000000   1.000000
    6      -41.715231    -41.715073   1.000000   1.000000
    7      -18.519049    -18.519051   1.000000   1.000000
    8      -18.445331    -18.445334   1.000000   1.000000
    9      -16.298777    -16.298784   1.000000   1.000000
   10      -16.290821    -16.290828   1.000000   1.000000
   11      -16.264067    -16.264074   1.000000   1.000000
   12      -16.264027    -16.264034   1.000000   1.000000
   13      -15.795180    -15.795193   1.000000   1.000000
   14      -15.744724    -15.744737   1.000000   1.000000
   15       -6.193489     -6.193507   1.000000   1.000000
   16       -6.121779     -6.121799   1.000000   1.000000
   17       -3.700052     -3.700060   1.000000   1.000000
   18       -3.631873     -3.631883   1.000000   1.000000
   19       -3.527742     -3.527756   1.000000   1.000000
   20       -3.524993     -3.525000   1.000000   1.000000
   21       -3.426836     -3.426853   1.000000   1.000000
   22       -3.416742     -3.416750   1.000000   1.000000
   23       -1.689815     -1.689814   1.000000   1.000000
   24       -1.611566     -1.611567   1.000000   1.000000
   25       -1.476935     -1.476937   1.000000   1.000000
   26       -1.431032     -1.431036   1.000000   1.000000
   27       -1.300962     -1.300969   1.000000   1.000000
   28       -1.117538     -1.117543   1.000000   1.000000
   29       -0.802969     -0.802977   1.000000   1.000000
   30       -0.691740     -0.691747   1.000000   1.000000
   31       -0.557927     -0.557935   1.000000   1.000000
   32       -0.465283     -0.465292   1.000000   1.000000
   33        0.302224      0.302217   1.000000   1.000000
   34        0.395686      0.395678   1.000000   1.000000
   35        0.403915      0.403903   1.000000   1.000000
   36        0.458814      0.458806   1.000000   1.000000
   37        0.485035      0.485022   1.000000   1.000000
   38        0.627335      0.627326   1.000000   1.000000
   39        7.012544      7.012574   0.000000   0.000000
   40        7.729834      7.729867   0.000000   0.000000
   41        8.507186      8.507364   0.000000   0.000000
   42        8.797112      8.797257   0.000000   0.000000
   43        9.144562      9.144556   0.000000   0.000000
   44        9.399192      9.399156   0.000000   0.000000
   45        9.405302      9.405373   0.000000   0.000000
   46        9.795233      9.795155   0.000000   0.000000
   47       10.493272     10.493175   0.000000   0.000000
   48       10.798913     10.798258   0.000000   0.000000
   49       11.584334     11.571505   0.000000   0.000000
   50       11.911375     11.945390   0.000000   0.000000
   51       12.242308     12.157040   0.000000   0.000000
   52       12.599442     12.451994   0.000000   0.000000
 
  0.5000000E+00  0.1666667E+00  0.0000000E+00  0.1111111E-01
    1      -42.050941    -42.050703   1.000000   1.000000
    2      -42.050941    -42.050703   1.000000   1.000000
    3      -41.723695    -41.723538   1.000000   1.000000
    4      -41.723695    -41.723538   1.000000   1.000000
    5      -41.716274    -41.716116   1.000000   1.000000
    6      -41.716274    -41.716116   1.000000   1.000000
    7      -18.478377    -18.478379   1.000000   1.000000
    8      -18.478376    -18.478379   1.000000   1.000000
    9      -16.281716    -16.281723   1.000000   1.000000
   10      -16.281715    -16.281723   1.000000   1.000000
   11      -16.277940    -16.277947   1.000000   1.000000
   12      -16.277940    -16.277947   1.000000   1.000000
   13      -15.779733    -15.779745   1.000000   1.000000
   14      -15.779732    -15.779745   1.000000   1.000000
   15       -6.156237     -6.156257   1.000000   1.000000
   16       -6.156237     -6.156257   1.000000   1.000000
   17       -3.636508     -3.636516   1.000000   1.000000
   18       -3.636508     -3.636516   1.000000   1.000000
   19       -3.464933     -3.464941   1.000000   1.000000
   20       -3.464933     -3.464941   1.000000   1.000000
   21       -3.356432     -3.356450   1.000000   1.000000
   22       -3.356433     -3.356450   1.000000   1.000000
   23       -1.674565     -1.674565   1.000000   1.000000
   24       -1.674565     -1.674565   1.000000   1.000000
   25       -1.503872     -1.503874   1.000000   1.000000
   26       -1.503873     -1.503874   1.000000   1.000000
   27       -1.357120     -1.357124   1.000000   1.000000
   28       -1.357120     -1.357124   1.000000   1.000000
   29       -0.685197     -0.685204   1.000000   1.000000
   30       -0.685197     -0.685204   1.000000   1.000000
   31       -0.570412     -0.570420   1.000000   1.000000
   32       -0.570412     -0.570420   1.000000   1.000000
   33        0.363240      0.363233   1.000000   1.000000
   34        0.363240      0.363233   1.000000   1.000000
   35        0.470283      0.470270   1.000000   1.000000
   36        0.470283      0.470270   1.000000   1.000000
   37        0.548458      0.548450   1.000000   1.000000
   38        0.548458      0.548450   1.000000   1.000000
   39        7.573914      7.573934   0.000000   0.000000
   40        7.573916      7.573953   0.000000   0.000000
   41        8.591388      8.591418   0.000000   0.000000
   42        8.591438      8.591471   0.000000   0.000000
   43        8.920212      8.920302   0.000000   0.000000
   44        8.920336      8.920428   0.000000   0.000000
   45        9.548045      9.548252   0.000000   0.000000
   46        9.548326      9.548372   0.000000   0.000000
   47       10.727974     10.727699   0.000000   0.000000
   48       10.728588     10.727906   0.000000   0.000000
   49       11.846583     11.849024   0.000000   0.000000
   50       11.917755     11.894184   0.000000   0.000000
   51       12.352325     12.359064   0.000000   0.000000
   52       12.414937     12.413763   0.000000   0.000000
 
  0.0000000E+00  0.3333333E+00  0.0000000E+00  0.1111111E-01
    1      -42.051072    -42.050833   1.000000   1.000000
    2      -42.050831    -42.050592   1.000000   1.000000
    3      -41.725919    -41.725762   1.000000   1.000000
    4      -41.721572    -41.721414   1.000000   1.000000
    5      -41.718304    -41.718147   1.000000   1.000000
    6      -41.714235    -41.714078   1.000000   1.000000
    7      -18.540961    -18.540963   1.000000   1.000000
    8      -18.431488    -18.431490   1.000000   1.000000
    9      -16.333469    -16.333476   1.000000   1.000000
   10      -16.306030    -16.306037   1.000000   1.000000
   11      -16.256375    -16.256382   1.000000   1.000000
   12      -16.254449    -16.254456   1.000000   1.000000
   13      -15.775407    -15.775420   1.000000   1.000000
   14      -15.701216    -15.701229   1.000000   1.000000
   15       -6.182913     -6.182931   1.000000   1.000000
   16       -6.106554     -6.106574   1.000000   1.000000
   17       -3.898346     -3.898359   1.000000   1.000000
   18       -3.833118     -3.833131   1.000000   1.000000
   19       -3.645548     -3.645558   1.000000   1.000000
   20       -3.626754     -3.626760   1.000000   1.000000
   21       -3.385000     -3.385011   1.000000   1.000000
   22       -3.353696     -3.353705   1.000000   1.000000
   23       -1.621287     -1.621286   1.000000   1.000000
   24       -1.534212     -1.534211   1.000000   1.000000
   25       -1.484527     -1.484530   1.000000   1.000000
   26       -1.368124     -1.368129   1.000000   1.000000
   27       -1.091613     -1.091620   1.000000   1.000000
   28       -0.858395     -0.858401   1.000000   1.000000
   29       -0.839967     -0.839972   1.000000   1.000000
   30       -0.723079     -0.723090   1.000000   1.000000
   31       -0.452577     -0.452593   1.000000   1.000000
   32       -0.379637     -0.379646   1.000000   1.000000
   33        0.181934      0.181928   1.000000   1.000000
   34        0.287930      0.287920   1.000000   1.000000
   35        0.359040      0.359033   1.000000   1.000000
   36        0.418572      0.418561   1.000000   1.000000
   37        0.481100      0.481090   1.000000   1.000000
   38        0.667830      0.667822   1.000000   1.000000
   39        6.671988      6.672024   0.000000   0.000000
   40        7.877733      7.877736   0.000000   0.000000
   41        8.532120      8.532079   0.000000   0.000000
   42        9.092353      9.092469   0.000000   0.000000
   43        9.174895      9.174911   0.000000   0.000000
   44        9.411243      9.410702   0.000000   0.000000
   45       10.005498     10.005818   0.000000   0.000000
   46       10.044534     10.044290   0.000000   0.000000
   47       10.297895     10.296716   0.000000   0.000000
   48       10.692182     10.692238   0.000000   0.000000
   49       11.287262     11.284659   0.000000   0.000000
   50       11.878849     11.836153   0.000000   0.000000
   51       12.089802     12.056648   0.000000   0.000000
   52       12.170324     12.157117   0.000000   0.000000
 
  0.1666667E+00  0.3333333E+00  0.0000000E+00  0.2222222E-01
    1      -42.051048    -42.050809   1.000000   1.000000
    2      -42.050821    -42.050582   1.000000   1.000000
    3      -41.725617    -41.725460   1.000000   1.000000
    4      -41.721858    -41.721701   1.000000   1.000000
    5      -41.718032    -41.717874   1.000000   1.000000
    6      -41.714501    -41.714344   1.000000   1.000000
    7      -18.529841    -18.529843   1.000000   1.000000
    8      -18.434538    -18.434541   1.000000   1.000000
    9      -16.329131    -16.329138   1.000000   1.000000
   10      -16.302937    -16.302944   1.000000   1.000000
   11      -16.260572    -16.260579   1.000000   1.000000
   12      -16.259989    -16.259997   1.000000   1.000000
   13      -15.780396    -15.780409   1.000000   1.000000
   14      -15.715703    -15.715716   1.000000   1.000000
   15       -6.178227     -6.178245   1.000000   1.000000
   16       -6.107781     -6.107801   1.000000   1.000000
   17       -3.810146     -3.810158   1.000000   1.000000
   18       -3.729661     -3.729675   1.000000   1.000000
   19       -3.617648     -3.617658   1.000000   1.000000
   20       -3.611128     -3.611134   1.000000   1.000000
   21       -3.394306     -3.394316   1.000000   1.000000
   22       -3.371008     -3.371017   1.000000   1.000000
   23       -1.624228     -1.624227   1.000000   1.000000
   24       -1.529335     -1.529334   1.000000   1.000000
   25       -1.496452     -1.496454   1.000000   1.000000
   26       -1.392147     -1.392152   1.000000   1.000000
   27       -1.135829     -1.135835   1.000000   1.000000
   28       -0.911620     -0.911625   1.000000   1.000000
   29       -0.827210     -0.827216   1.000000   1.000000
   30       -0.780568     -0.780578   1.000000   1.000000
   31       -0.565879     -0.565892   1.000000   1.000000
   32       -0.410586     -0.410595   1.000000   1.000000
   33        0.216379      0.216372   1.000000   1.000000
   34        0.316581      0.316571   1.000000   1.000000
   35        0.380359      0.380351   1.000000   1.000000