 running on   12 total cores
 distrk:  each k-point on   12 cores,    1 groups
 distr:  one band on    6 cores,    2 groups
 using from now: INCAR     
 vasp.6.1.2 22Jul20 (build Mar 20 2021 11:25:07) complex                        
  
 POSCAR found type information on POSCAR LiP O 
 POSCAR found :  3 types and      16 ions
 scaLAPACK will be used
 LDA part: xc-table for Pade appr. of Perdew
 generate k-points for:    6    6    5
 POSCAR, INCAR and KPOINTS ok, starting setup
 FFT: planning ...
 WAVECAR not read
 entering main loop
       N       E                     dE             d eps       ncg     rms          rms(c)
DAV:   1     0.624383831904E+03    0.62438E+03   -0.36502E+04  9984   0.152E+03
DAV:   2    -0.394314596508E+02   -0.66382E+03   -0.62952E+03 11708   0.390E+02
DAV:   3    -0.102045243380E+03   -0.62614E+02   -0.62267E+02 13928   0.114E+02
DAV:   4    -0.107646340263E+03   -0.56011E+01   -0.55759E+01 17920   0.289E+01
DAV:   5    -0.108260159996E+03   -0.61382E+00   -0.61369E+00 14248   0.603E+00    0.349E+01
RMM:   6    -0.984142303377E+02    0.98459E+01   -0.43848E+01 10959   0.241E+01    0.138E+01
RMM:   7    -0.995202870703E+02   -0.11061E+01   -0.43729E+00 14503   0.832E+00    0.731E+00
RMM:   8    -0.997164399269E+02   -0.19615E+00   -0.11009E+00 16429   0.446E+00    0.369E+00
RMM:   9    -0.997909100285E+02   -0.74470E-01   -0.38273E-01 16321   0.321E+00    0.989E-01
RMM:  10    -0.998257057565E+02   -0.34796E-01   -0.27584E-01 18617   0.189E+00    0.373E-01
WARNING in EDDRMM: call to ZHEGV failed, returncode =   8  4      4
RMM:  11    -0.998438912371E+02   -0.18185E-01   -0.13575E-01 19174   0.121E+00    0.294E-01
RMM:  12    -0.998513176995E+02   -0.74265E-02   -0.52915E-02 19368   0.766E-01    0.182E-01
RMM:  13    -0.998540652453E+02   -0.27475E-02   -0.21166E-02 18997   0.517E-01    0.826E-02
RMM:  14    -0.998554143787E+02   -0.13491E-02   -0.11017E-02 19085   0.367E-01    0.365E-02
RMM:  15    -0.998559238031E+02   -0.50942E-03   -0.47786E-03 18775   0.233E-01    0.313E-02
RMM:  16    -0.998561565310E+02   -0.23273E-03   -0.23172E-03 18517   0.157E-01    0.178E-02
RMM:  17    -0.998562394574E+02   -0.82926E-04   -0.87175E-04 18262   0.107E-01    0.821E-03
RMM:  18    -0.998562957172E+02   -0.56260E-04   -0.49236E-04 17897   0.753E-02    0.101E-02
RMM:  19    -0.998563166409E+02   -0.20924E-04   -0.20848E-04 17223   0.522E-02    0.868E-03
RMM:  20    -0.998563276421E+02   -0.11001E-04   -0.85455E-05 14817   0.393E-02    0.198E-02
RMM:  21    -0.998563278243E+02   -0.18221E-06   -0.30938E-05 12663   0.327E-02
   1 F= -.99856328E+02 E0= -.99856328E+02  d E =0.000000E+00  mag=     0.0000
