 running on   24 total cores
 distrk:  each k-point on   24 cores,    1 groups
 distr:  one band on    6 cores,    4 groups
 using from now: INCAR     
 vasp.6.1.2 22Jul20 (build Mar 31 2021 18:09:49) complex                        
  
 POSCAR found type information on POSCAR LiO 
 POSCAR found :  2 types and       3 ions
 scaLAPACK will be used
 -----------------------------------------------------------------------------
|                                                                             |
|               ----> ADVICE to this user running VASP <----                  |
|                                                                             |
|     You have a (more or less) 'small supercell' and for smaller cells       |
|     it is recommended to use the reciprocal-space projection scheme!        |
|     The real-space optimization is not efficient for small cells and it     |
|     is also less accurate ...                                               |
|     Therefore, set LREAL=.FALSE. in the INCAR file.                         |
|                                                                             |
 -----------------------------------------------------------------------------

 LDA part: xc-table for Pade appr. of Perdew
 generate k-points for:   12   12   12
 POSCAR, INCAR and KPOINTS ok, starting setup
 FFT: planning ...
 WAVECAR not read
 entering main loop
       N       E                     dE             d eps       ncg     rms          rms(c)
DAV:   1     0.448771131174E+02    0.44877E+02   -0.56293E+03 22916   0.102E+03
DAV:   2    -0.964406811821E+01   -0.54521E+02   -0.52544E+02 27508   0.227E+02
DAV:   3    -0.152697512329E+02   -0.56257E+01   -0.55826E+01 42992   0.534E+01
DAV:   4    -0.153245833351E+02   -0.54832E-01   -0.54803E-01 26496   0.661E+00
DAV:   5    -0.153250214896E+02   -0.43815E-03   -0.43815E-03 31800   0.461E-01    0.116E+01
RMM:   6    -0.142164075055E+02    0.11086E+01   -0.35220E+00 24932   0.124E+01    0.500E+00
RMM:   7    -0.143227037859E+02   -0.10630E+00   -0.12362E-01 27907   0.287E+00    0.207E+00
RMM:   8    -0.143262349387E+02   -0.35312E-02   -0.49823E-02 31484   0.221E+00    0.116E+00
RMM:   9    -0.143391842316E+02   -0.12949E-01   -0.30642E-02 31823   0.196E+00    0.249E-01
RMM:  10    -0.143401574280E+02   -0.97320E-03   -0.85467E-03 36713   0.697E-01    0.144E-01
RMM:  11    -0.143412404678E+02   -0.10830E-02   -0.60786E-03 34781   0.604E-01    0.191E-01
RMM:  12    -0.143409396313E+02    0.30084E-03   -0.15540E-03 35744   0.324E-01    0.831E-02
RMM:  13    -0.143409261395E+02    0.13492E-04   -0.78620E-04 36132   0.226E-01    0.203E-02
RMM:  14    -0.143409596010E+02   -0.33461E-04   -0.25290E-04 34830   0.115E-01    0.288E-02
RMM:  15    -0.143409727831E+02   -0.13182E-04   -0.97191E-05 32011   0.746E-02    0.288E-02
WARNING in EDDRMM: call to ZHEGV failed, returncode =   6  3      3
RMM:  16    -0.143409749372E+02   -0.21541E-05   -0.47306E-05 29106   0.538E-02
   1 F= -.14340975E+02 E0= -.14340975E+02  d E =0.000000E+00  mag=    -0.0000
