       N       E                     dE             d eps       ncg     rms          rms(c)
DAV:   1     0.175507361760E+03    0.17551E+03   -0.16587E+04 28416   0.121E+03
DAV:   2    -0.395619054803E+02   -0.21507E+03   -0.20709E+03 38864   0.287E+02
DAV:   3    -0.501166908667E+02   -0.10555E+02   -0.10504E+02 37856   0.667E+01
DAV:   4    -0.502315722607E+02   -0.11488E+00   -0.11483E+00 34376   0.782E+00
DAV:   5    -0.502335100532E+02   -0.19378E-02   -0.19373E-02 37848   0.963E-01    0.291E+01
RMM:   6    -0.439944067741E+02    0.62391E+01   -0.17301E+01 28877   0.227E+01    0.122E+01
RMM:   7    -0.441541493880E+02   -0.15974E+00   -0.38810E+00 33477   0.116E+01    0.534E+00
RMM:   8    -0.441391523699E+02    0.14997E-01   -0.32801E-01 33605   0.399E+00    0.318E+00
RMM:   9    -0.441405220215E+02   -0.13697E-02   -0.94446E-02 33096   0.216E+00    0.802E-01
RMM:  10    -0.441405276954E+02   -0.56740E-05   -0.18297E-02 36326   0.885E-01    0.213E-01
RMM:  11    -0.441408639925E+02   -0.33630E-03   -0.10987E-02 35710   0.582E-01    0.186E-01
RMM:  12    -0.441409751052E+02   -0.11111E-03   -0.13437E-03 35978   0.236E-01    0.100E-01
RMM:  13    -0.441409759928E+02   -0.88754E-06   -0.43673E-04 34717   0.145E-01    0.275E-02
RMM:  14    -0.441409877078E+02   -0.11715E-04   -0.74567E-05 35445   0.581E-02    0.170E-02
RMM:  15    -0.441409847921E+02    0.29157E-05   -0.17075E-05 26414   0.262E-02
   1 F= -.44140985E+02 E0= -.44140985E+02  d E =0.000000E+00  mag=    -0.0000
