 vasp.5.4.4.18Apr17-6-g9f103f2a35 (build Aug 12 2020 11:57:02) complex          
  
 executed on             LinuxIFC date 2021.02.03  06:48:25
 running on   24 total cores
 distrk:  each k-point on   24 cores,    1 groups
 distr:  one band on NCORES_PER_BAND=   6 cores,    4 groups


--------------------------------------------------------------------------------------------------------


 INCAR:
 POTCAR:    PAW_PBE Li_sv 10Sep2004               
 POTCAR:    PAW_PBE O 08Apr2002                   
 POTCAR:    PAW_PBE Li_sv 10Sep2004               
   VRHFIN =Li: 1s2s2p                                                           
   LEXCH  = PE                                                                  
   EATOM  =   202.7858 eV,   14.9043 Ry                                         
                                                                                
   TITEL  = PAW_PBE Li_sv 10Sep2004                                             
   LULTRA =        F    use ultrasoft PP ?                                      
   IUNSCR =        0    unscreen: 0-lin 1-nonlin 2-no                           
   RPACOR =    0.000    partial core radius                                     
   POMASS =    7.010; ZVAL   =    3.000    mass and valenz                      
   RCORE  =    1.700    outmost cutoff radius                                   
   RWIGS  =    2.050; RWIGS  =    1.085    wigner-seitz radius (au A)           
   ENMAX  =  499.034; ENMIN  =  374.276 eV                                      
   ICORE  =        2    local potential                                         
   LCOR   =        T    correct aug charges                                     
   LPAW   =        T    paw PP                                                  
   EAUG   =  628.945                                                            
   RMAX   =    1.732    core radius for proj-oper                               
   RAUG   =    1.300    factor for augmentation sphere                          
   RDEP   =    1.728    radius for radial grids                                 
   RDEPT  =    1.329    core radius for aug-charge                              
                                                                                
   Atomic configuration                                                         
    4 entries                                                                   
     n  l   j            E        occ.                                          
     1  0  0.50       -51.8549   2.0000                                         
     2  0  0.50        -2.8742   1.0000                                         
     2  1  0.50        -1.3606   0.0000                                         
     3  2  1.50        -1.3606   0.0000                                         
   Description                                                                  
     l       E           TYP  RCUT    TYP  RCUT                                 
     0    -51.8548813     23  1.400                                             
     0     -2.8742052     23  1.700                                             
     1     -1.3605826     23  1.400                                             
     2     -1.3605826     23  1.400                                             
  local pseudopotential read in
  atomic valenz-charges read in
  non local Contribution for L=           0  read in
    real space projection operators read in
  non local Contribution for L=           0  read in
    real space projection operators read in
  non local Contribution for L=           1  read in
    real space projection operators read in
    PAW grid and wavefunctions read in
 
   number of l-projection  operators is LMAX  =           3
   number of lm-projection operators is LMMAX =           5
 
 POTCAR:    PAW_PBE O 08Apr2002                   
   VRHFIN =O: s2p4                                                              
   LEXCH  = PE                                                                  
   EATOM  =   432.3788 eV,   31.7789 Ry                                         
                                                                                
   TITEL  = PAW_PBE O 08Apr2002                                                 
   LULTRA =        F    use ultrasoft PP ?                                      
   IUNSCR =        1    unscreen: 0-lin 1-nonlin 2-no                           
   RPACOR =    1.200    partial core radius                                     
   POMASS =   16.000; ZVAL   =    6.000    mass and valenz                      
   RCORE  =    1.520    outmost cutoff radius                                   
   RWIGS  =    1.550; RWIGS  =    0.820    wigner-seitz radius (au A)           
   ENMAX  =  400.000; ENMIN  =  300.000 eV                                      
   ICORE  =        2    local potential                                         
   LCOR   =        T    correct aug charges                                     
   LPAW   =        T    paw PP                                                  
   EAUG   =  605.392                                                            
   DEXC   =    0.000                                                            
   RMAX   =    1.553    core radius for proj-oper                               
   RAUG   =    1.300    factor for augmentation sphere                          
   RDEP   =    1.550    radius for radial grids                                 
   RDEPT  =    1.329    core radius for aug-charge                              
                                                                                
   Atomic configuration                                                         
    4 entries                                                                   
     n  l   j            E        occ.                                          
     1  0  0.50      -514.6923   2.0000                                         
     2  0  0.50       -23.9615   2.0000                                         
     2  1  0.50        -9.0305   4.0000                                         
     3  2  1.50        -9.5241   0.0000                                         
   Description                                                                  
     l       E           TYP  RCUT    TYP  RCUT                                 
     0    -23.9615318     23  1.200                                             
     0     -9.5240782     23  1.200                                             
     1     -9.0304911     23  1.520                                             
     1      8.1634956     23  1.520                                             
     2     -9.5240782      7  1.500                                             
  local pseudopotential read in
  partial core-charges read in
  partial kinetic energy density read in
  kinetic energy density of atom read in
  atomic valenz-charges read in
  non local Contribution for L=           0  read in
    real space projection operators read in
  non local Contribution for L=           0  read in
    real space projection operators read in
  non local Contribution for L=           1  read in
    real space projection operators read in
  non local Contribution for L=           1  read in
    real space projection operators read in
    PAW grid and wavefunctions read in
 
   number of l-projection  operators is LMAX  =           4
   number of lm-projection operators is LMMAX =           8
 

 ----------------------------------------------------------------------------- 
|                                                                             |
|  ADVICE TO THIS USER RUNNING 'VASP/VAMP'   (HEAR YOUR MASTER'S VOICE ...):  |
|                                                                             |
|      You have a (more or less) 'small supercell' and for smaller cells      |
|      it is recommended  to use the reciprocal-space projection scheme!      |
|      The real space optimization is not  efficient for small cells and it   |
|      is also less accurate ...                                              |
|      Therefore set LREAL=.FALSE. in the  INCAR file                         |
|                                                                             |
 ----------------------------------------------------------------------------- 

 Optimization of the real space projectors (new method)

 maximal supplied QI-value         = 22.11
 optimisation between [QCUT,QGAM] = [ 11.50, 23.22] = [ 37.02,150.92] Ry 
 Optimized for a Real-space Cutoff    1.08 Angstroem

   l    n(q)    QCUT    max X(q) W(low)/X(q) W(high)/X(q)  e(spline) 
   0      7    11.497    10.506    0.36E-04    0.62E-04    0.14E-07
   0      7    11.497     8.367    0.65E-04    0.14E-03    0.28E-07
   1      7    11.497     8.983    0.21E-03    0.43E-03    0.90E-07
 Optimization of the real space projectors (new method)

 maximal supplied QI-value         = 24.76
 optimisation between [QCUT,QGAM] = [ 11.64, 23.27] = [ 37.91,151.63] Ry 
 Optimized for a Real-space Cutoff    1.14 Angstroem

   l    n(q)    QCUT    max X(q) W(low)/X(q) W(high)/X(q)  e(spline) 
   0      8    11.635    20.381    0.10E-03    0.33E-03    0.24E-06
   0      8    11.635    15.268    0.11E-03    0.35E-03    0.26E-06
   1      7    11.635     5.964    0.24E-03    0.31E-03    0.30E-06
   1      7    11.635     5.382    0.22E-03    0.25E-03    0.26E-06
  PAW_PBE Li_sv 10Sep2004               :
 energy of atom  1       EATOM= -202.7858
 kinetic energy error for atom=    0.0130 (will be added to EATOM!!)
  PAW_PBE O 08Apr2002                   :
 energy of atom  2       EATOM= -432.3788
 kinetic energy error for atom=    0.0208 (will be added to EATOM!!)
 
 
 POSCAR: Li4 O4                                  
  positions in direct lattice
  No initial velocities read in
 exchange correlation table for  LEXCH =        8
   RHO(1)=    0.500       N(1)  =     2000
   RHO(2)=  100.500       N(2)  =     4000
 


--------------------------------------------------------------------------------------------------------


 ion  position               nearest neighbor table
   1  0.000  0.000  0.000-   6 2.17   8 2.17   6 2.17   8 2.17   6 2.17   8 2.17
   2  0.000  0.000  0.500-   5 2.17   7 2.17   7 2.17   5 2.17   7 2.17   5 2.17
   3  0.333  0.667  0.250-   6 1.99   7 1.99   6 1.99   7 1.99   6 1.99   7 1.99
   4  0.667  0.333  0.750-   5 1.99   8 1.99   5 1.99   8 1.99   5 1.99   8 1.99
   5  0.333  0.667  0.649-   8 1.55   4 1.99   4 1.99   4 1.99   2 2.17   2 2.17   2 2.17
   6  0.667  0.333  0.149-   7 1.55   3 1.99   3 1.99   3 1.99   1 2.17   1 2.17   1 2.17
   7  0.667  0.333  0.351-   6 1.55   3 1.99   3 1.99   3 1.99   2 2.17   2 2.17   2 2.17
   8  0.333  0.667  0.851-   5 1.55   4 1.99   4 1.99   4 1.99   1 2.17   1 2.17   1 2.17
 
  LATTYP: Found a hexagonal cell.
 ALAT       =     3.1803620000
 C/A-ratio  =     2.4222154585
  
  Lattice vectors:
  
 A1 = (   1.5901810000,  -2.7542740000,   0.0000000000)
 A2 = (   1.5901810000,   2.7542740000,   0.0000000000)
 A3 = (   0.0000000000,   0.0000000000,   7.7035220000)


Analysis of symmetry for initial positions (statically):
=====================================================================
 Subroutine PRICEL returns:
 Original cell was already a primitive cell.
 

 Routine SETGRP: Setting up the symmetry group for a 
 hexagonal supercell.


 Subroutine GETGRP returns: Found 24 space group operations
 (whereof 12 operations were pure point group operations)
 out of a pool of 24 trial point group operations.


The static configuration has the point symmetry D_3d.
 The point group associated with its full space group is D_6h.


Analysis of symmetry for dynamics (positions and initial velocities):
=====================================================================
 Subroutine PRICEL returns:
 Original cell was already a primitive cell.
 

 Routine SETGRP: Setting up the symmetry group for a 
 hexagonal supercell.


 Subroutine GETGRP returns: Found 24 space group operations
 (whereof 12 operations were pure point group operations)
 out of a pool of 24 trial point group operations.


The dynamic configuration has the point symmetry D_3d.
 The point group associated with its full space group is D_6h.


Analysis of structural, dynamic, and magnetic symmetry:
=====================================================================
 Subroutine PRICEL returns:
 Original cell was already a primitive cell.
 

 Routine SETGRP: Setting up the symmetry group for a 
 hexagonal supercell.


 Subroutine GETGRP returns: Found 24 space group operations
 (whereof 12 operations were pure point group operations)
 out of a pool of 24 trial point group operations.


The magnetic configuration has the point symmetry D_3d.
 The point group associated with its full space group is D_6h.


 Subroutine INISYM returns: Found 24 space group operations
 (whereof 12 operations are pure point group operations),
 and found     1 'primitive' translations

 
 
 KPOINTS: Fully automatic kpoint scheme           

Automatic generation of k-mesh.
 generate k-points for:   12   12    4
Space group operators:
 irot       det(A)        alpha          n_x          n_y          n_z        tau_x        tau_y        tau_z
    1     1.000000     0.000000     1.000000     0.000000     0.000000     0.000000     0.000000     0.000000
    2    -1.000000     0.000000     1.000000     0.000000     0.000000     0.000000     0.000000     0.000000
    3     1.000000   120.000000     0.000000     0.000000    -1.000000     0.000000     0.000000     0.000000
    4    -1.000000   120.000000     0.000000     0.000000    -1.000000     0.000000     0.000000     0.000000
    5     1.000000   120.000000     0.000000     0.000000     1.000000     0.000000     0.000000     0.000000
    6    -1.000000   120.000000     0.000000     0.000000     1.000000     0.000000     0.000000     0.000000
    7     1.000000   180.000000     0.500000    -0.866025     0.000000     0.000000     0.000000     0.000000
    8    -1.000000   180.000000     0.500000    -0.866025     0.000000     0.000000     0.000000     0.000000
    9     1.000000   180.000000    -0.500000    -0.866025     0.000000     0.000000     0.000000     0.000000
   10    -1.000000   180.000000    -0.500000    -0.866025     0.000000     0.000000     0.000000     0.000000
   11     1.000000   180.000000     1.000000     0.000000     0.000000     0.000000     0.000000     0.000000
   12    -1.000000   180.000000     1.000000     0.000000     0.000000     0.000000     0.000000     0.000000
   13     1.000000    60.000000     0.000000     0.000000    -1.000000     0.000001     0.000000     0.500000
   14    -1.000000    60.000000     0.000000     0.000000    -1.000000     0.000001     0.000000     0.500000
   15     1.000000   180.000000     0.000000     0.000000     1.000000     0.000000     0.000000     0.500000
   16    -1.000000   180.000000     0.000000     0.000000     1.000000     0.000000     0.000000     0.500000
   17     1.000000    60.000000     0.000000     0.000000     1.000000     0.000000     0.000000     0.500000
   18    -1.000000    60.000000     0.000000     0.000000     1.000000     0.000000     0.000000     0.500000
   19     1.000000   180.000000     0.000000     1.000000     0.000000     0.000000     0.000000     0.500000
   20    -1.000000   180.000000     0.000000     1.000000     0.000000     0.000000     0.000000     0.500000
   21     1.000000   180.000000     0.866025     0.500000     0.000000     0.000001     0.000000     0.500000
   22    -1.000000   180.000000     0.866025     0.500000     0.000000     0.000001     0.000000     0.500000
   23     1.000000   180.000000     0.866025    -0.500000     0.000000     0.000000     0.000000     0.500000
   24    -1.000000   180.000000     0.866025    -0.500000     0.000000     0.000000     0.000000     0.500000
 
 Subroutine IBZKPT returns following result:
 ===========================================
 
 Found     57 irreducible k-points:
 
 Following reciprocal coordinates:
            Coordinates               Weight
  0.000000  0.000000  0.000000      1.000000
  0.083333  0.000000  0.000000      6.000000
  0.166667  0.000000  0.000000      6.000000
  0.250000 -0.000000  0.000000      6.000000
  0.333333  0.000000  0.000000      6.000000
  0.416667  0.000000  0.000000      6.000000
  0.500000 -0.000000  0.000000      3.000000
  0.083333  0.083333  0.000000      6.000000
  0.166667  0.083333  0.000000     12.000000
  0.250000  0.083333  0.000000     12.000000
  0.333333  0.083333  0.000000     12.000000
  0.416667  0.083333  0.000000     12.000000
  0.166667  0.166667  0.000000      6.000000
  0.250000  0.166667  0.000000     12.000000
  0.333333  0.166667  0.000000     12.000000
  0.416667  0.166667  0.000000      6.000000
  0.250000  0.250000  0.000000      6.000000
  0.333333  0.250000  0.000000     12.000000
  0.333333  0.333333  0.000000      2.000000
  0.000000  0.000000  0.250000      2.000000
  0.083333  0.000000  0.250000     12.000000
  0.166667  0.000000  0.250000     12.000000
  0.250000 -0.000000  0.250000     12.000000
  0.333333  0.000000  0.250000     12.000000
  0.416667  0.000000  0.250000     12.000000
  0.500000 -0.000000  0.250000      6.000000
  0.083333  0.083333  0.250000     12.000000
  0.166667  0.083333  0.250000     24.000000
  0.250000  0.083333  0.250000     24.000000
  0.333333  0.083333  0.250000     24.000000
  0.416667  0.083333  0.250000     24.000000
  0.166667  0.166667  0.250000     12.000000
  0.250000  0.166667  0.250000     24.000000
  0.333333  0.166667  0.250000     24.000000
  0.416667  0.166667  0.250000     12.000000
  0.250000  0.250000  0.250000     12.000000
  0.333333  0.250000  0.250000     24.000000
  0.333333  0.333333  0.250000      4.000000
  0.000000  0.000000  0.500000      1.000000
  0.083333  0.000000  0.500000      6.000000
  0.166667  0.000000  0.500000      6.000000
  0.250000 -0.000000  0.500000      6.000000
  0.333333  0.000000  0.500000      6.000000
  0.416667  0.000000  0.500000      6.000000
  0.500000 -0.000000  0.500000      3.000000
  0.083333  0.083333  0.500000      6.000000
  0.166667  0.083333  0.500000     12.000000
  0.250000  0.083333  0.500000     12.000000
  0.333333  0.083333  0.500000     12.000000
  0.416667  0.083333  0.500000     12.000000
  0.166667  0.166667  0.500000      6.000000
  0.250000  0.166667  0.500000     12.000000
  0.333333  0.166667  0.500000     12.000000
  0.416667  0.166667  0.500000      6.000000
  0.250000  0.250000  0.500000      6.000000
  0.333333  0.250000  0.500000     12.000000
  0.333333  0.333333  0.500000      2.000000
 
 Following cartesian coordinates:
            Coordinates               Weight
  0.000000  0.000000  0.000000      1.000000
  0.026202 -0.015128  0.000000      6.000000
  0.052405 -0.030256  0.000000      6.000000
  0.078607 -0.045384  0.000000      6.000000
  0.104810 -0.060512  0.000000      6.000000
  0.131012 -0.075640  0.000000      6.000000
  0.157215 -0.090768  0.000000      3.000000
  0.052405  0.000000  0.000000      6.000000
  0.078607 -0.015128  0.000000     12.000000
  0.104810 -0.030256  0.000000     12.000000
  0.131012 -0.045384  0.000000     12.000000
  0.157215 -0.060512  0.000000     12.000000
  0.104810  0.000000  0.000000      6.000000
  0.131012 -0.015128  0.000000     12.000000
  0.157215 -0.030256  0.000000     12.000000
  0.183417 -0.045384  0.000000      6.000000
  0.157215  0.000000  0.000000      6.000000
  0.183417 -0.015128  0.000000     12.000000
  0.209620  0.000000  0.000000      2.000000
  0.000000  0.000000  0.032453      2.000000
  0.026202 -0.015128  0.032453     12.000000
  0.052405 -0.030256  0.032453     12.000000
  0.078607 -0.045384  0.032453     12.000000
  0.104810 -0.060512  0.032453     12.000000
  0.131012 -0.075640  0.032453     12.000000
  0.157215 -0.090768  0.032453      6.000000
  0.052405  0.000000  0.032453     12.000000
  0.078607 -0.015128  0.032453     24.000000
  0.104810 -0.030256  0.032453     24.000000
  0.131012 -0.045384  0.032453     24.000000
  0.157215 -0.060512  0.032453     24.000000
  0.104810  0.000000  0.032453     12.000000
  0.131012 -0.015128  0.032453     24.000000
  0.157215 -0.030256  0.032453     24.000000
  0.183417 -0.045384  0.032453     12.000000
  0.157215  0.000000  0.032453     12.000000
  0.183417 -0.015128  0.032453     24.000000
  0.209620  0.000000  0.032453      4.000000
  0.000000  0.000000  0.064905      1.000000
  0.026202 -0.015128  0.064905      6.000000
  0.052405 -0.030256  0.064905      6.000000
  0.078607 -0.045384  0.064905      6.000000
  0.104810 -0.060512  0.064905      6.000000
  0.131012 -0.075640  0.064905      6.000000
  0.157215 -0.090768  0.064905      3.000000
  0.052405  0.000000  0.064905      6.000000
  0.078607 -0.015128  0.064905     12.000000
  0.104810 -0.030256  0.064905     12.000000
  0.131012 -0.045384  0.064905     12.000000
  0.157215 -0.060512  0.064905     12.000000
  0.104810  0.000000  0.064905      6.000000
  0.131012 -0.015128  0.064905     12.000000
  0.157215 -0.030256  0.064905     12.000000
  0.183417 -0.045384  0.064905      6.000000
  0.157215  0.000000  0.064905      6.000000
  0.183417 -0.015128  0.064905     12.000000
  0.209620  0.000000  0.064905      2.000000
 
 TETIRR: Found    586 inequivalent tetrahedra from     3456


--------------------------------------------------------------------------------------------------------




 Dimension of arrays:
   k-points           NKPTS =     57   k-points in BZ     NKDIM =     57   number of bands    NBANDS=     24
   number of dos      NEDOS =    301   number of ions     NIONS =      8
   non local maximal  LDIM  =      4   non local SUM 2l+1 LMDIM =      8
   total plane-waves  NPLWV =  34560
   max r-space proj   IRMAX =   3239   max aug-charges    IRDMAX=   6843
   dimension x,y,z NGX =    24 NGY =   24 NGZ =   60
   dimension x,y,z NGXF=    48 NGYF=   48 NGZF=  120
   support grid    NGXF=    48 NGYF=   48 NGZF=  120
   ions per type =               4   4
   NGX,Y,Z   is equivalent  to a cutoff of  12.55, 12.55, 12.95 a.u.
   NGXF,Y,Z  is equivalent  to a cutoff of  25.09, 25.09, 25.90 a.u.

 SYSTEM =  unknown system                          
 POSCAR =  Li4 O4                                  

 Startparameter for this run:
   NWRITE =      2    write-flag & timer
   PREC   = accura    normal or accurate (medium, high low for compatibility)
   ISTART =      0    job   : 0-new  1-cont  2-samecut
   ICHARG =      2    charge: 1-file 2-atom 10-const
   ISPIN  =      2    spin polarized calculation?
   LNONCOLLINEAR =      F non collinear calculations
   LSORBIT =      F    spin-orbit coupling
   INIWAV =      1    electr: 0-lowe 1-rand  2-diag
   LASPH  =      T    aspherical Exc in radial PAW
   METAGGA=      F    non-selfconsistent MetaGGA calc.

 Electronic Relaxation 1
   ENCUT  =  520.0 eV  38.22 Ry    6.18 a.u.   5.91  5.91 14.32*2*pi/ulx,y,z
   ENINI  =  520.0     initial cutoff
   ENAUG  =  628.9 eV  augmentation charge cutoff
   NELM   =    100;   NELMIN=  2; NELMDL= -5     # of ELM steps 
   EDIFF  = 0.1E-04   stopping-criterion for ELM
   LREAL  =      T    real-space projection
   NLSPLINE    = F    spline interpolate recip. space projectors
   LCOMPAT=      F    compatible to vasp.4.4
   GGA_COMPAT  = T    GGA compatible to vasp.4.4-vasp.4.6
   LMAXPAW     = -100 max onsite density
   LMAXMIX     =    2 max onsite mixed and CHGCAR
   VOSKOWN=      0    Vosko Wilk Nusair interpolation
   ROPT   =   -0.00025  -0.00025
 Ionic relaxation
   EDIFFG = 0.1E-03   stopping-criterion for IOM
   NSW    =     99    number of steps for IOM
   NBLOCK =      1;   KBLOCK =     99    inner block; outer block 
   IBRION =      2    ionic relax: 0-MD 1-quasi-New 2-CG
   NFREE  =      1    steps in history (QN), initial steepest desc. (CG)
   ISIF   =      3    stress and relaxation
   IWAVPR =     11    prediction:  0-non 1-charg 2-wave 3-comb
   ISYM   =      2    0-nonsym 1-usesym 2-fastsym
   LCORR  =      T    Harris-Foulkes like correction to forces

   POTIM  = 0.5000    time-step for ionic-motion
   TEIN   =    0.0    initial temperature
   TEBEG  =    0.0;   TEEND  =   0.0 temperature during run
   SMASS  =  -3.00    Nose mass-parameter (am)
   estimated Nose-frequenzy (Omega)   =  0.10E-29 period in steps =****** mass=  -0.231E-27a.u.
   SCALEE = 1.0000    scale energy and forces
   NPACO  =    256;   APACO  = 16.0  distance and # of slots for P.C.
   PSTRESS=    0.0 pullay stress

  Mass of Ions in am
   POMASS =   7.01 16.00
  Ionic Valenz
   ZVAL   =   3.00  6.00
  Atomic Wigner-Seitz radii
   RWIGS  =  -1.00 -1.00
  virtual crystal weights 
   VCA    =   1.00  1.00
   NELECT =      36.0000    total number of electrons
   NUPDOWN=      -1.0000    fix difference up-down

 DOS related values:
   EMIN   =  10.00;   EMAX   =-10.00  energy-range for DOS
   EFERMI =   0.00
   ISMEAR =    -5;   SIGMA  =   0.05  broadening in eV -4-tet -1-fermi 0-gaus

 Electronic relaxation 2 (details)
   IALGO  =     68    algorithm
   LDIAG  =      T    sub-space diagonalisation (order eigenvalues)
   LSUBROT=      F    optimize rotation matrix (better conditioning)
   TURBO    =      0    0=normal 1=particle mesh
   IRESTART =      0    0=no restart 2=restart with 2 vectors
   NREBOOT  =      0    no. of reboots
   NMIN     =      0    reboot dimension
   EREF     =   0.00    reference energy to select bands
   IMIX   =      4    mixing-type and parameters
     AMIX     =   0.40;   BMIX     =  1.00
     AMIX_MAG =   1.60;   BMIX_MAG =  1.00
     AMIN     =   0.10
     WC   =   100.;   INIMIX=   1;  MIXPRE=   1;  MAXMIX= -45

 Intra band minimization:
   WEIMIN = 0.0010     energy-eigenvalue tresh-hold
   EBREAK =  0.10E-06  absolut break condition
   DEPER  =   0.30     relativ break condition  

   TIME   =   0.40     timestep for ELM

  volume/ion in A,a.u.               =       8.43        56.92
  Fermi-wavevector in a.u.,A,eV,Ry     =   1.327755  2.509093 23.986169  1.762934
  Thomas-Fermi vector in A             =   2.457044
 
 Write flags
   LWAVE        =      F    write WAVECAR
   LDOWNSAMPLE  =      F    k-point downsampling of WAVECAR
   LCHARG       =      F    write CHGCAR
   LVTOT        =      F    write LOCPOT, total local potential
   LVHAR        =      F    write LOCPOT, Hartree potential only
   LELF         =      F    write electronic localiz. function (ELF)
   LORBIT       =     11    0 simple, 1 ext, 2 COOP (PROOUT), +10 PAW based schemes


 Dipole corrections
   LMONO  =      F    monopole corrections only (constant potential shift)
   LDIPOL =      F    correct potential (dipole corrections)
   IDIPOL =      0    1-x, 2-y, 3-z, 4-all directions 
   EPSILON=  1.0000000 bulk dielectric constant

 Exchange correlation treatment:
   GGA     =    --    GGA type
   LEXCH   =     8    internal setting for exchange type
   VOSKOWN=      0    Vosko Wilk Nusair interpolation
   LHFCALC =     F    Hartree Fock is set to
   LHFONE  =     F    Hartree Fock one center treatment
   AEXX    =    0.0000 exact exchange contribution

 Linear response parameters
   LEPSILON=     F    determine dielectric tensor
   LRPA    =     F    only Hartree local field effects (RPA)
   LNABLA  =     F    use nabla operator in PAW spheres
   LVEL    =     F    velocity operator in full k-point grid
   LINTERFAST=   F  fast interpolation
   KINTER  =     0    interpolate to denser k-point grid
   CSHIFT  =0.1000    complex shift for real part using Kramers Kronig
   OMEGAMAX=  -1.0    maximum frequency
   DEG_THRESHOLD= 0.2000000E-02 threshold for treating states as degnerate
   RTIME   =   -0.100 relaxation time in fs
  (WPLASMAI=    0.000 imaginary part of plasma frequency in eV, 0.658/RTIME)
   DFIELD  = 0.0000000 0.0000000 0.0000000 field for delta impulse in time
 
 Orbital magnetization related:
   ORBITALMAG=     F  switch on orbital magnetization
   LCHIMAG   =     F  perturbation theory with respect to B field
   DQ        =  0.001000  dq finite difference perturbation B field
   LLRAUG    =     F  two centre corrections for induced B field



--------------------------------------------------------------------------------------------------------


 conjugate gradient relaxation of ions
 charge density and potential will be updated during run
 spin polarized calculation
 RMM-DIIS sequential band-by-band and
  variant of blocked Davidson during initial phase
 perform sub-space diagonalisation
    before iterative eigenvector-optimisation
 modified Broyden-mixing scheme, WC =      100.0
 initial mixing is a Kerker type mixing with AMIX =  0.4000 and BMIX =      1.0000
 Hartree-type preconditioning will be used
 using additional bands            6
 real space projection scheme for non local part
 use partial core corrections
 calculate Harris-corrections to forces 
   (improved forces if not selfconsistent)
 use gradient corrections 
 use of overlap-Matrix (Vanderbilt PP)
 Fermi weights with tetrahedron method with Bloechl corrections


--------------------------------------------------------------------------------------------------------


  energy-cutoff  :      520.00
  volume of cell :       67.48
      direct lattice vectors                 reciprocal lattice vectors
     1.590181000 -2.754274000  0.000000000     0.314429615 -0.181536042  0.000000000
     1.590181000  2.754274000  0.000000000     0.314429615  0.181536042  0.000000000
     0.000000000  0.000000000  7.703522000     0.000000000  0.000000000  0.129810754

  length of vectors
     3.180361753  3.180361753  7.703522000     0.363072055  0.363072055  0.129810754


 
 k-points in units of 2pi/SCALE and weight: Fully automatic kpoint scheme           
   0.00000000  0.00000000  0.00000000       0.002
   0.02620247 -0.01512800  0.00000000       0.010
   0.05240494 -0.03025601  0.00000000       0.010
   0.07860740 -0.04538401  0.00000000       0.010
   0.10480987 -0.06051201  0.00000000       0.010
   0.13101234 -0.07564002  0.00000000       0.010
   0.15721481 -0.09076802  0.00000000       0.005
   0.05240494  0.00000000  0.00000000       0.010
   0.07860740 -0.01512800  0.00000000       0.021
   0.10480987 -0.03025601  0.00000000       0.021
   0.13101234 -0.04538401  0.00000000       0.021
   0.15721481 -0.06051201  0.00000000       0.021
   0.10480987  0.00000000  0.00000000       0.010
   0.13101234 -0.01512800  0.00000000       0.021
   0.15721481 -0.03025601  0.00000000       0.021
   0.18341728 -0.04538401  0.00000000       0.010
   0.15721481  0.00000000  0.00000000       0.010
   0.18341728 -0.01512800  0.00000000       0.021
   0.20961974  0.00000000  0.00000000       0.003
   0.00000000  0.00000000  0.03245269       0.003
   0.02620247 -0.01512800  0.03245269       0.021
   0.05240494 -0.03025601  0.03245269       0.021
   0.07860740 -0.04538401  0.03245269       0.021
   0.10480987 -0.06051201  0.03245269       0.021
   0.13101234 -0.07564002  0.03245269       0.021
   0.15721481 -0.09076802  0.03245269       0.010
   0.05240494  0.00000000  0.03245269       0.021
   0.07860740 -0.01512800  0.03245269       0.042
   0.10480987 -0.03025601  0.03245269       0.042
   0.13101234 -0.04538401  0.03245269       0.042
   0.15721481 -0.06051201  0.03245269       0.042
   0.10480987  0.00000000  0.03245269       0.021
   0.13101234 -0.01512800  0.03245269       0.042
   0.15721481 -0.03025601  0.03245269       0.042
   0.18341728 -0.04538401  0.03245269       0.021
   0.15721481  0.00000000  0.03245269       0.021
   0.18341728 -0.01512800  0.03245269       0.042
   0.20961974  0.00000000  0.03245269       0.007
   0.00000000  0.00000000  0.06490538       0.002
   0.02620247 -0.01512800  0.06490538       0.010
   0.05240494 -0.03025601  0.06490538       0.010
   0.07860740 -0.04538401  0.06490538       0.010
   0.10480987 -0.06051201  0.06490538       0.010
   0.13101234 -0.07564002  0.06490538       0.010
   0.15721481 -0.09076802  0.06490538       0.005
   0.05240494  0.00000000  0.06490538       0.010
   0.07860740 -0.01512800  0.06490538       0.021
   0.10480987 -0.03025601  0.06490538       0.021
   0.13101234 -0.04538401  0.06490538       0.021
   0.15721481 -0.06051201  0.06490538       0.021
   0.10480987  0.00000000  0.06490538       0.010
   0.13101234 -0.01512800  0.06490538       0.021
   0.15721481 -0.03025601  0.06490538       0.021
   0.18341728 -0.04538401  0.06490538       0.010
   0.15721481  0.00000000  0.06490538       0.010
   0.18341728 -0.01512800  0.06490538       0.021
   0.20961974  0.00000000  0.06490538       0.003
 
 k-points in reciprocal lattice and weights: Fully automatic kpoint scheme           
   0.00000000  0.00000000  0.00000000       0.002
   0.08333333  0.00000000  0.00000000       0.010
   0.16666667  0.00000000  0.00000000       0.010
   0.25000000 -0.00000000  0.00000000       0.010
   0.33333333  0.00000000  0.00000000       0.010
   0.41666667  0.00000000  0.00000000       0.010
   0.50000000 -0.00000000  0.00000000       0.005
   0.08333333  0.08333333  0.00000000       0.010
   0.16666667  0.08333333  0.00000000       0.021
   0.25000000  0.08333333  0.00000000       0.021
   0.33333333  0.08333333  0.00000000       0.021
   0.41666667  0.08333333  0.00000000       0.021
   0.16666667  0.16666667  0.00000000       0.010
   0.25000000  0.16666667  0.00000000       0.021
   0.33333333  0.16666667  0.00000000       0.021
   0.41666667  0.16666667  0.00000000       0.010
   0.25000000  0.25000000  0.00000000       0.010
   0.33333333  0.25000000  0.00000000       0.021
   0.33333333  0.33333333  0.00000000       0.003
   0.00000000  0.00000000  0.25000000       0.003
   0.08333333  0.00000000  0.25000000       0.021
   0.16666667  0.00000000  0.25000000       0.021
   0.25000000 -0.00000000  0.25000000       0.021
   0.33333333  0.00000000  0.25000000       0.021
   0.41666667  0.00000000  0.25000000       0.021
   0.50000000 -0.00000000  0.25000000       0.010
   0.08333333  0.08333333  0.25000000       0.021
   0.16666667  0.08333333  0.25000000       0.042
   0.25000000  0.08333333  0.25000000       0.042
   0.33333333  0.08333333  0.25000000       0.042
   0.41666667  0.08333333  0.25000000       0.042
   0.16666667  0.16666667  0.25000000       0.021
   0.25000000  0.16666667  0.25000000       0.042
   0.33333333  0.16666667  0.25000000       0.042
   0.41666667  0.16666667  0.25000000       0.021
   0.25000000  0.25000000  0.25000000       0.021
   0.33333333  0.25000000  0.25000000       0.042
   0.33333333  0.33333333  0.25000000       0.007
   0.00000000  0.00000000  0.50000000       0.002
   0.08333333  0.00000000  0.50000000       0.010
   0.16666667  0.00000000  0.50000000       0.010
   0.25000000 -0.00000000  0.50000000       0.010
   0.33333333  0.00000000  0.50000000       0.010
   0.41666667  0.00000000  0.50000000       0.010
   0.50000000 -0.00000000  0.50000000       0.005
   0.08333333  0.08333333  0.50000000       0.010
   0.16666667  0.08333333  0.50000000       0.021
   0.25000000  0.08333333  0.50000000       0.021
   0.33333333  0.08333333  0.50000000       0.021
   0.41666667  0.08333333  0.50000000       0.021
   0.16666667  0.16666667  0.50000000       0.010
   0.25000000  0.16666667  0.50000000       0.021
   0.33333333  0.16666667  0.50000000       0.021
   0.41666667  0.16666667  0.50000000       0.010
   0.25000000  0.25000000  0.50000000       0.010
   0.33333333  0.25000000  0.50000000       0.021
   0.33333333  0.33333333  0.50000000       0.003
 
 position of ions in fractional coordinates (direct lattice) 
   0.00000000  0.00000000  0.00000000
   0.00000000  0.00000000  0.50000000
   0.33333300  0.66666700  0.25000000
   0.66666700  0.33333300  0.75000000
   0.33333300  0.66666700  0.64931000
   0.66666700  0.33333300  0.14931000
   0.66666700  0.33333300  0.35069000
   0.33333300  0.66666700  0.85069000
 
 position of ions in cartesian coordinates  (Angst):
   0.00000000  0.00000000  0.00000000
   0.00000000  0.00000000  3.85176100
   1.59018100  0.91809317  1.92588050
   1.59018100 -0.91809317  5.77764150
   1.59018100  0.91809317  5.00197387
   1.59018100 -0.91809317  1.15021287
   1.59018100 -0.91809317  2.70154813
   1.59018100  0.91809317  6.55330913
 


--------------------------------------------------------------------------------------------------------


 k-point  1 :   0.0000 0.0000 0.0000  plane waves:    1823
 k-point  2 :   0.0833 0.0000 0.0000  plane waves:    1813
 k-point  3 :   0.1667 0.0000 0.0000  plane waves:    1802
 k-point  4 :   0.2500-0.0000 0.0000  plane waves:    1810
 k-point  5 :   0.3333 0.0000 0.0000  plane waves:    1808
 k-point  6 :   0.4167 0.0000 0.0000  plane waves:    1824
 k-point  7 :   0.5000-0.0000 0.0000  plane waves:    1824
 k-point  8 :   0.0833 0.0833 0.0000  plane waves:    1806
 k-point  9 :   0.1667 0.0833 0.0000  plane waves:    1812
 k-point 10 :   0.2500 0.0833 0.0000  plane waves:    1812
 k-point 11 :   0.3333 0.0833 0.0000  plane waves:    1820
 k-point 12 :   0.4167 0.0833 0.0000  plane waves:    1817
 k-point 13 :   0.1667 0.1667 0.0000  plane waves:    1812
 k-point 14 :   0.2500 0.1667 0.0000  plane waves:    1816
 k-point 15 :   0.3333 0.1667 0.0000  plane waves:    1829
 k-point 16 :   0.4167 0.1667 0.0000  plane waves:    1830
 k-point 17 :   0.2500 0.2500 0.0000  plane waves:    1820
 k-point 18 :   0.3333 0.2500 0.0000  plane waves:    1827
 k-point 19 :   0.3333 0.3333 0.0000  plane waves:    1812
 k-point 20 :   0.0000 0.0000 0.2500  plane waves:    1799
 k-point 21 :   0.0833 0.0000 0.2500  plane waves:    1793
 k-point 22 :   0.1667 0.0000 0.2500  plane waves:    1800
 k-point 23 :   0.2500-0.0000 0.2500  plane waves:    1817
 k-point 24 :   0.3333 0.0000 0.2500  plane waves:    1817
 k-point 25 :   0.4167 0.0000 0.2500  plane waves:    1820
 k-point 26 :   0.5000-0.0000 0.2500  plane waves:    1828
 k-point 27 :   0.0833 0.0833 0.2500  plane waves:    1796
 k-point 28 :   0.1667 0.0833 0.2500  plane waves:    1805
 k-point 29 :   0.2500 0.0833 0.2500  plane waves:    1812
 k-point 30 :   0.3333 0.0833 0.2500  plane waves:    1819
 k-point 31 :   0.4167 0.0833 0.2500  plane waves:    1820
 k-point 32 :   0.1667 0.1667 0.2500  plane waves:    1811
 k-point 33 :   0.2500 0.1667 0.2500  plane waves:    1820
 k-point 34 :   0.3333 0.1667 0.2500  plane waves:    1823
 k-point 35 :   0.4167 0.1667 0.2500  plane waves:    1832
 k-point 36 :   0.2500 0.2500 0.2500  plane waves:    1824
 k-point 37 :   0.3333 0.2500 0.2500  plane waves:    1824
 k-point 38 :   0.3333 0.3333 0.2500  plane waves:    1824
 k-point 39 :   0.0000 0.0000 0.5000  plane waves:    1792
 k-point 40 :   0.0833 0.0000 0.5000  plane waves:    1794
 k-point 41 :   0.1667 0.0000 0.5000  plane waves:    1794
 k-point 42 :   0.2500-0.0000 0.5000  plane waves:    1800
 k-point 43 :   0.3333 0.0000 0.5000  plane waves:    1816
 k-point 44 :   0.4167 0.0000 0.5000  plane waves:    1814
 k-point 45 :   0.5000-0.0000 0.5000  plane waves:    1824
 k-point 46 :   0.0833 0.0833 0.5000  plane waves:    1784
 k-point 47 :   0.1667 0.0833 0.5000  plane waves:    1802
 k-point 48 :   0.2500 0.0833 0.5000  plane waves:    1822
 k-point 49 :   0.3333 0.0833 0.5000  plane waves:    1824
 k-point 50 :   0.4167 0.0833 0.5000  plane waves:    1820
 k-point 51 :   0.1667 0.1667 0.5000  plane waves:    1824
 k-point 52 :   0.2500 0.1667 0.5000  plane waves:    1830
 k-point 53 :   0.3333 0.1667 0.5000  plane waves:    1824
 k-point 54 :   0.4167 0.1667 0.5000  plane waves:    1816
 k-point 55 :   0.2500 0.2500 0.5000  plane waves:    1826
 k-point 56 :   0.3333 0.2500 0.5000  plane waves:    1836
 k-point 57 :   0.3333 0.3333 0.5000  plane waves:    1824

 maximum and minimum number of plane-waves per node :       316      283

 maximum number of plane-waves:      1836
 maximum index in each direction: 
   IXMAX=    5   IYMAX=    5   IZMAX=   14
   IXMIN=   -6   IYMIN=   -6   IZMIN=  -14


 real space projection operators:
  total allocation   :       1177.66 KBytes
  max/ min on nodes  :        196.70        194.25


 parallel 3D FFT for wavefunctions:
    minimum data exchange during FFTs selected (reduces bandwidth)
 parallel 3D FFT for charge:
    minimum data exchange during FFTs selected (reduces bandwidth)


 total amount of memory used by VASP MPI-rank0    36280. kBytes
=======================================================================

   base      :      30000. kBytes
   nonlr-proj:        673. kBytes
   fftplans  :        565. kBytes
   grid      :       1397. kBytes
   one-center:         12. kBytes
   wavefun   :       3633. kBytes
 
     INWAV:  cpu time    0.0000: real time    0.0001
 Broyden mixing: mesh for mixing (old mesh)
   NGX = 11   NGY = 11   NGZ = 29
  (NGX  = 48   NGY  = 48   NGZ  =120)
  gives a total of   3509 points

 initial charge density was supplied:
 charge density of overlapping atoms calculated
 number of electron      36.0000000 magnetization       0.0000000
 keeping initial charge density in first step


--------------------------------------------------------------------------------------------------------


 Maximum index for non-local projection operator          502
 Maximum index for augmentation-charges          367 (set IRDMAX)


--------------------------------------------------------------------------------------------------------


 First call to EWALD:  gamma=   0.435
 Maximum number of real-space cells 4x 4x 2
 Maximum number of reciprocal cells 2x 2x 5

    FEWALD:  cpu time    0.0040: real time    0.0064


--------------------------------------- Iteration      1(   1)  ---------------------------------------


    POTLOK:  cpu time    0.0358: real time    0.0761
    SETDIJ:  cpu time    0.2211: real time    0.2306
     EDDAV:  cpu time    1.1036: real time    1.2075
 BZINTS: Fermi energy: 16.722745; 36.000000 electrons
         Band energy:-201.810669;  BLOECHL correction: -0.193665
       DOS:  cpu time    0.0526: real time    0.0543
    --------------------------------------------
      LOOP:  cpu time    1.4132: real time    1.5685

 eigenvalue-minimisations  :  5472
 total energy-change (2. order) : 0.2664610E+03  (-0.1820383E+04)
 number of electron      36.0000000 magnetization       0.0000000
 augmentation part       36.0000000 magnetization       0.0000000

 Free energy of the ion-electron system (eV)
  ---------------------------------------------------
  alpha Z        PSCENC =        65.79552193
  Ewald energy   TEWEN  =     -1642.00330232
  -Hartree energ DENC   =      -588.39760021
  -exchange      EXHF   =         0.00000000
  -V(xc)+E(xc)   XCENC  =       161.17012265
  PAW double counting   =      1705.24440522    -1774.06085075
  entropy T*S    EENTRO =         0.00000000
  eigenvalues    EBANDS =      -201.81066856
  atomic energy  EATOM  =      2540.52333388
  Solvation  Ediel_sol  =         0.00000000
  ---------------------------------------------------
  free energy    TOTEN  =       266.46096183 eV

  energy without entropy =      266.46096183  energy(sigma->0) =      266.46096183


--------------------------------------------------------------------------------------------------------




--------------------------------------- Iteration      1(   2)  ---------------------------------------


     EDDAV:  cpu time    1.2010: real time    1.2027
 BZINTS: Fermi energy:  1.608575; 36.000000 electrons
         Band energy:-484.626941;  BLOECHL correction:  0.000000
       DOS:  cpu time    0.0111: real time    0.0111
    --------------------------------------------
      LOOP:  cpu time    1.2121: real time    1.2138

 eigenvalue-minimisations  :  6640
 total energy-change (2. order) :-0.2828163E+03  (-0.2759984E+03)
 number of electron      36.0000000 magnetization       0.0000000
 augmentation part       36.0000000 magnetization       0.0000000

 Free energy of the ion-electron system (eV)
  ---------------------------------------------------
  alpha Z        PSCENC =        65.79552193
  Ewald energy   TEWEN  =     -1642.00330232
  -Hartree energ DENC   =      -588.39760021
  -exchange      EXHF   =         0.00000000
  -V(xc)+E(xc)   XCENC  =       161.17012265
  PAW double counting   =      1705.24440522    -1774.06085075
  entropy T*S    EENTRO =         0.00000000
  eigenvalues    EBANDS =      -484.62694141
  atomic energy  EATOM  =      2540.52333388
  Solvation  Ediel_sol  =         0.00000000
  ---------------------------------------------------
  free energy    TOTEN  =       -16.35531102 eV

  energy without entropy =      -16.35531102  energy(sigma->0) =      -16.35531102


--------------------------------------------------------------------------------------------------------




--------------------------------------- Iteration      1(   3)  ---------------------------------------


     EDDAV:  cpu time    1.5652: real time    1.5686
 BZINTS: Fermi energy:  0.377112; 36.000000 electrons
         Band energy:-507.590027;  BLOECHL correction:  0.000000
       DOS:  cpu time    0.0075: real time    0.0096
    --------------------------------------------
      LOOP:  cpu time    1.5727: real time    1.5783

 eigenvalue-minimisations  :  9104
 total energy-change (2. order) :-0.2296309E+02  (-0.2282794E+02)
 number of electron      36.0000000 magnetization       0.0000000
 augmentation part       36.0000000 magnetization       0.0000000

 Free energy of the ion-electron system (eV)
  ---------------------------------------------------
  alpha Z        PSCENC =        65.79552193
  Ewald energy   TEWEN  =     -1642.00330232
  -Hartree energ DENC   =      -588.39760021
  -exchange      EXHF   =         0.00000000
  -V(xc)+E(xc)   XCENC  =       161.17012265
  PAW double counting   =      1705.24440522    -1774.06085075
  entropy T*S    EENTRO =         0.00000000
  eigenvalues    EBANDS =      -507.59002698
  atomic energy  EATOM  =      2540.52333388
  Solvation  Ediel_sol  =         0.00000000
  ---------------------------------------------------
  free energy    TOTEN  =       -39.31839659 eV

  energy without entropy =      -39.31839659  energy(sigma->0) =      -39.31839659


--------------------------------------------------------------------------------------------------------




--------------------------------------- Iteration      1(   4)  ---------------------------------------


     EDDAV:  cpu time    1.3960: real time    1.3980
 BZINTS: Fermi energy:  0.406886; 36.000000 electrons
         Band energy:-509.404263;  BLOECHL correction:  0.000000
       DOS:  cpu time    0.0083: real time    0.0083
    --------------------------------------------
      LOOP:  cpu time    1.4044: real time    1.4063

 eigenvalue-minimisations  :  8000
 total energy-change (2. order) :-0.1814236E+01  (-0.1811223E+01)
 number of electron      36.0000000 magnetization       0.0000000
 augmentation part       36.0000000 magnetization       0.0000000

 Free energy of the ion-electron system (eV)
  ---------------------------------------------------
  alpha Z        PSCENC =        65.79552193
  Ewald energy   TEWEN  =     -1642.00330232
  -Hartree energ DENC   =      -588.39760021
  -exchange      EXHF   =         0.00000000
  -V(xc)+E(xc)   XCENC  =       161.17012265
  PAW double counting   =      1705.24440522    -1774.06085075
  entropy T*S    EENTRO =         0.00000000
  eigenvalues    EBANDS =      -509.40426329
  atomic energy  EATOM  =      2540.52333388
  Solvation  Ediel_sol  =         0.00000000
  ---------------------------------------------------
  free energy    TOTEN  =       -41.13263290 eV

  energy without entropy =      -41.13263290  energy(sigma->0) =      -41.13263290


--------------------------------------------------------------------------------------------------------




--------------------------------------- Iteration      1(   5)  ---------------------------------------


     EDDAV:  cpu time    1.3693: real time    1.3708
 BZINTS: Fermi energy:  0.472359; 36.000000 electrons
         Band energy:-509.472721;  BLOECHL correction:  0.000000
       DOS:  cpu time    0.0080: real time    0.0080
    CHARGE:  cpu time    0.0572: real time    0.0700
    MIXING:  cpu time    0.0063: real time    0.0101
    --------------------------------------------
      LOOP:  cpu time    1.4408: real time    1.4590

 eigenvalue-minimisations  :  7928
 total energy-change (2. order) :-0.6845764E-01  (-0.6845684E-01)
 number of electron      36.0000014 magnetization      -0.0000000
 augmentation part        6.6326651 magnetization      -0.0007161

 Broyden mixing:
  rms(total) = 0.11371E+01    rms(broyden)= 0.11304E+01
  rms(prec ) = 0.15052E+01
  weight for this iteration     100.00

 Free energy of the ion-electron system (eV)
  ---------------------------------------------------
  alpha Z        PSCENC =        65.79552193
  Ewald energy   TEWEN  =     -1642.00330232
  -Hartree energ DENC   =      -588.39760021
  -exchange      EXHF   =         0.00000000
  -V(xc)+E(xc)   XCENC  =       161.17012265
  PAW double counting   =      1705.24440522    -1774.06085075
  entropy T*S    EENTRO =         0.00000000
  eigenvalues    EBANDS =      -509.47272093
  atomic energy  EATOM  =      2540.52333388
  Solvation  Ediel_sol  =         0.00000000
  ---------------------------------------------------
  free energy    TOTEN  =       -41.20109054 eV

  energy without entropy =      -41.20109054  energy(sigma->0) =      -41.20109054


--------------------------------------------------------------------------------------------------------




--------------------------------------- Iteration      1(   6)  ---------------------------------------


    POTLOK:  cpu time    0.0140: real time    0.0141
    SETDIJ:  cpu time    0.2405: real time    0.2406
    EDDIAG:  cpu time    0.2238: real time    0.2283
  RMM-DIIS:  cpu time    0.5035: real time    0.5060
    ORTHCH:  cpu time    0.0231: real time    0.0231
 BZINTS: Fermi energy:  1.928973; 36.000000 electrons
         Band energy:-477.834994;  BLOECHL correction:  0.000000
       DOS:  cpu time    0.0069: real time    0.0070
    CHARGE:  cpu time    0.0494: real time    0.0495
    MIXING:  cpu time    0.0015: real time    0.0041
    --------------------------------------------
      LOOP:  cpu time    1.0628: real time    1.0726

 eigenvalue-minimisations  :  5473
 total energy-change (2. order) : 0.2059028E+01  (-0.5895651E+00)
 number of electron      36.0000015 magnetization      -0.0000000
 augmentation part        6.3813107 magnetization      -0.0004329

 Broyden mixing:
  rms(total) = 0.51138E+00    rms(broyden)= 0.51118E+00
  rms(prec ) = 0.63148E+00
  weight for this iteration     100.00

 eigenvalues of (default mixing * dielectric matrix)
  average eigenvalue GAMMA=   1.3742
  1.3742

 Free energy of the ion-electron system (eV)
  ---------------------------------------------------
  alpha Z        PSCENC =        65.79552193
  Ewald energy   TEWEN  =     -1642.00330232
  -Hartree energ DENC   =      -618.90566321
  -exchange      EXHF   =         0.00000000
  -V(xc)+E(xc)   XCENC  =       163.28606034
  PAW double counting   =      1879.83380817    -1949.83682676
  entropy T*S    EENTRO =         0.00000000
  eigenvalues    EBANDS =      -477.83499441
  atomic energy  EATOM  =      2540.52333388
  Solvation  Ediel_sol  =         0.00000000
  ---------------------------------------------------
  free energy    TOTEN  =       -39.14206240 eV

  energy without entropy =      -39.14206240  energy(sigma->0) =      -39.14206240


--------------------------------------------------------------------------------------------------------




--------------------------------------- Iteration      1(   7)  ---------------------------------------


    POTLOK:  cpu time    0.0150: real time    0.0152
    SETDIJ:  cpu time    0.2404: real time    0.2405
    EDDIAG:  cpu time    0.2219: real time    0.2220
  RMM-DIIS:  cpu time    0.5217: real time    0.5221
    ORTHCH:  cpu time    0.0229: real time    0.0229
 BZINTS: Fermi energy:  2.388209; 36.000000 electrons
         Band energy:-471.271339;  BLOECHL correction:  0.000000
       DOS:  cpu time    0.0081: real time    0.0083
    CHARGE:  cpu time    0.0588: real time    0.0596
    MIXING:  cpu time    0.0005: real time    0.0005
    --------------------------------------------
      LOOP:  cpu time    1.0893: real time    1.0911

 eigenvalue-minimisations  :  6258
 total energy-change (2. order) : 0.2207206E+00  (-0.7387446E-01)
 number of electron      36.0000016 magnetization      -0.0000000
 augmentation part        6.3009850 magnetization      -0.0002612

 Broyden mixing:
  rms(total) = 0.23168E+00    rms(broyden)= 0.23161E+00
  rms(prec ) = 0.27998E+00
  weight for this iteration     100.00

 eigenvalues of (default mixing * dielectric matrix)
  average eigenvalue GAMMA=   1.7784
  1.2612  2.2955

 Free energy of the ion-electron system (eV)
  ---------------------------------------------------
  alpha Z        PSCENC =        65.79552193
  Ewald energy   TEWEN  =     -1642.00330232
  -Hartree energ DENC   =      -625.24253297
  -exchange      EXHF   =         0.00000000
  -V(xc)+E(xc)   XCENC  =       163.76508284
  PAW double counting   =      2001.85124021    -2072.33934615
  entropy T*S    EENTRO =         0.00000000
  eigenvalues    EBANDS =      -471.27133921
  atomic energy  EATOM  =      2540.52333388
  Solvation  Ediel_sol  =         0.00000000
  ---------------------------------------------------
  free energy    TOTEN  =       -38.92134180 eV

  energy without entropy =      -38.92134180  energy(sigma->0) =      -38.92134180


--------------------------------------------------------------------------------------------------------




--------------------------------------- Iteration      1(   8)  ---------------------------------------


    POTLOK:  cpu time    0.0138: real time    0.0139
    SETDIJ:  cpu time    0.2406: real time    0.2407
    EDDIAG:  cpu time    0.2216: real time    0.2217
  RMM-DIIS:  cpu time    0.5481: real time    0.5484
    ORTHCH:  cpu time    0.0228: real time    0.0228
 BZINTS: Fermi energy:  2.374440; 36.000000 electrons
         Band energy:-473.530587;  BLOECHL correction:  0.000000
       DOS:  cpu time    0.0081: real time    0.0081
    CHARGE:  cpu time    0.0490: real time    0.0490
    MIXING:  cpu time    0.0005: real time    0.0005
    --------------------------------------------
      LOOP:  cpu time    1.1054: real time    1.1051

 eigenvalue-minimisations  :  6616
 total energy-change (2. order) : 0.2117664E-02  (-0.1895961E-01)
 number of electron      36.0000015 magnetization      -0.0000000
 augmentation part        6.2975150 magnetization      -0.0000539

 Broyden mixing:
  rms(total) = 0.27618E-01    rms(broyden)= 0.27533E-01
  rms(prec ) = 0.41894E-01
  weight for this iteration     100.00

 eigenvalues of (default mixing * dielectric matrix)
  average eigenvalue GAMMA=   1.7947
  2.4677  1.4582  1.4582

 Free energy of the ion-electron system (eV)
  ---------------------------------------------------
  alpha Z        PSCENC =        65.79552193
  Ewald energy   TEWEN  =     -1642.00330232
  -Hartree energ DENC   =      -622.63258035
  -exchange      EXHF   =         0.00000000
  -V(xc)+E(xc)   XCENC  =       163.63503358
  PAW double counting   =      2083.67224063    -2154.37888491
  entropy T*S    EENTRO =         0.00000000
  eigenvalues    EBANDS =      -473.53058656
  atomic energy  EATOM  =      2540.52333388
  Solvation  Ediel_sol  =         0.00000000
  ---------------------------------------------------
  free energy    TOTEN  =       -38.91922413 eV

  energy without entropy =      -38.91922413  energy(sigma->0) =      -38.91922413


--------------------------------------------------------------------------------------------------------




--------------------------------------- Iteration      1(   9)  ---------------------------------------


    POTLOK:  cpu time    0.0138: real time    0.0139
    SETDIJ:  cpu time    0.2402: real time    0.2403
    EDDIAG:  cpu time    0.2216: real time    0.2217
  RMM-DIIS:  cpu time    0.5877: real time    0.5880
    ORTHCH:  cpu time    0.0228: real time    0.0228
 BZINTS: Fermi energy:  2.466327; 36.000000 electrons
         Band energy:-471.098305;  BLOECHL correction:  0.000000
       DOS:  cpu time    0.0070: real time    0.0070
    CHARGE:  cpu time    0.0492: real time    0.0492
    MIXING:  cpu time    0.0006: real time    0.0005
    --------------------------------------------
      LOOP:  cpu time    1.1420: real time    1.1435

 eigenvalue-minimisations  :  7166
 total energy-change (2. order) :-0.7377899E-02  (-0.9372784E-02)
 number of electron      36.0000015 magnetization       0.0000000
 augmentation part        6.2629291 magnetization      -0.0000091

 Broyden mixing:
  rms(total) = 0.30063E-01    rms(broyden)= 0.29928E-01
  rms(prec ) = 0.39992E-01
  weight for this iteration     100.00

 eigenvalues of (default mixing * dielectric matrix)
  average eigenvalue GAMMA=   1.5400
  2.3820  1.8290  1.2249  0.7240

 Free energy of the ion-electron system (eV)
  ---------------------------------------------------
  alpha Z        PSCENC =        65.79552193
  Ewald energy   TEWEN  =     -1642.00330232
  -Hartree energ DENC   =      -625.13003200
  -exchange      EXHF   =         0.00000000
  -V(xc)+E(xc)   XCENC  =       163.80585757
  PAW double counting   =      2090.61461884    -2161.43429498
  entropy T*S    EENTRO =         0.00000000
  eigenvalues    EBANDS =      -471.09830495
  atomic energy  EATOM  =      2540.52333388
  Solvation  Ediel_sol  =         0.00000000
  ---------------------------------------------------
  free energy    TOTEN  =       -38.92660203 eV

  energy without entropy =      -38.92660203  energy(sigma->0) =      -38.92660203


--------------------------------------------------------------------------------------------------------




--------------------------------------- Iteration      1(  10)  ---------------------------------------


    POTLOK:  cpu time    0.0138: real time    0.0139
    SETDIJ:  cpu time    0.2404: real time    0.2406
    EDDIAG:  cpu time    0.2216: real time    0.2217
  RMM-DIIS:  cpu time    0.5740: real time    0.5743
    ORTHCH:  cpu time    0.0228: real time    0.0228
 BZINTS: Fermi energy:  2.404986; 36.000000 electrons
         Band energy:-472.050580;  BLOECHL correction:  0.000000
       DOS:  cpu time    0.0081: real time    0.0081
    CHARGE:  cpu time    0.0491: real time    0.0491
    MIXING:  cpu time    0.0010: real time    0.0006
    --------------------------------------------
      LOOP:  cpu time    1.1308: real time    1.1310

 eigenvalue-minimisations  :  6995
 total energy-change (2. order) :-0.3623698E-03  (-0.2760515E-02)
 number of electron      36.0000015 magnetization       0.0000000
 augmentation part        6.2601768 magnetization       0.0000023

 Broyden mixing:
  rms(total) = 0.13451E-01    rms(broyden)= 0.13360E-01
  rms(prec ) = 0.15625E-01
  weight for this iteration     100.00

 eigenvalues of (default mixing * dielectric matrix)
  average eigenvalue GAMMA=   1.2642
  2.3675  1.8419  1.2193  0.7017  0.1906

 Free energy of the ion-electron system (eV)
  ---------------------------------------------------
  alpha Z        PSCENC =        65.79552193
  Ewald energy   TEWEN  =     -1642.00330232
  -Hartree energ DENC   =      -624.14479567
  -exchange      EXHF   =         0.00000000
  -V(xc)+E(xc)   XCENC  =       163.74226842
  PAW double counting   =      2086.90718096    -2157.69659154
  entropy T*S    EENTRO =         0.00000000
  eigenvalues    EBANDS =      -472.05058006
  atomic energy  EATOM  =      2540.52333388
  Solvation  Ediel_sol  =         0.00000000
  ---------------------------------------------------
  free energy    TOTEN  =       -38.92696440 eV

  energy without entropy =      -38.92696440  energy(sigma->0) =      -38.92696440


--------------------------------------------------------------------------------------------------------




--------------------------------------- Iteration      1(  11)  ---------------------------------------


    POTLOK:  cpu time    0.0134: real time    0.0139
    SETDIJ:  cpu time    0.2411: real time    0.2413
    EDDIAG:  cpu time    0.2254: real time    0.2257
  RMM-DIIS:  cpu time    0.6228: real time    0.6232
    ORTHCH:  cpu time    0.0228: real time    0.0228
 BZINTS: Fermi energy:  2.406333; 36.000000 electrons
         Band energy:-472.075105;  BLOECHL correction:  0.000000
       DOS:  cpu time    0.0081: real time    0.0081
    CHARGE:  cpu time    0.0491: real time    0.0491
    MIXING:  cpu time    0.0006: real time    0.0006
    --------------------------------------------
      LOOP:  cpu time    1.1835: real time    1.1847

 eigenvalue-minimisations  :  7447
 total energy-change (2. order) :-0.1047860E-02  (-0.1141081E-02)
 number of electron      36.0000015 magnetization       0.0000000
 augmentation part        6.2517398 magnetization      -0.0000009

 Broyden mixing:
  rms(total) = 0.14266E-01    rms(broyden)= 0.14213E-01
  rms(prec ) = 0.16550E-01
  weight for this iteration     100.00

 eigenvalues of (default mixing * dielectric matrix)
  average eigenvalue GAMMA=   1.5617
  2.1434  2.3207  1.9910  1.1097  1.1097  0.6953

 Free energy of the ion-electron system (eV)
  ---------------------------------------------------
  alpha Z        PSCENC =        65.79552193
  Ewald energy   TEWEN  =     -1642.00330232
  -Hartree energ DENC   =      -624.13581948
  -exchange      EXHF   =         0.00000000
  -V(xc)+E(xc)   XCENC  =       163.74502161
  PAW double counting   =      2086.73819654    -2157.51585975
  entropy T*S    EENTRO =         0.00000000
  eigenvalues    EBANDS =      -472.07510467
  atomic energy  EATOM  =      2540.52333388
  Solvation  Ediel_sol  =         0.00000000
  ---------------------------------------------------
  free energy    TOTEN  =       -38.92801226 eV

  energy without entropy =      -38.92801226  energy(sigma->0) =      -38.92801226


--------------------------------------------------------------------------------------------------------




--------------------------------------- Iteration      1(  12)  ---------------------------------------


    POTLOK:  cpu time    0.0148: real time    0.0148
    SETDIJ:  cpu time    0.2407: real time    0.2408
    EDDIAG:  cpu time    0.2235: real time    0.2241
  RMM-DIIS:  cpu time    0.6365: real time    0.6368
    ORTHCH:  cpu time    0.0228: real time    0.0228
 BZINTS: Fermi energy:  2.403858; 36.000000 electrons
         Band energy:-472.055832;  BLOECHL correction:  0.000000
       DOS:  cpu time    0.0081: real time    0.0081
    CHARGE:  cpu time    0.0491: real time    0.0492
    MIXING:  cpu time    0.0006: real time    0.0006
    --------------------------------------------
      LOOP:  cpu time    1.1961: real time    1.1972

 eigenvalue-minimisations  :  7718
 total energy-change (2. order) : 0.3105946E-04  (-0.2894470E-03)
 number of electron      36.0000015 magnetization      -0.0000000
 augmentation part        6.2460441 magnetization       0.0001070

 Broyden mixing:
  rms(total) = 0.24070E-01    rms(broyden)= 0.24059E-01
  rms(prec ) = 0.27922E-01
  weight for this iteration     100.00

 eigenvalues of (default mixing * dielectric matrix)
  average eigenvalue GAMMA=   1.7096
  2.8783  2.4014  2.2866  1.4606  1.1731  1.1234  0.6439

 Free energy of the ion-electron system (eV)
  ---------------------------------------------------
  alpha Z        PSCENC =        65.79552193
  Ewald energy   TEWEN  =     -1642.00330232
  -Hartree energ DENC   =      -624.07838373
  -exchange      EXHF   =         0.00000000
  -V(xc)+E(xc)   XCENC  =       163.73187679
  PAW double counting   =      2085.95571444    -2156.79691049
  entropy T*S    EENTRO =         0.00000000
  eigenvalues    EBANDS =      -472.05583169
  atomic energy  EATOM  =      2540.52333388
  Solvation  Ediel_sol  =         0.00000000
  ---------------------------------------------------
  free energy    TOTEN  =       -38.92798120 eV

  energy without entropy =      -38.92798120  energy(sigma->0) =      -38.92798120


--------------------------------------------------------------------------------------------------------




--------------------------------------- Iteration      1(  13)  ---------------------------------------


    POTLOK:  cpu time    0.0138: real time    0.0139
    SETDIJ:  cpu time    0.2407: real time    0.2408
    EDDIAG:  cpu time    0.2218: real time    0.2219
  RMM-DIIS:  cpu time    0.5179: real time    0.5182
    ORTHCH:  cpu time    0.0231: real time    0.0231
 BZINTS: Fermi energy:  2.415060; 36.000000 electrons
         Band energy:-472.193883;  BLOECHL correction:  0.000000
       DOS:  cpu time    0.0081: real time    0.0081
    CHARGE:  cpu time    0.0492: real time    0.0492
    MIXING:  cpu time    0.0007: real time    0.0006
    --------------------------------------------
      LOOP:  cpu time    1.0752: real time    1.0758

 eigenvalue-minimisations  :  6216
 total energy-change (2. order) :-0.3133008E-03  (-0.2511331E-03)
 number of electron      36.0000015 magnetization      -0.0000000
 augmentation part        6.2506734 magnetization       0.0000933

 Broyden mixing:
  rms(total) = 0.84386E-02    rms(broyden)= 0.84326E-02
  rms(prec ) = 0.99878E-02
  weight for this iteration     100.00

 eigenvalues of (default mixing * dielectric matrix)
  average eigenvalue GAMMA=   1.4993
  2.8150  2.3177  1.8044  1.2833  1.2833  1.0152  0.8155  0.6601

 Free energy of the ion-electron system (eV)
  ---------------------------------------------------
  alpha Z        PSCENC =        65.79552193
  Ewald energy   TEWEN  =     -1642.00330232
  -Hartree energ DENC   =      -624.21695785
  -exchange      EXHF   =         0.00000000
  -V(xc)+E(xc)   XCENC  =       163.77880863
  PAW double counting   =      2088.56367305    -2159.17548920
  entropy T*S    EENTRO =         0.00000000
  eigenvalues    EBANDS =      -472.19388262
  atomic energy  EATOM  =      2540.52333388
  Solvation  Ediel_sol  =         0.00000000
  ---------------------------------------------------
  free energy    TOTEN  =       -38.92829450 eV

  energy without entropy =      -38.92829450  energy(sigma->0) =      -38.92829450


--------------------------------------------------------------------------------------------------------




--------------------------------------- Iteration      1(  14)  ---------------------------------------


    POTLOK:  cpu time    0.0138: real time    0.0139
    SETDIJ:  cpu time    0.2405: real time    0.2407
    EDDIAG:  cpu time    0.2219: real time    0.2220
  RMM-DIIS:  cpu time    0.5501: real time    0.5504
    ORTHCH:  cpu time    0.0228: real time    0.0228
 BZINTS: Fermi energy:  2.414836; 36.000000 electrons
         Band energy:-472.125078;  BLOECHL correction:  0.000000
       DOS:  cpu time    0.0081: real time    0.0081
    CHARGE:  cpu time    0.0490: real time    0.0491
    MIXING:  cpu time    0.0007: real time    0.0007
    --------------------------------------------
      LOOP:  cpu time    1.1069: real time    1.1076

 eigenvalue-minimisations  :  6709
 total energy-change (2. order) :-0.7766654E-04  (-0.3590616E-04)
 number of electron      36.0000015 magnetization       0.0000000
 augmentation part        6.2505000 magnetization       0.0000418

 Broyden mixing:
  rms(total) = 0.32894E-02    rms(broyden)= 0.32890E-02
  rms(prec ) = 0.39740E-02
  weight for this iteration     100.00

 eigenvalues of (default mixing * dielectric matrix)
  average eigenvalue GAMMA=   1.4203
  2.8300  2.3193  1.7036  1.3138  1.3138  1.0323  1.0323  0.6314  0.6065

 Free energy of the ion-electron system (eV)
  ---------------------------------------------------
  alpha Z        PSCENC =        65.79552193
  Ewald energy   TEWEN  =     -1642.00330232
  -Hartree energ DENC   =      -624.23380001
  -exchange      EXHF   =         0.00000000
  -V(xc)+E(xc)   XCENC  =       163.77436137
  PAW double counting   =      2088.06634169    -2158.72575027
  entropy T*S    EENTRO =         0.00000000
  eigenvalues    EBANDS =      -472.12507845
  atomic energy  EATOM  =      2540.52333388
  Solvation  Ediel_sol  =         0.00000000
  ---------------------------------------------------
  free energy    TOTEN  =       -38.92837217 eV

  energy without entropy =      -38.92837217  energy(sigma->0) =      -38.92837217


--------------------------------------------------------------------------------------------------------




--------------------------------------- Iteration      1(  15)  ---------------------------------------


    POTLOK:  cpu time    0.0138: real time    0.0139
    SETDIJ:  cpu time    0.2405: real time    0.2407
    EDDIAG:  cpu time    0.2220: real time    0.2221
  RMM-DIIS:  cpu time    0.4733: real time    0.4735
    ORTHCH:  cpu time    0.0228: real time    0.0228
 BZINTS: Fermi energy:  2.414758; 36.000000 electrons
         Band energy:-472.088272;  BLOECHL correction:  0.000000
       DOS:  cpu time    0.0081: real time    0.0081
    CHARGE:  cpu time    0.0494: real time    0.0494
    MIXING:  cpu time    0.0007: real time    0.0007
    --------------------------------------------
      LOOP:  cpu time    1.0305: real time    1.0311

 eigenvalue-minimisations  :  5511
 total energy-change (2. order) :-0.2238955E-04  (-0.1828515E-04)
 number of electron      36.0000015 magnetization       0.0000000
 augmentation part        6.2494314 magnetization       0.0000269

 Broyden mixing:
  rms(total) = 0.59036E-03    rms(broyden)= 0.58312E-03
  rms(prec ) = 0.66633E-03
  weight for this iteration     100.00

 eigenvalues of (default mixing * dielectric matrix)
  average eigenvalue GAMMA=   1.4682
  2.8493  2.3126  1.5944  1.5944  1.6784  1.1694  1.1694  0.8317  0.8317  0.6507

 Free energy of the ion-electron system (eV)
  ---------------------------------------------------
  alpha Z        PSCENC =        65.79552193
  Ewald energy   TEWEN  =     -1642.00330232
  -Hartree energ DENC   =      -624.25370395
  -exchange      EXHF   =         0.00000000
  -V(xc)+E(xc)   XCENC  =       163.77312125
  PAW double counting   =      2087.88153083    -2158.55662438
  entropy T*S    EENTRO =         0.00000000
  eigenvalues    EBANDS =      -472.08827178
  atomic energy  EATOM  =      2540.52333388
  Solvation  Ediel_sol  =         0.00000000
  ---------------------------------------------------
  free energy    TOTEN  =       -38.92839456 eV

  energy without entropy =      -38.92839456  energy(sigma->0) =      -38.92839456


--------------------------------------------------------------------------------------------------------




--------------------------------------- Iteration      1(  16)  ---------------------------------------


    POTLOK:  cpu time    0.0139: real time    0.0140
    SETDIJ:  cpu time    0.2405: real time    0.2406
    EDDIAG:  cpu time    0.2218: real time    0.2219
  RMM-DIIS:  cpu time    0.3900: real time    0.3902
    ORTHCH:  cpu time    0.0228: real time    0.0228
 BZINTS: Fermi energy:  2.414450; 36.000000 electrons
         Band energy:-472.087914;  BLOECHL correction:  0.000000
       DOS:  cpu time    0.0081: real time    0.0081
    --------------------------------------------
      LOOP:  cpu time    0.8970: real time    0.8975

 eigenvalue-minimisations  :  4270
 total energy-change (2. order) :-0.5194527E-05  (-0.4322013E-05)
 number of electron      36.0000015 magnetization       0.0000000
 augmentation part        6.2494314 magnetization       0.0000269

 Free energy of the ion-electron system (eV)
  ---------------------------------------------------
  alpha Z        PSCENC =        65.79552193
  Ewald energy   TEWEN  =     -1642.00330232
  -Hartree energ DENC   =      -624.25131903
  -exchange      EXHF   =         0.00000000
  -V(xc)+E(xc)   XCENC  =       163.77142672
  PAW double counting   =      2087.79785394    -2158.47400092
  entropy T*S    EENTRO =         0.00000000
  eigenvalues    EBANDS =      -472.08791395
  atomic energy  EATOM  =      2540.52333388
  Solvation  Ediel_sol  =         0.00000000
  ---------------------------------------------------
  free energy    TOTEN  =       -38.92839975 eV

  energy without entropy =      -38.92839975  energy(sigma->0) =      -38.92839975


--------------------------------------------------------------------------------------------------------




 average (electrostatic) potential at core
  the test charge radii are     0.7079  0.7215
  (the norm of the test charge is              1.0000)
       1 -60.9049       2 -60.9049       3 -60.4715       4 -60.4715       5 -72.8399
       6 -72.8400       7 -72.8400       8 -72.8399
 
 
 
 E-fermi :   2.4144     XC(G=0):  -9.9717     alpha+bet :-13.3056


 spin component 1

 k-point     1 :       0.0000    0.0000    0.0000
  band No.  band energies     occupation 
      1     -41.8355      1.00000
      2     -41.8298      1.00000
      3     -41.4107      1.00000
      4     -41.4058      1.00000
      5     -18.1743      1.00000
      6     -17.9899      1.00000
      7     -13.1866      1.00000
      8     -12.4781      1.00000
      9      -4.0606      1.00000
     10      -2.3061      1.00000
     11      -1.0310      1.00000
     12      -1.0310      1.00000
     13      -0.8713      1.00000
     14      -0.8713      1.00000
     15       2.0766      1.00000
     16       2.0766      1.00000
     17       2.3216      1.00000
     18       2.3216      1.00000
     19       4.3625      0.00000
     20       6.5893      0.00000
     21       8.3562      0.00000
     22       8.7231      0.00000
     23      10.9320      0.00000
     24      11.0415      0.00000

 k-point     2 :       0.0833    0.0000    0.0000
  band No.  band energies     occupation 
      1     -41.8345      1.00000
      2     -41.8291      1.00000
      3     -41.4095      1.00000
      4     -41.4049      1.00000
      5     -18.1635      1.00000
      6     -17.9828      1.00000
      7     -13.1584      1.00000
      8     -12.4633      1.00000
      9      -4.0443      1.00000
     10      -2.3159      1.00000
     11      -1.1921      1.00000
     12      -1.0939      1.00000
     13      -0.9787      1.00000
     14      -0.8955      1.00000
     15       1.8913      1.00000
     16       2.0129      1.00000
     17       2.1866      1.00000
     18       2.3295      1.00000
     19       4.4280      0.00000
     20       6.5812      0.00000
     21       8.5274      0.00000
     22       8.8735      0.00000
     23      11.0583      0.00000
     24      11.2672      0.00000

 k-point     3 :       0.1667    0.0000    0.0000
  band No.  band energies     occupation 
      1     -41.8317      1.00000
      2     -41.8272      1.00000
      3     -41.4063      1.00000
      4     -41.4025      1.00000
      5     -18.1329      1.00000
      6     -17.9637      1.00000
      7     -13.0781      1.00000
      8     -12.4247      1.00000
      9      -3.9971      1.00000
     10      -2.3521      1.00000
     11      -1.5837      1.00000
     12      -1.2781      1.00000
     13      -1.2481      1.00000
     14      -0.9738      1.00000
     15       1.4565      1.00000
     16       1.8132      1.00000
     17       1.8680      1.00000
     18       2.3244      1.00000
     19       4.5868      0.00000
     20       6.5465      0.00000
     21       8.9718      0.00000
     22       9.2777      0.00000
     23      11.3857      0.00000
     24      11.8738      0.00000

 k-point     4 :       0.2500   -0.0000    0.0000
  band No.  band energies     occupation 
      1     -41.8279      1.00000
      2     -41.8247      1.00000
      3     -41.4019      1.00000
      4     -41.3993      1.00000
      5     -18.0885      1.00000
      6     -17.9390      1.00000
      7     -12.9589      1.00000
      8     -12.3782      1.00000
      9      -3.9252      1.00000
     10      -2.4558      1.00000
     11      -2.0184      1.00000
     12      -1.6712      1.00000
     13      -1.4371      1.00000
     14      -1.0901      1.00000
     15       0.9586      1.00000
     16       1.3199      1.00000
     17       1.6994      1.00000
     18       2.2929      1.00000
     19       4.7846      0.00000
     20       6.4711      0.00000
     21       9.4887      0.00000
     22       9.8478      0.00000
     23      11.7938      0.00000
     24      12.7284      0.00000

 k-point     5 :       0.3333    0.0000    0.0000
  band No.  band energies     occupation 
      1     -41.8241      1.00000
      2     -41.8221      1.00000
      3     -41.3976      1.00000
      4     -41.3960      1.00000
      5     -18.0401      1.00000
      6     -17.9164      1.00000
      7     -12.8234      1.00000
      8     -12.3437      1.00000
      9      -3.8411      1.00000
     10      -2.7293      1.00000
     11      -2.2612      1.00000
     12      -2.0342      1.00000
     13      -1.6109      1.00000
     14      -1.2089      1.00000
     15       0.5377      1.00000
     16       0.8389      1.00000
     17       1.5481      1.00000
     18       2.2495      1.00000
     19       4.9889      0.00000
     20       6.3579      0.00000
     21       9.8434      0.00000
     22      10.4682      0.00000
     23      12.1566      0.00000
     24      12.6304      0.00000

 k-point     6 :       0.4167    0.0000    0.0000
  band No.  band energies     occupation 
      1     -41.8214      1.00000
      2     -41.8202      1.00000
      3     -41.3945      1.00000
      4     -41.3936      1.00000
      5     -18.0004      1.00000
      6     -17.9030      1.00000
      7     -12.7065      1.00000
      8     -12.3334      1.00000
      9      -3.7640      1.00000
     10      -3.0234      1.00000
     11      -2.3653      1.00000
     12      -2.2625      1.00000
     13      -1.7310      1.00000
     14      -1.2957      1.00000
     15       0.2830      1.00000
     16       0.4744      1.00000
     17       1.4445      1.00000
     18       2.2136      1.00000
     19       5.1625      0.00000
     20       6.2381      0.00000
     21       9.9856      0.00000
     22      10.9311      0.00000
     23      12.3908      0.00000
     24      12.6450      0.00000

 k-point     7 :       0.5000   -0.0000    0.0000
  band No.  band energies     occupation 
      1     -41.8203      1.00000
      2     -41.8195      1.00000
      3     -41.3933      1.00000
      4     -41.3927      1.00000
      5     -17.9844      1.00000
      6     -17.8995      1.00000
      7     -12.6566      1.00000
      8     -12.3358      1.00000
      9      -3.7278      1.00000
     10      -3.1432      1.00000
     11      -2.4184      1.00000
     12      -2.3207      1.00000
     13      -1.7737      1.00000
     14      -1.3272      1.00000
     15       0.2153      1.00000
     16       0.3227      1.00000
     17       1.4078      1.00000
     18       2.1999      1.00000
     19       5.2372      0.00000
     20       6.1811      0.00000
     21      10.0130      0.00000
     22      11.0930      0.00000
     23      12.4692      0.00000
     24      12.6879      0.00000

 k-point     8 :       0.0833    0.0833    0.0000
  band No.  band energies     occupation 
      1     -41.8326      1.00000
      2     -41.8278      1.00000
      3     -41.4073      1.00000
      4     -41.4033      1.00000
      5     -18.1427      1.00000
      6     -17.9697      1.00000
      7     -13.1041      1.00000
      8     -12.4366      1.00000
      9      -4.0123      1.00000
     10      -2.3386      1.00000
     11      -1.4385      1.00000
     12      -1.3074      1.00000
     13      -1.0660      1.00000
     14      -0.9880      1.00000
[...]

 k-point    48 :       0.2500    0.0833    0.5000
  band No.  band energies     occupation 
      1     -41.6969      1.00000
      2     -41.6969      1.00000
      3     -41.2791      1.00000
      4     -41.2791      1.00000
      5     -17.9470      1.00000
      6     -17.9469      1.00000
      7     -12.5641      1.00000
      8     -12.5641      1.00000
      9      -3.1516      1.00000
     10      -3.1516      1.00000
     11      -2.1223      1.00000
     12      -2.1223      1.00000
     13      -1.3403      1.00000
     14      -1.3403      1.00000
     15       1.1046      1.00000
     16       1.1046      1.00000
     17       1.9735      1.00000
     18       1.9735      1.00000
     19       5.6352      0.00000
     20       5.6352      0.00000
     21      10.3686      0.00000
     22      10.3686      0.00000
     23      12.1030      0.00000
     24      12.1030      0.00000

 k-point    49 :       0.3333    0.0833    0.5000
  band No.  band energies     occupation 
      1     -41.6939      1.00000
      2     -41.6939      1.00000
      3     -41.2756      1.00000
      4     -41.2755      1.00000
      5     -17.9142      1.00000
      6     -17.9142      1.00000
      7     -12.4839      1.00000
      8     -12.4839      1.00000
      9      -3.1365      1.00000
     10      -3.1364      1.00000
     11      -2.4914      1.00000
     12      -2.4914      1.00000
     13      -1.4827      1.00000
     14      -1.4827      1.00000
     15       0.7801      1.00000
     16       0.7801      1.00000
     17       1.8737      1.00000
     18       1.8737      1.00000
     19       5.6283      0.00000
     20       5.6284      0.00000
     21      10.7620      0.00000
     22      10.7620      0.00000
     23      12.4827      0.00000
     24      12.4828      0.00000

 k-point    50 :       0.4167    0.0833    0.5000
  band No.  band energies     occupation 
      1     -41.6921      1.00000
      2     -41.6921      1.00000
      3     -41.2735      1.00000
      4     -41.2735      1.00000
      5     -17.8949      1.00000
      6     -17.8949      1.00000
      7     -12.4365      1.00000
      8     -12.4364      1.00000
      9      -3.1214      1.00000
     10      -3.1214      1.00000
     11      -2.7052      1.00000
     12      -2.7052      1.00000
     13      -1.5622      1.00000
     14      -1.5622      1.00000
     15       0.6032      1.00000
     16       0.6032      1.00000
     17       1.8172      1.00000
     18       1.8172      1.00000
     19       5.6199      0.00000
     20       5.6199      0.00000
     21      10.9436      0.00000
     22      10.9436      0.00000
     23      12.7277      0.00000
     24      12.7277      0.00000

 k-point    51 :       0.1667    0.1667    0.5000
  band No.  band energies     occupation 
      1     -41.6973      1.00000
      2     -41.6973      1.00000
      3     -41.2797      1.00000
      4     -41.2796      1.00000
      5     -17.9519      1.00000
      6     -17.9519      1.00000
      7     -12.5764      1.00000
      8     -12.5763      1.00000
      9      -3.1520      1.00000
     10      -3.1520      1.00000
     11      -2.0377      1.00000
     12      -2.0376      1.00000
     13      -1.3564      1.00000
     14      -1.3564      1.00000
     15       1.2038      1.00000
     16       1.2038      1.00000
     17       1.9319      1.00000
     18       1.9319      1.00000
     19       5.6426      0.00000
     20       5.6426      0.00000
     21      10.3804      0.00000
     22      10.3804      0.00000
     23      12.0476      0.00000
     24      12.0476      0.00000

 k-point    52 :       0.2500    0.1667    0.5000
  band No.  band energies     occupation 
      1     -41.6943      1.00000
      2     -41.6943      1.00000
      3     -41.2761      1.00000
      4     -41.2761      1.00000
      5     -17.9191      1.00000
      6     -17.9191      1.00000
      7     -12.4967      1.00000
      8     -12.4967      1.00000
      9      -3.1349      1.00000
     10      -3.1349      1.00000
     11      -2.3815      1.00000
     12      -2.3815      1.00000
     13      -1.5446      1.00000
     14      -1.5446      1.00000
     15       0.9282      1.00000
     16       0.9282      1.00000
     17       1.7613      1.00000
     18       1.7613      1.00000
     19       5.6478      0.00000
     20       5.6478      0.00000
     21      10.9516      0.00000
     22      10.9516      0.00000
     23      12.4133      0.00000
     24      12.4133      0.00000

 k-point    53 :       0.3333    0.1667    0.5000
  band No.  band energies     occupation 
      1     -41.6922      1.00000
      2     -41.6922      1.00000
      3     -41.2735      1.00000
      4     -41.2735      1.00000
      5     -17.8944      1.00000
      6     -17.8944      1.00000
      7     -12.4368      1.00000
      8     -12.4368      1.00000
      9      -3.1172      1.00000
     10      -3.1172      1.00000
     11      -2.6319      1.00000
     12      -2.6319      1.00000
     13      -1.6785      1.00000
     14      -1.6785      1.00000
     15       0.7395      1.00000
     16       0.7395      1.00000
     17       1.6359      1.00000
     18       1.6359      1.00000
     19       5.6461      0.00000
     20       5.6461      0.00000
     21      11.3480      0.00000
     22      11.3480      0.00000
     23      12.7311      0.00000
     24      12.7311      0.00000

 k-point    54 :       0.4167    0.1667    0.5000
  band No.  band energies     occupation 
      1     -41.6914      1.00000
      2     -41.6914      1.00000
      3     -41.2725      1.00000
      4     -41.2725      1.00000
      5     -17.8853      1.00000
      6     -17.8852      1.00000
      7     -12.4146      1.00000
      8     -12.4146      1.00000
      9      -3.1073      1.00000
     10      -3.1073      1.00000
     11      -2.7260      1.00000
     12      -2.7260      1.00000
     13      -1.7266      1.00000
     14      -1.7266      1.00000
     15       0.6727      1.00000
     16       0.6727      1.00000
     17       1.5903      1.00000
     18       1.5903      1.00000
     19       5.6444      0.00000
     20       5.6444      0.00000
     21      11.4717      0.00000
     22      11.4717      0.00000
     23      12.8867      0.00000
     24      12.8867      0.00000

 k-point    55 :       0.2500    0.2500    0.5000
  band No.  band energies     occupation 
      1     -41.6922      1.00000
      2     -41.6922      1.00000
      3     -41.2735      1.00000
      4     -41.2735      1.00000
      5     -17.8941      1.00000
      6     -17.8941      1.00000
      7     -12.4371      1.00000
      8     -12.4370      1.00000
      9      -3.1154      1.00000
     10      -3.1154      1.00000
     11      -2.5876      1.00000
     12      -2.5876      1.00000
     13      -1.7439      1.00000
     14      -1.7439      1.00000
     15       0.8330      1.00000
     16       0.8331      1.00000
     17       1.5204      1.00000
     18       1.5204      1.00000
     19       5.6586      0.00000
     20       5.6586      0.00000
     21      11.6151      0.00000
     22      11.6151      0.00000
     23      12.6851      0.00000
     24      12.6851      0.00000

 k-point    56 :       0.3333    0.2500    0.5000
  band No.  band energies     occupation 
      1     -41.6909      1.00000
      2     -41.6909      1.00000
      3     -41.2720      1.00000
      4     -41.2720      1.00000
      5     -17.8796      1.00000
      6     -17.8796      1.00000
      7     -12.4021      1.00000
      8     -12.4021      1.00000
      9      -3.1017      1.00000
     10      -3.1017      1.00000
     11      -2.7011      1.00000
     12      -2.7011      1.00000
     13      -1.8654      1.00000
     14      -1.8654      1.00000
     15       0.8104      1.00000
     16       0.8104      1.00000
     17       1.3500      1.00000
     18       1.3500      1.00000
     19       5.6637      0.00000
     20       5.6637      0.00000
     21      12.0454      0.00000
     22      12.0454      0.00000
     23      12.9444      0.00000
     24      12.9444      0.00000

 k-point    57 :       0.3333    0.3333    0.5000
  band No.  band energies     occupation 
      1     -41.6905      1.00000
      2     -41.6905      1.00000
      3     -41.2714      1.00000
      4     -41.2714      1.00000
      5     -17.8739      1.00000
      6     -17.8739      1.00000
      7     -12.3893      1.00000
      8     -12.3892      1.00000
      9      -3.0975      1.00000
     10      -3.0975      1.00000
     11      -2.7148      1.00000
     12      -2.7148      1.00000
     13      -1.9450      1.00000
     14      -1.9450      1.00000
     15       0.9137      1.00000
     16       0.9137      1.00000
     17       1.1662      1.00000
     18       1.1662      1.00000
     19       5.6705      0.00000
     20       5.6705      0.00000
     21      12.4109      0.00000
     22      12.4109      0.00000
     23      13.0841      0.00000
     24      13.0841      0.00000


--------------------------------------------------------------------------------------------------------


 soft charge-density along one line, spin component           1
         0         1         2         3         4         5         6         7         8         9
 total charge-density along one line
 
 soft charge-density along one line, spin component           2
         0         1         2         3         4         5         6         7         8         9
 total charge-density along one line
 
 pseudopotential strength for first ion, spin component:           1
-38.499   3.505  -0.000   0.000  -0.000
  3.505  -9.911  -0.000   0.000  -0.000
 -0.000  -0.000   0.173   0.000  -0.000
  0.000   0.000   0.000   0.173  -0.000
 -0.000  -0.000  -0.000  -0.000   0.173
 pseudopotential strength for first ion, spin component:           2
-38.499   3.505  -0.000   0.000  -0.000
  3.505  -9.911  -0.000   0.000  -0.000
 -0.000  -0.000   0.173   0.000   0.000
  0.000   0.000   0.000   0.173  -0.000
 -0.000  -0.000   0.000  -0.000   0.173
 total augmentation occupancy for first ion, spin component:           1
  2.000  -0.005   0.000   0.000   0.000
 -0.005   0.633   0.000   0.000   0.000
  0.000   0.000   0.023  -0.000   0.000
  0.000   0.000  -0.000   0.024   0.000
  0.000   0.000   0.000  -0.000   0.023
 total augmentation occupancy for first ion, spin component:           2
  0.000   0.000   0.000   0.000   0.000
  0.000  -0.000   0.000   0.000   0.000
  0.000   0.000   0.000   0.000   0.000
  0.000   0.000   0.000   0.000   0.000
  0.000   0.000   0.000   0.000   0.000


------------------------ aborting loop because EDIFF is reached ----------------------------------------


 


 total charge     
 
# of ion       s       p       d       tot
------------------------------------------
    1        2.016   0.050   0.000   2.066
    2        2.016   0.049   0.000   2.066
    3        2.025   0.073   0.000   2.098
    4        2.025   0.073   0.000   2.098
    5        1.572   3.361   0.000   4.934
    6        1.572   3.361   0.000   4.934
    7        1.572   3.361   0.000   4.934
    8        1.572   3.361   0.000   4.934
--------------------------------------------------
tot         14.372  13.690   0.000  28.062
 


 magnetization (x)
 
# of ion       s       p       d       tot
------------------------------------------
    1       -0.000  -0.000   0.000  -0.000
    2        0.000  -0.000   0.000  -0.000
    3        0.000  -0.000   0.000  -0.000
    4        0.000  -0.000   0.000  -0.000
    5       -0.000  -0.000   0.000  -0.000
    6       -0.000  -0.000   0.000  -0.000
    7       -0.000  -0.000   0.000  -0.000
    8       -0.000  -0.000   0.000  -0.000
--------------------------------------------------
tot          0.000  -0.000   0.000  -0.000
 
    CHARGE:  cpu time    0.0489: real time    0.0489
    FORLOC:  cpu time    0.0008: real time    0.0008
    FORNL :  cpu time    0.2299: real time    0.2300
    STRESS:  cpu time    0.6915: real time    0.6918
    FORCOR:  cpu time    0.0132: real time    0.0132
    FORHAR:  cpu time    0.0019: real time    0.0019
    MIXING:  cpu time    0.0005: real time    0.0005
    OFIELD:  cpu time    0.0000: real time    0.0000

  FORCE on cell =-STRESS in cart. coord.  units (eV):
  Direction    XX          YY          ZZ          XY          YZ          ZX
  --------------------------------------------------------------------------------------
  Alpha Z    66.70781    66.70781    66.70781
  Ewald    -625.66832  -625.67026  -399.52150     0.00000     0.00000     0.00000
  Hartree   179.92436   179.92401   259.30385     0.00000    -0.00000    -0.00000
  E(xc)    -175.08573  -175.08569  -174.65705     0.00000     0.00000    -0.00000
  Local     -97.74563   -97.74395  -324.24383    -0.00000     0.00000     0.00000
  n-local  -162.42108  -168.84267  -144.99424    -2.94076    -0.00804     0.11794
  augment   100.19693   100.19738    89.87531     0.00000     0.00000    -0.00000
  Kinetic   703.84309   730.67040   627.47116    13.32398     0.07796    -0.52572
  Fock        0.00000     0.00000     0.00000     0.00000     0.00000     0.00000
  -------------------------------------------------------------------------------------
  Total      -0.04577    -0.04577    -0.05848     0.00000     0.00000     0.00000
  in kB      -1.10167    -1.10167    -1.40780     0.00000     0.00000     0.00000
  external pressure =       -1.20 kB  Pullay stress =        0.00 kB


 VOLUME and BASIS-vectors are now :
 -----------------------------------------------------------------------------
  energy-cutoff  :      520.00
  volume of cell :       66.56
      direct lattice vectors                 reciprocal lattice vectors
     1.581046688 -2.738452912 -0.000000000     0.316246196 -0.182584845 -0.000000000
     1.581046688  2.738452912  0.000000000     0.316246196  0.182584845  0.000000000
    -0.000000000 -0.000000000  7.686218220     0.000000000 -0.000000000  0.130102994

  length of vectors
     3.162093133  3.162093133  7.686218220     0.365169662  0.365169662  0.130102994


 FORCES acting on ions
    electron-ion (+dipol)            ewald-force                    non-local-force                 convergence-correction
 -----------------------------------------------------------------------------------------------
   0.700E-12 0.344E-04 0.112E-03   -.127E-14 -.685E-15 0.284E-13   -.847E-21 0.847E-21 0.000E+00   0.193E-13 -.540E-08 0.875E-08
   0.757E-11 0.580E-03 -.110E-03   -.926E-15 -.461E-15 0.711E-14   -.847E-21 -.423E-21 0.000E+00   0.122E-13 -.163E-07 -.811E-08
   0.404E-11 -.582E-03 -.323E-06   0.102E-13 -.400E-03 -.213E-13   -.434E-18 0.694E-17 -.508E-20   0.483E-13 -.576E-06 0.287E-09
   0.442E-11 0.639E-03 -.323E-06   -.149E-13 0.400E-03 0.142E-13   0.173E-17 -.867E-17 0.508E-20   -.313E-14 0.619E-06 0.287E-09
   0.471E-06 -.152E-02 0.129E+03   0.155E-13 -.281E-03 -.152E+03   -.434E-17 0.518E-17 0.226E+02   -.564E-13 -.831E-07 -.349E-02
   0.471E-06 0.294E-02 0.129E+03   0.862E-16 0.281E-03 -.152E+03   -.955E-17 -.350E-17 0.226E+02   0.340E-14 0.410E-08 -.349E-02
   -.471E-06 0.296E-02 -.129E+03   -.107E-13 0.281E-03 0.152E+03   0.261E-17 0.176E-17 -.226E+02   0.701E-14 0.224E-08 0.349E-02
   -.471E-06 -.154E-02 -.129E+03   0.410E-14 -.281E-03 0.152E+03   0.347E-17 0.697E-17 -.226E+02   -.242E-13 -.812E-07 0.349E-02
 -----------------------------------------------------------------------------------------------
   0.746E-10 0.352E-02 0.572E-05   0.208E-14 0.212E-14 0.000E+00   -.651E-17 0.867E-17 -.355E-14   0.647E-14 -.137E-06 -.897E-10
 
 
 POSITION                                       TOTAL-FORCE (eV/Angst)
 -----------------------------------------------------------------------------------
     -0.00000      0.00000      0.00000         0.000000     -0.000000      0.000000
     -0.00000     -0.00000      3.84311         0.000000     -0.000000      0.000000
      1.58105      0.91282      1.92155         0.000000     -0.000000      0.000000
      1.58105     -0.91282      5.76466        -0.000000     -0.000000      0.000000
      1.58105      0.91282      4.98948         0.000000      0.000000      0.011468
      1.58105     -0.91282      1.14637        -0.000000     -0.000000      0.011468
      1.58105     -0.91282      2.69674        -0.000000     -0.000000     -0.011468
      1.58105      0.91282      6.53984         0.000000      0.000000     -0.011468
 -----------------------------------------------------------------------------------
    total drift:                                0.000000      0.003519      0.000006


--------------------------------------------------------------------------------------------------------



  FREE ENERGIE OF THE ION-ELECTRON SYSTEM (eV)
  ---------------------------------------------------
  free  energy   TOTEN  =       -38.93289432 eV

  energy  without entropy=      -38.93289432  energy(sigma->0) =      -38.93289432
 
 d Force = 0.2982147E-03[ 0.748E-04, 0.522E-03]  d Energy = 0.3168676E-03-0.187E-04
 d Force =-0.9877194E+00[-0.992E+00,-0.984E+00]  d Ewald  =-0.1659846E+01 0.672E+00


--------------------------------------------------------------------------------------------------------


    POTLOK:  cpu time    0.2628: real time    0.2630


--------------------------------------------------------------------------------------------------------




--------------------------------------------------------------------------------------------------------


  
 reached required accuracy - stopping structural energy minimisation
     LOOP+:  cpu time    5.7419: real time    5.7482
    4ORBIT:  cpu time    0.0000: real time    0.0000
 


 total charge     
 
# of ion       s       p       d       tot
------------------------------------------
    1        2.016   0.050   0.000   2.066
    2        2.016   0.049   0.000   2.066
    3        2.025   0.073   0.000   2.098
    4        2.025   0.073   0.000   2.098
    5        1.572   3.361   0.000   4.934
    6        1.572   3.361   0.000   4.934
    7        1.572   3.361   0.000   4.934
    8        1.572   3.361   0.000   4.934
--------------------------------------------------
tot         14.372  13.690   0.000  28.062
 


 magnetization (x)
 
# of ion       s       p       d       tot
------------------------------------------
    1       -0.000  -0.000   0.000  -0.000
    2        0.000  -0.000   0.000  -0.000
    3        0.000  -0.000   0.000  -0.000
    4        0.000  -0.000   0.000  -0.000
    5       -0.000  -0.000   0.000  -0.000
    6       -0.000  -0.000   0.000  -0.000
    7       -0.000  -0.000   0.000  -0.000
    8       -0.000  -0.000   0.000  -0.000
--------------------------------------------------
tot          0.000  -0.000   0.000  -0.000
 
 BZINTS: Fermi energy:  2.443512; 36.000000 electrons
         Band energy:-469.500503;  BLOECHL correction:  0.000000

 total amount of memory used by VASP MPI-rank0    36280. kBytes
=======================================================================

   base      :      30000. kBytes
   nonlr-proj:        673. kBytes
   fftplans  :        565. kBytes
   grid      :       1397. kBytes
   one-center:         12. kBytes
   wavefun   :       3633. kBytes
 
  
  
 General timing and accounting informations for this job:
 ========================================================
  
                  Total CPU time used (sec):       52.589
                            User time (sec):       50.606
                          System time (sec):        1.983
                         Elapsed time (sec):       53.519
  
                   Maximum memory used (kb):       70048.
                   Average memory used (kb):           0.
  
                          Minor page faults:        23674
                          Major page faults:            0
                 Voluntary context switches:        53768
