 running on   12 total cores
 distrk:  each k-point on   12 cores,    1 groups
 distr:  one band on    6 cores,    2 groups
 using from now: INCAR     
 vasp.6.1.2 22Jul20 (build Mar 20 2021 11:25:07) complex                        
  
 POSCAR found type information on POSCAR LiO 
 POSCAR found :  2 types and       3 ions
 scaLAPACK will be used
 -----------------------------------------------------------------------------
|                                                                             |
|               ----> ADVICE to this user running VASP <----                  |
|                                                                             |
|     You have a (more or less) 'small supercell' and for smaller cells       |
|     it is recommended to use the reciprocal-space projection scheme!        |
|     The real-space optimization is not efficient for small cells and it     |
|     is also less accurate ...                                               |
|     Therefore, set LREAL=.FALSE. in the INCAR file.                         |
|                                                                             |
 -----------------------------------------------------------------------------

 LDA part: xc-table for Pade appr. of Perdew
 generate k-points for:   13   12   12
 POSCAR, INCAR and KPOINTS ok, starting setup
 FFT: planning ...
 WAVECAR not read
 entering main loop
       N       E                     dE             d eps       ncg     rms          rms(c)
DAV:   1     0.446877081151E+02    0.44688E+02   -0.56517E+03 24624   0.103E+03
DAV:   2    -0.968436054462E+01   -0.54372E+02   -0.52368E+02 29416   0.228E+02
DAV:   3    -0.152581686220E+02   -0.55738E+01   -0.55285E+01 46076   0.541E+01
DAV:   4    -0.153143890788E+02   -0.56220E-01   -0.56211E-01 28368   0.659E+00
DAV:   5    -0.153148429581E+02   -0.45388E-03   -0.45387E-03 34040   0.455E-01    0.117E+01
RMM:   6    -0.141756159079E+02    0.11392E+01   -0.34581E+00 26766   0.124E+01    0.496E+00
RMM:   7    -0.142921073766E+02   -0.11649E+00   -0.11419E-01 30649   0.282E+00    0.212E+00
RMM:   8    -0.142994359041E+02   -0.73285E-02   -0.46776E-02 34980   0.211E+00    0.116E+00
RMM:   9    -0.143117106499E+02   -0.12275E-01   -0.30897E-02 34895   0.196E+00    0.243E-01
RMM:  10    -0.143128817816E+02   -0.11711E-02   -0.87574E-03 40101   0.725E-01    0.139E-01
RMM:  11    -0.143137990722E+02   -0.91729E-03   -0.53779E-03 38418   0.580E-01    0.168E-01
WARNING in EDDRMM: call to ZHEGV failed, returncode =   8  4      6
RMM:  12    -0.143136480883E+02    0.15098E-03   -0.15533E-03 39241   0.329E-01    0.767E-02
WARNING in EDDRMM: call to ZHEGV failed, returncode =   8  4      4
RMM:  13    -0.143136475330E+02    0.55528E-06   -0.75491E-04 39565   0.226E-01    0.203E-02
RMM:  14    -0.143136854882E+02   -0.37955E-04   -0.29721E-04 38373   0.124E-01    0.314E-02
RMM:  15    -0.143137002999E+02   -0.14812E-04   -0.11288E-04 35655   0.801E-02    0.274E-02
RMM:  16    -0.143137038438E+02   -0.35439E-05   -0.53489E-05 32668   0.571E-02
   1 F= -.14313704E+02 E0= -.14313704E+02  d E =0.000000E+00  mag=    -0.0000
