    8    8    1    2
  0.1415547E+02  0.4182165E-09  0.4182165E-09  0.7476210E-09  0.5000000E-15
  1.000000000000000E-004
  CAR 
 unknown system                          
     28     36     24
 
  0.0000000E+00  0.0000000E+00  0.0000000E+00  0.3086420E-02
    1      -42.675227    -42.674836   1.000000   1.000000
    2      -42.646071    -42.645678   1.000000   1.000000
    3      -42.641752    -42.641359   1.000000   1.000000
    4      -42.613312    -42.612918   1.000000   1.000000
    5      -42.303920    -42.303362   1.000000   1.000000
    6      -42.303786    -42.303229   1.000000   1.000000
    7       -6.592144     -6.592299   1.000000   1.000000
    8       -6.191834     -6.191966   1.000000   1.000000
    9       -0.611619     -0.611636   1.000000   1.000000
   10        2.195230      2.195112   1.000000   1.000000
   11        2.360853      2.360729   1.000000   1.000000
   12        2.360871      2.360747   1.000000   1.000000
   13        2.787955      2.787869   1.000000   1.000000
   14        2.787956      2.787870   1.000000   1.000000
   15        5.295801      5.295860   0.000000   0.000000
   16        6.723499      6.723208   0.000000   0.000000
   17        6.728100      6.728060   0.000000   0.000000
   18        6.728103      6.728073   0.000000   0.000000
   19        7.081290      7.081245   0.000000   0.000000
   20        7.081320      7.081288   0.000000   0.000000
   21        7.292932      7.292613   0.000000   0.000000
   22        8.579422      8.579240   0.000000   0.000000
   23        8.579437      8.579248   0.000000   0.000000
   24        8.797737      8.796625   0.000000   0.000000
 
  0.1111111E+00  0.7266948E-17  0.0000000E+00  0.1851852E-01
    1      -42.674103    -42.673712   1.000000   1.000000
    2      -42.645164    -42.644771   1.000000   1.000000
    3      -42.642475    -42.642082   1.000000   1.000000
    4      -42.614164    -42.613769   1.000000   1.000000
    5      -42.304112    -42.303555   1.000000   1.000000
    6      -42.303872    -42.303314   1.000000   1.000000
    7       -6.541480     -6.541638   1.000000   1.000000
    8       -6.156434     -6.156586   1.000000   1.000000
    9       -0.520796     -0.520817   1.000000   1.000000
   10        1.862318      1.862215   1.000000   1.000000
   11        2.097656      2.097550   1.000000   1.000000
   12        2.178278      2.178159   1.000000   1.000000
   13        2.350836      2.350740   1.000000   1.000000
   14        2.697453      2.697360   1.000000   1.000000
   15        5.444082      5.444115   0.000000   0.000000
   16        6.585506      6.585360   0.000000   0.000000
   17        6.958483      6.958349   0.000000   0.000000
   18        7.100360      7.100326   0.000000   0.000000
   19        7.546059      7.545997   0.000000   0.000000
   20        7.661876      7.661730   0.000000   0.000000
   21        7.674446      7.670388   0.000000   0.000000
   22        7.871799      7.871553   0.000000   0.000000
   23        8.150973      8.150835   0.000000   0.000000
   24        8.720271      8.721065   0.000000   0.000000
 
  0.2222222E+00 -0.1540806E-16  0.0000000E+00  0.1851852E-01
    1      -42.671044    -42.670653   1.000000   1.000000
    2      -42.644507    -42.644115   1.000000   1.000000
    3      -42.642614    -42.642221   1.000000   1.000000
    4      -42.616544    -42.616150   1.000000   1.000000
    5      -42.304481    -42.303924   1.000000   1.000000
    6      -42.304167    -42.303609   1.000000   1.000000
    7       -6.401943     -6.402107   1.000000   1.000000
    8       -6.065335     -6.065519   1.000000   1.000000
    9       -0.252150     -0.252180   1.000000   1.000000
   10        0.921522      0.921446   1.000000   1.000000
   11        1.512703      1.512598   1.000000   1.000000
   12        1.635059      1.634970   1.000000   1.000000
   13        2.094414      2.094292   1.000000   1.000000
   14        2.413795      2.413703   1.000000   1.000000
   15        5.535222      5.535222   0.000000   0.000000
   16        6.329866      6.323334   0.000000   0.000000
   17        6.845784      6.845645   0.000000   0.000000
   18        7.107731      7.107595   0.000000   0.000000
   19        7.494605      7.494500   0.000000   0.000000
   20        8.184557      8.184514   0.000000   0.000000
   21        8.630009      8.629909   0.000000   0.000000
   22        8.786241      8.784660   0.000000   0.000000
   23        8.820971      8.820800   0.000000   0.000000
   24        9.243528      9.243294   0.000000   0.000000
 
  0.3333333E+00  0.1961447E-16  0.0000000E+00  0.1851852E-01
    1      -42.666792    -42.666401   1.000000   1.000000
    2      -42.647601    -42.647209   1.000000   1.000000
    3      -42.638964    -42.638571   1.000000   1.000000
    4      -42.620075    -42.619681   1.000000   1.000000
    5      -42.304920    -42.304362   1.000000   1.000000
    6      -42.304547    -42.303989   1.000000   1.000000
    7       -6.214503     -6.214677   1.000000   1.000000
    8       -5.964329     -5.964519   1.000000   1.000000
    9        0.102933      0.102877   1.000000   1.000000
   10        0.178034      0.177987   1.000000   1.000000
   11        0.757429      0.757322   1.000000   1.000000
   12        1.252394      1.252314   1.000000   1.000000
   13        1.852010      1.851895   1.000000   1.000000
   14        2.117619      2.117532   1.000000   1.000000
   15        5.347715      5.347474   0.000000   0.000000
   16        5.600797      5.600787   0.000000   0.000000
   17        6.999394      6.999261   0.000000   0.000000
   18        7.001294      7.001203   0.000000   0.000000
   19        7.482846      7.482695   0.000000   0.000000
   20        8.735086      8.734977   0.000000   0.000000
   21        9.570233      9.569940   0.000000   0.000000
   22        9.774600      9.774546   0.000000   0.000000
   23        9.949144      9.949020   0.000000   0.000000
   24       10.817590     10.824155   0.000000   0.000000
 
  0.4444444E+00 -0.3081611E-16  0.0000000E+00  0.1851852E-01
    1      -42.662909    -42.662518   1.000000   1.000000
    2      -42.650707    -42.650316   1.000000   1.000000
    3      -42.635529    -42.635136   1.000000   1.000000
    4      -42.623374    -42.622980   1.000000   1.000000
    5      -42.305170    -42.304613   1.000000   1.000000
    6      -42.304790    -42.304232   1.000000   1.000000
    7       -6.057284     -6.057469   1.000000   1.000000
    8       -5.914786     -5.914979   1.000000   1.000000
    9       -0.360603     -0.360648   1.000000   1.000000
   10        0.321365      0.321260   1.000000   1.000000
   11        0.710869      0.710789   1.000000   1.000000
   12        1.045754      1.045678   1.000000   1.000000
   13        1.408495      1.408415   1.000000   1.000000
   14        1.944920      1.944836   1.000000   1.000000
   15        4.876600      4.876609   0.000000   0.000000
   16        5.655346      5.655332   0.000000   0.000000
   17        6.746045      6.745960   0.000000   0.000000
   18        7.080218      7.080089   0.000000   0.000000
   19        7.842776      7.842593   0.000000   0.000000
   20        8.613387      8.613331   0.000000   0.000000
   21        9.296945      9.296853   0.000000   0.000000
   22       10.967533     10.967328   0.000000   0.000000
   23       11.679881     11.698021   0.000000   0.000000
   24       11.729585     11.730892   0.000000   0.000000
 
  0.1111111E+00  0.1111111E+00  0.0000000E+00  0.1851852E-01
    1      -42.672021    -42.671630   1.000000   1.000000
    2      -42.643827    -42.643435   1.000000   1.000000
    3      -42.643413    -42.643020   1.000000   1.000000
    4      -42.615776    -42.615381   1.000000   1.000000
    5      -42.304365    -42.303808   1.000000   1.000000
    6      -42.304066    -42.303509   1.000000   1.000000
    7       -6.446198     -6.446360   1.000000   1.000000
    8       -6.092926     -6.093106   1.000000   1.000000
    9       -0.340938     -0.340965   1.000000   1.000000
   10        1.324943      1.324833   1.000000   1.000000
   11        1.424821      1.424762   1.000000   1.000000
   12        1.962055      1.961938   1.000000   1.000000
   13        2.131207      2.131085   1.000000   1.000000
   14        2.423087      2.423004   1.000000   1.000000
   15        5.627380      5.627390   0.000000   0.000000
   16        6.589238      6.585974   0.000000   0.000000
   17        6.945350      6.945187   0.000000   0.000000
   18        6.986798      6.986679   0.000000   0.000000
   19        7.697434      7.697362   0.000000   0.000000
   20        7.735769      7.735674   0.000000   0.000000
   21        7.966102      7.966018   0.000000   0.000000
   22        8.706456      8.706297   0.000000   0.000000
   23        8.868045      8.869735   0.000000   0.000000
   24        8.924819      8.924596   0.000000   0.000000
 
  0.2222222E+00  0.1111111E+00  0.0000000E+00  0.3703704E-01
    1      -42.668326    -42.667935   1.000000   1.000000
    2      -42.646453    -42.646061   1.000000   1.000000
    3      -42.640287    -42.639894   1.000000   1.000000
    4      -42.618772    -42.618378   1.000000   1.000000
    5      -42.304772    -42.304215   1.000000   1.000000
    6      -42.304417    -42.303859   1.000000   1.000000
    7       -6.281097     -6.281268   1.000000   1.000000
    8       -5.995360     -5.995552   1.000000   1.000000
    9        0.009565      0.009525   1.000000   1.000000
   10        0.495544      0.495477   1.000000   1.000000
   11        0.856693      0.856605   1.000000   1.000000
   12        1.362000      1.361899   1.000000   1.000000
   13        1.987941      1.987818   1.000000   1.000000
   14        2.086250      2.086172   1.000000   1.000000
   15        5.422167      5.422311   0.000000   0.000000
   16        5.882177      5.882169   0.000000   0.000000
   17        7.287570      7.287417   0.000000   0.000000
   18        7.336509      7.336366   0.000000   0.000000
   19        7.399368      7.399289   0.000000   0.000000
   20        8.564522      8.564443   0.000000   0.000000
   21        8.888889      8.888753   0.000000   0.000000
   22        8.950108      8.949273   0.000000   0.000000
   23        9.845966      9.845310   0.000000   0.000000
   24       10.601740     10.599075   0.000000   0.000000
 
  0.3333333E+00  0.1111111E+00  0.0000000E+00  0.3703704E-01
    1      -42.664018    -42.663627   1.000000   1.000000
    2      -42.649790    -42.649398   1.000000   1.000000
    3      -42.636477    -42.636084   1.000000   1.000000
    4      -42.622471    -42.622076   1.000000   1.000000
    5      -42.305141    -42.304583   1.000000   1.000000
    6      -42.304714    -42.304156   1.000000   1.000000
    7       -6.102755     -6.102937   1.000000   1.000000
    8       -5.919240     -5.919434   1.000000   1.000000
    9       -0.140066     -0.140114   1.000000   1.000000
   10        0.431352      0.431247   1.000000   1.000000
   11        0.499479      0.499415   1.000000   1.000000
   12        0.934263      0.934185   1.000000   1.000000
   13        1.666909      1.666802   1.000000   1.000000
   14        1.842018      1.841943   1.000000   1.000000
   15        4.648165      4.648247   0.000000   0.000000
   16        6.052903      6.052885   0.000000   0.000000
   17        7.228546      7.228475   0.000000   0.000000
   18        7.454026      7.453885   0.000000   0.000000
   19        7.751271      7.751099   0.000000   0.000000
   20        8.771778      8.771702   0.000000   0.000000
   21        9.421254      9.421200   0.000000   0.000000
   22        9.912287      9.912135   0.000000   0.000000
   23       10.489865     10.490262   0.000000   0.000000
   24       11.052819     10.929813   0.000000   0.000000
 
  0.4444444E+00  0.1111111E+00  0.0000000E+00  0.1851852E-01
    1      -42.661521    -42.661130   1.000000   1.000000
    2      -42.651933    -42.651541   1.000000   1.000000
    3      -42.634245    -42.633851   1.000000   1.000000
    4      -42.624654    -42.624260   1.000000   1.000000
    5      -42.305251    -42.304693   1.000000   1.000000
    6      -42.304878    -42.304320   1.000000   1.000000
    7       -6.010021     -6.010209   1.000000   1.000000
    8       -5.904224     -5.904418   1.000000   1.000000
    9       -0.371742     -0.371784   1.000000   1.000000
   10        0.258202      0.258093   1.000000   1.000000
   11        0.796776      0.796705   1.000000   1.000000
   12        0.932463      0.932355   1.000000   1.000000
   13        1.289005      1.288941   1.000000   1.000000
   14        1.754156      1.754082   1.000000   1.000000
   15        4.388966      4.389061   0.000000   0.000000
   16        6.116611      6.116591   0.000000   0.000000
   17        7.188434      7.188379   0.000000   0.000000
   18        7.507223      7.507086   0.000000   0.000000
   19        7.976154      7.976091   0.000000   0.000000
   20        8.635435      8.635370   0.000000   0.000000
   21        9.245844      9.245750   0.000000   0.000000
   22       10.565852     10.565752   0.000000   0.000000
   23       11.024066     11.020276   0.000000   0.000000
   24       11.479372     11.483888   0.000000   0.000000
 
  0.2222222E+00  0.2222222E+00  0.0000000E+00  0.1851852E-01
    1      -42.664415    -42.664024   1.000000   1.000000
    2      -42.649466    -42.649074   1.000000   1.000000
    3      -42.636804    -42.636411   1.000000   1.000000
    4      -42.622132    -42.621738   1.000000   1.000000
    5      -42.305111    -42.304553   1.000000   1.000000
    6      -42.304683    -42.304125   1.000000   1.000000
    7       -6.120974     -6.121154   1.000000   1.000000
    8       -5.920507     -5.920702   1.000000   1.000000
    9        0.178513      0.178484   1.000000   1.000000
   10        0.268930      0.268820   1.000000   1.000000
   11        0.423682      0.423622   1.000000   1.000000
   12        0.876969      0.876868   1.000000   1.000000
   13        1.698703      1.698641   1.000000   1.000000
   14        1.802186      1.802063   1.000000   1.000000
   15        4.429658      4.429758   0.000000   0.000000
   16        6.594996      6.594978   0.000000   0.000000
   17        7.588768      7.588695   0.000000   0.000000
   18        7.785224      7.785113   0.000000   0.000000
   19        8.073212      8.073038   0.000000   0.000000
   20        8.746003      8.745995   0.000000   0.000000
   21        9.157108      9.157051   0.000000   0.000000
   22        9.197183      9.197340   0.000000   0.000000
   23       10.092843     10.099354   0.000000   0.000000
   24       10.431393     10.576160   0.000000   0.000000
 
  0.3333333E+00  0.2222222E+00  0.0000000E+00  0.3703704E-01
    1      -42.660444    -42.660053   1.000000   1.000000
    2      -42.652894    -42.652503   1.000000   1.000000
    3      -42.633167    -42.632773   1.000000   1.000000
    4      -42.625721    -42.625327   1.000000   1.000000
    5      -42.305343    -42.304785   1.000000   1.000000
    6      -42.304891    -42.304334   1.000000   1.000000
    7       -5.985895     -5.986084   1.000000   1.000000
    8       -5.889949     -5.890144   1.000000   1.000000
    9       -0.175806     -0.175842   1.000000   1.000000
   10        0.192219      0.192112   1.000000   1.000000
   11        0.455426      0.455342   1.000000   1.000000
   12        0.918116      0.918024   1.000000   1.000000
   13        1.484024      1.483967   1.000000   1.000000
   14        1.494137      1.494029   1.000000   1.000000
   15        3.815729      3.815849   0.000000   0.000000
   16        7.126545      7.126524   0.000000   0.000000
   17        7.905041      7.904963   0.000000   0.000000
   18        8.122433      8.122251   0.000000   0.000000
   19        8.514501      8.514321   0.000000   0.000000
   20        8.866679      8.866595   0.000000   0.000000
   21        9.269891      9.269627   0.000000   0.000000
   22        9.411350      9.411267   0.000000   0.000000
   23        9.886396      9.886326   0.000000   0.000000
   24       10.483780     10.497316   0.000000   0.000000
 
  0.3333333E+00  0.3333333E+00  0.0000000E+00  0.6172840E-02
    1      -42.656581    -42.656190   1.000000   1.000000
    2      -42.656569    -42.656178   1.000000   1.000000
    3      -42.629444    -42.629050   1.000000   1.000000
    4      -42.629432    -42.629038   1.000000   1.000000
    5      -42.305428    -42.304871   1.000000   1.000000
    6      -42.304965    -42.304407   1.000000   1.000000
    7       -5.907874     -5.908067   1.000000   1.000000
    8       -5.907869     -5.908063   1.000000   1.000000
    9       -0.066596     -0.066577   1.000000   1.000000
   10        0.127235      0.127113   1.000000   1.000000
   11        0.127242      0.127119   1.000000   1.000000
   12        1.285099      1.284986   1.000000   1.000000
   13        1.285116      1.285001   1.000000   1.000000
   14        1.330666      1.330618   1.000000   1.000000
   15        3.437279      3.437429   0.000000   0.000000
   16        8.353911      8.354000   0.000000   0.000000
   17        8.362519      8.362302   0.000000   0.000000
   18        8.362879      8.366491   0.000000   0.000000
   19        8.654237      8.654141   0.000000   0.000000
   20        8.654255      8.654174   0.000000   0.000000
   21        9.281593      9.281254   0.000000   0.000000
   22        9.648939      9.648686   0.000000   0.000000
   23        9.659663      9.681629   0.000000   0.000000
   24        9.934380      9.934312   0.000000   0.000000
 
  0.0000000E+00  0.0000000E+00  0.2500000E+00  0.6172840E-02
    1      -42.672837    -42.672446   1.000000   1.000000
    2      -42.655949    -42.655557   1.000000   1.000000
    3      -42.632012    -42.631618   1.000000   1.000000
    4      -42.615611    -42.615216   1.000000   1.000000
    5      -42.303938    -42.303380   1.000000   1.000000
    6      -42.303794    -42.303236   1.000000   1.000000
    7       -6.540676     -6.540835   1.000000   1.000000
    8       -6.258981     -6.259114   1.000000   1.000000
    9       -0.324528     -0.324555   1.000000   1.000000
   10        1.522853      1.522765   1.000000   1.000000
   11        2.421881      2.421761   1.000000   1.000000
   12        2.421898      2.421778   1.000000   1.000000
   13        2.725093      2.725001   1.000000   1.000000
   14        2.725099      2.725005   1.000000   1.000000
   15        6.017682      6.017690   0.000000   0.000000
   16        6.630650      6.630611   0.000000   0.000000
   17        6.630662      6.630634   0.000000   0.000000
   18        6.904800      6.904763   0.000000   0.000000
   19        6.904830      6.904804   0.000000   0.000000
   20        6.966631      6.966352   0.000000   0.000000
   21        7.109144      7.108877   0.000000   0.000000
   22        8.721470      8.721144   0.000000   0.000000
   23        9.162981      9.162809   0.000000   0.000000
   24        9.163002      9.162824   0.000000   0.000000
 
  0.1111111E+00  0.7266948E-17  0.2500000E+00  0.3703704E-01
    1      -42.671804    -42.671413   1.000000   1.000000
    2      -42.655396    -42.655005   1.000000   1.000000
    3      -42.632367    -42.631974   1.000000   1.000000
    4      -42.616416    -42.616022   1.000000   1.000000
    5      -42.304095    -42.303538   1.000000   1.000000
    6      -42.303926    -42.303368   1.000000   1.000000
    7       -6.491697     -6.491857   1.000000   1.000000
    8       -6.220643     -6.220795   1.000000   1.000000
    9       -0.244886     -0.244915   1.000000   1.000000
   10        1.500690      1.500611   1.000000   1.000000
   11        1.957026      1.956915   1.000000   1.000000
   12        2.175295      2.175190   1.000000   1.000000
   13        2.328616      2.328511   1.000000   1.000000
   14        2.597995      2.597899   1.000000   1.000000
   15        5.949625      5.949646   0.000000   0.000000
   16        6.613260      6.613122   0.000000   0.000000
   17        6.931069      6.931005   0.000000   0.000000
   18        6.989846      6.989803   0.000000   0.000000
   19        7.350846      7.350702   0.000000   0.000000
   20        7.358708      7.358654   0.000000   0.000000
   21        7.715364      7.715173   0.000000   0.000000
   22        8.428997      8.428899   0.000000   0.000000
   23        8.784885      8.784747   0.000000   0.000000
   24        9.068238      9.067849   0.000000   0.000000
 
  0.2222222E+00 -0.1540806E-16  0.2500000E+00  0.3703704E-01
    1      -42.668928    -42.668537   1.000000   1.000000
    2      -42.654042    -42.653650   1.000000   1.000000
    3      -42.633150    -42.632757   1.000000   1.000000
    4      -42.618608    -42.618214   1.000000   1.000000
    5      -42.304440    -42.303882   1.000000   1.000000
    6      -42.304221    -42.303664   1.000000   1.000000
    7       -6.357610     -6.357777   1.000000   1.000000
    8       -6.120359     -6.120536   1.000000   1.000000
    9       -0.026106     -0.026142   1.000000   1.000000
   10        0.958897      0.958831   1.000000   1.000000
   11        1.322947      1.322843   1.000000   1.000000
   12        1.728428      1.728338   1.000000   1.000000
   13        1.821001      1.820883   1.000000   1.000000
   14        2.272495      2.272404   1.000000   1.000000
   15        5.585698      5.585711   0.000000   0.000000
   16        6.258718      6.258623   0.000000   0.000000
   17        7.154725      7.154600   0.000000   0.000000
   18        7.371458      7.371390   0.000000   0.000000
   19        7.633908      7.633818   0.000000   0.000000
   20        8.406267      8.406178   0.000000   0.000000
   21        8.534098      8.533926   0.000000   0.000000
   22        8.609437      8.609375   0.000000   0.000000
   23        9.154190      9.154031   0.000000   0.000000
   24        9.605061      9.604775   0.000000   0.000000
 
  0.3333333E+00  0.1961447E-16  0.2500000E+00  0.3703704E-01
    1      -42.665051    -42.664660   1.000000   1.000000
    2      -42.653079    -42.652687   1.000000   1.000000
    3      -42.633524    -42.633131   1.000000   1.000000
    4      -42.621752    -42.621358   1.000000   1.000000
    5      -42.304856    -42.304298   1.000000   1.000000
    6      -42.304591    -42.304034   1.000000   1.000000
    7       -6.180378     -6.180554   1.000000   1.000000
    8       -6.003736     -6.003913   1.000000   1.000000
    9        0.039682      0.039630   1.000000   1.000000
   10        0.351090      0.351038   1.000000   1.000000
   11        0.761277      0.761171   1.000000   1.000000
   12        1.353023      1.352942   1.000000   1.000000
   13        1.726428      1.726301   1.000000   1.000000
   14        1.954910      1.954825   1.000000   1.000000
   15        5.071753      5.071813   0.000000   0.000000
   16        5.674124      5.674134   0.000000   0.000000
   17        7.135145      7.135022   0.000000   0.000000
   18        7.416515      7.416419   0.000000   0.000000
   19        7.701177      7.701088   0.000000   0.000000
   20        8.503240      8.503241   0.000000   0.000000
   21        9.496456      9.496316   0.000000   0.000000
   22        9.942680      9.942288   0.000000   0.000000
   23       10.095481     10.095437   0.000000   0.000000
   24       11.107656     11.112264   0.000000   0.000000
 
  0.4444444E+00 -0.3081611E-16  0.2500000E+00  0.3703704E-01
    1      -42.661642    -42.661251   1.000000   1.000000
    2      -42.653445    -42.653053   1.000000   1.000000
    3      -42.632837    -42.632444   1.000000   1.000000
    4      -42.624671    -42.624277   1.000000   1.000000
    5      -42.305139    -42.304581   1.000000   1.000000
    6      -42.304859    -42.304301   1.000000   1.000000
    7       -6.036794     -6.036980   1.000000   1.000000
    8       -5.936021     -5.936213   1.000000   1.000000
    9       -0.345451     -0.345496   1.000000   1.000000
   10        0.079906      0.079832   1.000000   1.000000
   11        0.969771      0.969669   1.000000   1.000000
   12        1.149180      1.149103   1.000000   1.000000
   13        1.522311      1.522205   1.000000   1.000000
   14        1.773612      1.773530   1.000000   1.000000
   15        4.680201      4.680284   0.000000   0.000000
   16        5.402166      5.402177   0.000000   0.000000
   17        7.182552      7.182423   0.000000   0.000000
   18        7.199050      7.198959   0.000000   0.000000
   19        7.726690      7.726608   0.000000   0.000000
   20        8.411206      8.411047   0.000000   0.000000
   21        9.899712      9.899559   0.000000   0.000000
   22       10.641262     10.641242   0.000000   0.000000
   23       10.827070     10.826874   0.000000   0.000000
   24       11.851580     11.850168   0.000000   0.000000
 
  0.1111111E+00  0.1111111E+00  0.2500000E+00  0.3703704E-01
    1      -42.669860    -42.669469   1.000000   1.000000
    2      -42.654431    -42.654039   1.000000   1.000000
    3      -42.632931    -42.632538   1.000000   1.000000
    4      -42.617891    -42.617496   1.000000   1.000000
    5      -42.304337    -42.303780   1.000000   1.000000
    6      -42.304127    -42.303569   1.000000   1.000000
    7       -6.399974     -6.400139   1.000000   1.000000
    8       -6.151084     -6.151257   1.000000   1.000000
    9       -0.093752     -0.093786   1.000000   1.000000
   10        1.271845      1.271786   1.000000   1.000000
   11        1.405986      1.405874   1.000000   1.000000
   12        1.788743      1.788641   1.000000   1.000000
   13        1.977326      1.977206   1.000000   1.000000
   14        2.284451      2.284373   1.000000   1.000000
   15        5.898129      5.898141   0.000000   0.000000
   16        6.598857      6.598888   0.000000   0.000000
   17        6.929939      6.929777   0.000000   0.000000
   18        6.989536      6.989424   0.000000   0.000000
   19        7.794492      7.794437   0.000000   0.000000
   20        7.881711      7.881649   0.000000   0.000000
   21        8.432512      8.432425   0.000000   0.000000
   22        8.576769      8.576604   0.000000   0.000000
   23        9.033361      9.033185   0.000000   0.000000
   24        9.265103      9.265007   0.000000   0.000000
 
  0.2222222E+00  0.1111111E+00  0.2500000E+00  0.7407407E-01
    1      -42.666438    -42.666047   1.000000   1.000000
    2      -42.653271    -42.652879   1.000000   1.000000
    3      -42.633520    -42.633127   1.000000   1.000000
    4      -42.620619    -42.620225   1.000000   1.000000
    5      -42.304722    -42.304165   1.000000   1.000000
    6      -42.304475    -42.303917   1.000000   1.000000
    7       -6.242703     -6.242874   1.000000   1.000000
    8       -6.041081     -6.041268   1.000000   1.000000
    9        0.131084      0.131038   1.000000   1.000000
   10        0.568459      0.568404   1.000000   1.000000
   11        0.871188      0.871080   1.000000   1.000000
   12        1.374489      1.374404   1.000000   1.000000
   13        1.771250      1.771128   1.000000   1.000000
   14        1.908606      1.908531   1.000000   1.000000
   15        5.511438      5.511495   0.000000   0.000000
   16        5.939401      5.939400   0.000000   0.000000
   17        7.124651      7.124522   0.000000   0.000000
   18        7.349984      7.349829   0.000000   0.000000
   19        8.214189      8.214072   0.000000   0.000000
   20        8.395329      8.395258   0.000000   0.000000
   21        8.758534      8.758429   0.000000   0.000000
   22        9.010852      9.010889   0.000000   0.000000
   23        9.746445      9.748529   0.000000   0.000000
   24       10.683985     10.695721   0.000000   0.000000
 
  0.3333333E+00  0.1111111E+00  0.2500000E+00  0.7407407E-01
    1      -42.662565    -42.662174   1.000000   1.000000
    2      -42.653193    -42.652801   1.000000   1.000000
    3      -42.633133    -42.632739   1.000000   1.000000
    4      -42.623866    -42.623472   1.000000   1.000000
    5      -42.305086    -42.304528   1.000000   1.000000
    6      -42.304772    -42.304215   1.000000   1.000000
    7       -6.076957     -6.077140   1.000000   1.000000
    8       -5.947251     -5.947442   1.000000   1.000000
    9       -0.139355     -0.139407   1.000000   1.000000
   10        0.208402      0.208329   1.000000   1.000000
   11        0.831010      0.830915   1.000000   1.000000
   12        1.012836      1.012763   1.000000   1.000000
   13        1.632396      1.632314   1.000000   1.000000
   14        1.662008      1.661899   1.000000   1.000000
   15        4.799040      4.799109   0.000000   0.000000
   16        5.783732      5.783739   0.000000   0.000000
   17        7.082553      7.082444   0.000000   0.000000
   18        7.534741      7.534598   0.000000   0.000000
   19        8.056436      8.056334   0.000000   0.000000
   20        8.728748      8.728602   0.000000   0.000000
   21        9.073051      9.072964   0.000000   0.000000
   22       10.027544     10.027440   0.000000   0.000000
   23       10.634346     10.633977   0.000000   0.000000
   24       10.838391     10.839386   0.000000   0.000000
 
  0.4444444E+00  0.1111111E+00  0.2500000E+00  0.3703704E-01
    1      -42.660447    -42.660056   1.000000   1.000000
    2      -42.653848    -42.653456   1.000000   1.000000
    3      -42.632319    -42.631926   1.000000   1.000000
    4      -42.625727    -42.625333   1.000000   1.000000
    5      -42.305206    -42.304648   1.000000   1.000000
    6      -42.304916    -42.304358   1.000000   1.000000
    7       -5.994448     -5.994637   1.000000   1.000000
    8       -5.919605     -5.919798   1.000000   1.000000
    9       -0.351215     -0.351261   1.000000   1.000000
   10        0.052268      0.052185   1.000000   1.000000
   11        0.876290      0.876224   1.000000   1.000000