 running on    8 total cores
 distrk:  each k-point on    8 cores,    1 groups
 distr:  one band on    1 cores,    8 groups
 using from now: INCAR     
 vasp.6.1.2 22Jul20 (build Mar 20 2021 11:25:07) complex                        
  
 POSCAR found type information on POSCAR LiP 
 POSCAR found :  2 types and       8 ions
 scaLAPACK will be used
 -----------------------------------------------------------------------------
|                                                                             |
|           W    W    AA    RRRRR   N    N  II  N    N   GGGG   !!!           |
|           W    W   A  A   R    R  NN   N  II  NN   N  G    G  !!!           |
|           W    W  A    A  R    R  N N  N  II  N N  N  G       !!!           |
|           W WW W  AAAAAA  RRRRR   N  N N  II  N  N N  G  GGG   !            |
|           WW  WW  A    A  R   R   N   NN  II  N   NN  G    G                |
|           W    W  A    A  R    R  N    N  II  N    N   GGGG   !!!           |
|                                                                             |
|     The value NCORE = 6 specified in the INCAR file was overwritten,        |
|     because it was not compatible with the 8 processes available:           |
|     NCORE = 1                                                               |
|     was used instead, please check that this makes sense for your           |
|     machine.                                                                |
|                                                                             |
 -----------------------------------------------------------------------------

 -----------------------------------------------------------------------------
|                                                                             |
|           W    W    AA    RRRRR   N    N  II  N    N   GGGG   !!!           |
|           W    W   A  A   R    R  NN   N  II  NN   N  G    G  !!!           |
|           W    W  A    A  R    R  N N  N  II  N N  N  G       !!!           |
|           W WW W  AAAAAA  RRRRR   N  N N  II  N  N N  G  GGG   !            |
|           WW  WW  A    A  R   R   N   NN  II  N   NN  G    G                |
|           W    W  A    A  R    R  N    N  II  N    N   GGGG   !!!           |
|                                                                             |
|     For optimal performance we recommend to set                             |
|       NCORE = 4 - approx SQRT(number of cores).                             |
|     NCORE specifies how many cores store one orbital (NPAR=cpu/NCORE).      |
|     This setting can greatly improve the performance of VASP for DFT.       |
|     The default, NCORE=1 might be grossly inefficient on modern             |
|     multi-core architectures or massively parallel machines. Do your        |
|     own testing!!!!                                                         |
|     Unfortunately you need to use the default for GW and RPA                |
|     calculations (for HF NCORE is supported but not extensively tested      |
|     yet).                                                                   |
|                                                                             |
 -----------------------------------------------------------------------------

 -----------------------------------------------------------------------------
|                                                                             |
|               ----> ADVICE to this user running VASP <----                  |
|                                                                             |
|     You have a (more or less) 'small supercell' and for smaller cells       |
|     it is recommended to use the reciprocal-space projection scheme!        |
|     The real-space optimization is not efficient for small cells and it     |
|     is also less accurate ...                                               |
|     Therefore, set LREAL=.FALSE. in the INCAR file.                         |
|                                                                             |
 -----------------------------------------------------------------------------

 LDA part: xc-table for Pade appr. of Perdew
 -----------------------------------------------------------------------------
|                                                                             |
|           W    W    AA    RRRRR   N    N  II  N    N   GGGG   !!!           |
|           W    W   A  A   R    R  NN   N  II  NN   N  G    G  !!!           |
|           W    W  A    A  R    R  N N  N  II  N N  N  G       !!!           |
|           W WW W  AAAAAA  RRRRR   N  N N  II  N  N N  G  GGG   !            |
|           WW  WW  A    A  R   R   N   NN  II  N   NN  G    G                |
|           W    W  A    A  R    R  N    N  II  N    N   GGGG   !!!           |
|                                                                             |
|     The determination of the symmetry of your systems shows a strong        |
|     dependence on the tolerance parameter SYMPREC. This is often the        |
|     result of "noise" in the structural parameters (lattice vectors         |
|     and/or ionic positions). Set NWRITE=3 for more details.                 |
|                                                                             |
 -----------------------------------------------------------------------------

 generate k-points for:    9    9    4
 POSCAR, INCAR and KPOINTS ok, starting setup
 FFT: planning ...
 WAVECAR not read
 entering main loop
       N       E                     dE             d eps       ncg     rms          rms(c)
DAV:   1     0.160360204332E+03    0.16036E+03   -0.11809E+04  3456   0.119E+03
DAV:   2     0.193698466343E+01   -0.15842E+03   -0.14960E+03  3808   0.303E+02
DAV:   3    -0.239445557692E+02   -0.25882E+02   -0.25648E+02  6288   0.704E+01
DAV:   4    -0.264644277381E+02   -0.25199E+01   -0.25033E+01  5016   0.302E+01
DAV:   5    -0.266408602262E+02   -0.17643E+00   -0.17642E+00  5504   0.622E+00    0.149E+01
RMM:   6    -0.271296718504E+02   -0.48881E+00   -0.16055E+00  4173   0.628E+00    0.759E+00
RMM:   7    -0.278243145417E+02   -0.69464E+00   -0.48673E-01  4626   0.425E+00    0.291E+00
RMM:   8    -0.278909561015E+02   -0.66642E-01   -0.39226E-01  5340   0.287E+00    0.121E+00
RMM:   9    -0.278997817601E+02   -0.88257E-02   -0.95857E-02  5620   0.169E+00    0.530E-01
RMM:  10    -0.279081345554E+02   -0.83528E-02   -0.41882E-02  5910   0.996E-01    0.269E-01
RMM:  11    -0.279101748674E+02   -0.20403E-02   -0.14896E-02  6005   0.572E-01    0.199E-01
RMM:  12    -0.279109113939E+02   -0.73653E-03   -0.53032E-03  5853   0.435E-01    0.513E-02
RMM:  13    -0.279114601725E+02   -0.54878E-03   -0.30948E-03  6068   0.262E-01    0.175E-02
RMM:  14    -0.279116438886E+02   -0.18372E-03   -0.14627E-03  5951   0.165E-01    0.214E-02
RMM:  15    -0.279117212459E+02   -0.77357E-04   -0.66760E-04  5255   0.108E-01    0.190E-02
RMM:  16    -0.279117581656E+02   -0.36920E-04   -0.33700E-04  5163   0.771E-02    0.260E-02
WARNING in EDDRMM: call to ZHEGV failed, returncode =   6  3      2
RMM:  17    -0.279117731874E+02   -0.15022E-04   -0.18342E-04  5006   0.638E-02    0.159E-02
RMM:  18    -0.279117848057E+02   -0.11618E-04   -0.10751E-04  4583   0.467E-02    0.144E-02
RMM:  19    -0.279117908858E+02   -0.60801E-05   -0.68912E-05  4209   0.390E-02
   1 F= -.27911791E+02 E0= -.27911791E+02  d E =0.000000E+00  mag=    -0.0001
