 running on   48 total cores
 distrk:  each k-point on   48 cores,    1 groups
 distr:  one band on    6 cores,    8 groups
 using from now: INCAR     
 vasp.6.1.2 22Jul20 (build Mar 31 2021 18:09:49) complex                        
  
 POSCAR found type information on POSCAR LiP 
 POSCAR found :  2 types and      64 ions
 scaLAPACK will be used
 LDA part: xc-table for Pade appr. of Perdew
 -----------------------------------------------------------------------------
|                                                                             |
|           W    W    AA    RRRRR   N    N  II  N    N   GGGG   !!!           |
|           W    W   A  A   R    R  NN   N  II  NN   N  G    G  !!!           |
|           W    W  A    A  R    R  N N  N  II  N N  N  G       !!!           |
|           W WW W  AAAAAA  RRRRR   N  N N  II  N  N N  G  GGG   !            |
|           WW  WW  A    A  R   R   N   NN  II  N   NN  G    G                |
|           W    W  A    A  R    R  N    N  II  N    N   GGGG   !!!           |
|                                                                             |
|     The determination of the symmetry of your systems shows a strong        |
|     dependence on the tolerance parameter SYMPREC. This is often the        |
|     result of "noise" in the structural parameters (lattice vectors         |
|     and/or ionic positions). Set NWRITE=3 for more details.                 |
|                                                                             |
 -----------------------------------------------------------------------------

 generate k-points for:    3    3    3
 POSCAR, INCAR and KPOINTS ok, starting setup
 FFT: planning ...
 WAVECAR not read
 entering main loop
       N       E                     dE             d eps       ncg     rms          rms(c)
DAV:   1     0.157585149972E+04    0.15759E+04   -0.12038E+05  8448   0.128E+03
DAV:   2    -0.113708492967E+03   -0.16896E+04   -0.15842E+04  9912   0.246E+02
DAV:   3    -0.298611743487E+03   -0.18490E+03   -0.18117E+03 10592   0.835E+01
DAV:   4    -0.313058910893E+03   -0.14447E+02   -0.14362E+02 13616   0.205E+01
DAV:   5    -0.316151489947E+03   -0.30926E+01   -0.30896E+01 14888   0.578E+00    0.423E+01
DAV:   6    -0.314938956931E+03    0.12125E+01   -0.12632E+01  9848   0.652E+00    0.243E+01
DAV:   7    -0.316871560453E+03   -0.19326E+01   -0.58141E+00  9824   0.435E+00    0.139E+01
DAV:   8    -0.318941042644E+03   -0.20695E+01   -0.32323E+00  9512   0.326E+00    0.297E+00
DAV:   9    -0.319049032764E+03   -0.10799E+00   -0.36634E-01 10528   0.125E+00    0.165E+00
DAV:  10    -0.319068641913E+03   -0.19609E-01   -0.85128E-02 10936   0.568E-01    0.685E-01
DAV:  11    -0.319074793359E+03   -0.61514E-02   -0.13332E-02 10032   0.269E-01    0.269E-01
DAV:  12    -0.319077121022E+03   -0.23277E-02   -0.32896E-03 10728   0.129E-01    0.138E-01
DAV:  13    -0.319078327026E+03   -0.12060E-02   -0.88841E-04 10704   0.654E-02    0.600E-02
DAV:  14    -0.319078893256E+03   -0.56623E-03   -0.38646E-04  9960   0.376E-02    0.374E-02
DAV:  15    -0.319079066110E+03   -0.17285E-03   -0.14749E-04  9688   0.218E-02    0.208E-02
DAV:  16    -0.319079121550E+03   -0.55439E-04   -0.47656E-05  8472   0.133E-02    0.976E-03
DAV:  17    -0.319079135452E+03   -0.13902E-04   -0.16444E-05  7552   0.843E-03    0.504E-03
DAV:  18    -0.319079137697E+03   -0.22452E-05   -0.30137E-06  6248   0.404E-03
   1 F= -.31907914E+03 E0= -.31907914E+03  d E =0.000000E+00  mag=    -0.0000
