    1    1    1    2
  0.1851104E+02  0.2730294E-09  0.2967711E-09  0.2967711E-09  0.5000000E-15
  1.000000000000000E-004
  CAR 
 unknown system                          
      3    644      6
 
  0.0000000E+00  0.0000000E+00  0.0000000E+00  0.4226543E-03
    1      -45.513436    -45.511966   1.000000   1.000000
    2       -2.783981     -2.784026   1.000000   1.000000
    3       15.677744     15.677325   0.000000   0.000000
    4       15.808720     15.808275   0.000000   0.000000
    5       17.512609     17.512069   0.000000   0.000000
    6       20.488916     20.489105   0.000000   0.000000
 
  0.7142857E-01 -0.6535609E-18  0.6535609E-18  0.8453085E-03
    1      -45.511569    -45.510099   1.000000   1.000000
    2       -2.672252     -2.672300   1.000000   1.000000
    3       15.355322     15.354952   0.000000   0.000000
    4       15.504449     15.504027   0.000000   0.000000
    5       16.901721     16.901406   0.000000   0.000000
    6       19.475676     19.475627   0.000000   0.000000
 
  0.1428571E+00  0.6634553E-17 -0.6634553E-17  0.8453085E-03
    1      -45.506487    -45.505016   1.000000   1.000000
    2       -2.336715     -2.336778   1.000000   1.000000
    3       14.300778     14.300497   0.000000   0.000000
    4       14.987936     14.987508   0.000000   0.000000
    5       15.419094     15.419455   0.000000   0.000000
    6       18.235406     18.235466   0.000000   0.000000
 
  0.2142857E+00  0.4986680E-17 -0.4986680E-17  0.8453085E-03
    1      -45.499165    -45.497693   1.000000   1.000000
    2       -1.775691     -1.775773   1.000000   1.000000
    3       12.909732     12.910077   0.000000   0.000000
    4       13.260706     13.260799   0.000000   0.000000
    5       14.273273     14.272838   0.000000   0.000000
    6       16.965114     16.965162   0.000000   0.000000
 
  0.2857143E+00 -0.8550356E-17  0.8550356E-17  0.8453085E-03
    1      -45.490954    -45.489481   1.000000   1.000000
    2       -0.991352     -0.991464   1.000000   1.000000
    3       10.364953     10.365306   0.000000   0.000000
    4       12.252786     12.252607   0.000000   0.000000
    5       13.581914     13.581467   0.000000   0.000000
    6       15.867002     15.867052   0.000000   0.000000
 
  0.3571429E+00  0.5668183E-17 -0.5668183E-17  0.8453085E-03
    1      -45.483535    -45.482060   1.000000   1.000000
    2       -0.006059     -0.006206   1.049774   1.049748
    3        8.002814      8.002656   0.000000   0.000000
    4       11.543461     11.543275   0.000000   0.000000
    5       13.043812     13.043350   0.000000   0.000000
    6       15.047379     15.047438   0.000000   0.000000
 
  0.4285714E+00  0.9973361E-17 -0.9973361E-17  0.8453085E-03
    1      -45.478423    -45.476947   1.000000   1.000000
    2        1.070180      1.069985   0.250047   0.250248
    3        6.079084      6.078965   0.000000   0.000000
    4       11.112267     11.112082   0.000000   0.000000
    5       12.710543     12.710068   0.000000   0.000000
    6       14.544067     14.544137   0.000000   0.000000
 
  0.5000000E+00  0.2419190E-16 -0.2419190E-16  0.4226543E-03
    1      -45.476579    -45.475103   1.000000   1.000000
    2        1.694045      1.693806   0.000000   0.000000
    3        5.170290      5.170211   0.000000   0.000000
    4       10.967705     10.967521   0.000000   0.000000
    5       12.598414     12.597934   0.000000   0.000000
    6       14.374413     14.374487   0.000000   0.000000
 
 -0.4530382E-17  0.7692308E-01  0.8182181E-15  0.1690617E-02
    1      -45.512061    -45.510591   1.000000   1.000000
    2       -2.675047     -2.675096   1.000000   1.000000
    3       14.806057     14.805795   0.000000   0.000000
    4       15.207769     15.207383   0.000000   0.000000
    5       17.286355     17.285833   0.000000   0.000000
    6       18.823155     18.822975   0.000000   0.000000
 
  0.7142857E-01  0.7692308E-01  0.8456329E-15  0.1690617E-02
    1      -45.508946    -45.507475   1.000000   1.000000
    2       -2.453130     -2.453189   1.000000   1.000000
    3       13.739164     13.738991   0.000000   0.000000
    4       14.621641     14.621293   0.000000   0.000000
    5       16.504341     16.504032   0.000000   0.000000
    6       18.344496     18.344343   0.000000   0.000000
 
  0.1428571E+00  0.7692308E-01  0.8254613E-15  0.1690617E-02
    1      -45.502956    -45.501484   1.000000   1.000000
    2       -2.005493     -2.005568   1.000000   1.000000
    3       12.612567     12.612393   0.000000   0.000000
    4       13.823112     13.822806   0.000000   0.000000
    5       14.393022     14.393273   0.000000   0.000000
    6       18.146185     18.146166   0.000000   0.000000
 
  0.2142857E+00  0.7692308E-01  0.8112428E-15  0.1690617E-02
    1      -45.495256    -45.493783   1.000000   1.000000
    2       -1.330806     -1.330907   1.000000   1.000000
    3       11.243308     11.243049   0.000000   0.000000
    4       12.241210     12.241223   0.000000   0.000000
    5       13.019730     13.019426   0.000000   0.000000
    6       17.691167     17.691489   0.000000   0.000000
 
  0.2857143E+00  0.7692308E-01  0.8010015E-15  0.1690617E-02
    1      -45.487425    -45.485950   1.000000   1.000000
    2       -0.437179     -0.437311   1.006744   1.006732
    3        9.042549      9.042345   0.000000   0.000000
    4       11.244328     11.244256   0.000000   0.000000
    5       12.362485     12.362180   0.000000   0.000000
    6       16.910527     16.910877   0.000000   0.000000
 
  0.3571429E+00  0.7692308E-01  0.7867829E-15  0.1690617E-02
    1      -45.480970    -45.479495   1.000000   1.000000
    2        0.628596      0.628426   0.755050   0.755239
    3        6.926304      6.926129   0.000000   0.000000
    4       10.727065     10.726959   0.000000   0.000000
    5       11.933115     11.932802   0.000000   0.000000
    6       16.269754     16.269926   0.000000   0.000000
 
  0.4285714E+00  0.7692308E-01  0.8895228E-15  0.1690617E-02
    1      -45.477176    -45.475699   1.000000   1.000000
    2        1.618506      1.618282  -0.042505  -0.042508
    3        5.400597      5.400476   0.000000   0.000000
    4       10.502002     10.501883   0.000000   0.000000
    5       11.766183     11.765859   0.000000   0.000000
    6       15.863367     15.863535   0.000000   0.000000
 
  0.5000000E+00  0.7692308E-01  0.8753043E-15  0.1690617E-02
    1      -45.476808    -45.475332   1.000000   1.000000
    2        1.613199      1.612974  -0.021048  -0.021070
    3        5.426057      5.425942   0.000000   0.000000
    4       10.556075     10.555954   0.000000   0.000000
    5       11.873872     11.873534   0.000000   0.000000
    6       15.725221     15.725373   0.000000   0.000000
 
 -0.4285714E+00  0.7692308E-01  0.7469133E-15  0.1690617E-02
    1      -45.479922    -45.478447   1.000000   1.000000
    2        0.625267      0.625095   0.782170   0.782389
    3        6.995662      6.995504   0.000000   0.000000
    4       10.889173     10.889089   0.000000   0.000000
    5       12.253351     12.252997   0.000000   0.000000
    6       15.867002     15.867150   0.000000   0.000000
 
 -0.3571429E+00  0.7692308E-01  0.7941421E-15  0.1690617E-02
    1      -45.485941    -45.484467   1.000000   1.000000
    2       -0.435245     -0.435376   1.000000   1.000000
    3        9.181922      9.181766   0.000000   0.000000
    4       11.500953     11.500913   0.000000   0.000000
    5       12.885140     12.884769   0.000000   0.000000
    6       16.289240     16.289416   0.000000   0.000000
 
 -0.2857143E+00  0.7692308E-01  0.8453352E-15  0.1690617E-02
    1      -45.493641    -45.492167   1.000000   1.000000
    2       -1.325798     -1.325897   1.000000   1.000000
    3       11.673188     11.673274   0.000000   0.000000
    4       12.390823     12.390805   0.000000   0.000000
    5       13.719081     13.718694   0.000000   0.000000
    6       16.983260     16.983472   0.000000   0.000000
 
 -0.2142857E+00  0.7692308E-01  0.8073383E-15  0.1690617E-02
    1      -45.501442    -45.499969   1.000000   1.000000
    2       -1.999668     -1.999743   1.000000   1.000000
    3       13.508415     13.508286   0.000000   0.000000
    4       14.135432     14.135485   0.000000   0.000000
    5       14.680641     14.680517   0.000000   0.000000
    6       17.774700     17.775737   0.000000   0.000000
 
 -0.1428571E+00  0.7692308E-01  0.8010530E-15  0.1690617E-02
    1      -45.507898    -45.506427   1.000000   1.000000
    2       -2.448801     -2.448858   1.000000   1.000000
    3       14.836539     14.836317   0.000000   0.000000
    4       15.152063     15.151680   0.000000   0.000000
    5       15.832029     15.831841   0.000000   0.000000
    6       18.910177     18.912181   0.000000   0.000000
 
 -0.7142857E-01  0.7692308E-01  0.8208894E-15  0.1690617E-02
    1      -45.511673    -45.510202   1.000000   1.000000
    2       -2.673407     -2.673456   1.000000   1.000000
    3       15.322162     15.321811   0.000000   0.000000
    4       15.648741     15.648300   0.000000   0.000000
    5       16.438217     16.437889   0.000000   0.000000
    6       19.568835     19.568689   0.000000   0.000000
 
 -0.4373291E-17  0.1538462E+00  0.5191296E-14  0.1690617E-02
    1      -45.508296    -45.506826   1.000000   1.000000
    2       -2.348457     -2.348522   1.000000   1.000000
    3       12.543205     12.543143   0.000000   0.000000
    4       14.206377     14.206043   0.000000   0.000000
    5       16.775788     16.775278   0.000000   0.000000
    6       17.675404     17.675595   0.000000   0.000000
 
  0.7142857E-01  0.1538462E+00  0.5165188E-14  0.1690617E-02
    1      -45.504327    -45.502856   1.000000   1.000000
    2       -2.015725     -2.015804   1.000000   1.000000
    3       11.322241     11.322104   0.000000   0.000000
    4       13.609400     13.609100   0.000000   0.000000
    5       15.621504     15.621188   0.000000   0.000000
    6       17.789896     17.790172   0.000000   0.000000
 
  0.1428571E+00  0.1538462E+00  0.5180684E-14  0.1690617E-02
    1      -45.498038    -45.496566   1.000000   1.000000
    2       -1.454882     -1.454982   1.000000   1.000000
    3       10.214508     10.214352   0.000000   0.000000
    4       12.933753     12.933466   0.000000   0.000000
    5       13.315338     13.315329   0.000000   0.000000
    6       18.000541     18.000728   0.000000   0.000000
 
  0.2142857E+00  0.1538462E+00  0.5225954E-14  0.1690617E-02
    1      -45.490789    -45.489315   1.000000   1.000000
    2       -0.665783     -0.665910   1.000601   1.000597
    3        9.110659      9.110427   0.000000   0.000000
    4       11.091911     11.091810   0.000000   0.000000
    5       12.322567     12.322363   0.000000   0.000000
    6       18.152910     18.152524   0.000000   0.000000
 
  0.2857143E+00  0.1538462E+00  0.5239491E-14  0.1690617E-02
    1      -45.483912    -45.482437   1.000000   1.000000
    2        0.336296      0.336138   0.951783   0.951887
    3        7.602163      7.601887   0.000000   0.000000
    4        9.733256      9.733226   0.000000   0.000000
    5       11.840980     11.840758   0.000000   0.000000
    6       18.022580     18.022783   0.000000   0.000000
 
  0.3571429E+00  0.1538462E+00  0.5225273E-14  0.1690617E-02
    1      -45.478816    -45.477341   1.000000   1.000000
    2        1.458891      1.458689   0.012633   0.012708
    3        5.911579      5.911353   0.000000   0.000000
    4        9.208540      9.208510   0.000000   0.000000
    5       11.559468     11.559239   0.000000   0.000000
    6       17.714597     17.714602   0.000000   0.000000
 
  0.4285714E+00  0.1538462E+00  0.5141678E-14  0.1690617E-02
    1      -45.476490    -45.475014   1.000000   1.000000
    2        2.140047      2.139808   0.000000   0.000000
    3        5.041668      5.041488   0.000000   0.000000
    4        9.120280      9.120245   0.000000   0.000000
    5       11.512556     11.512313   0.000000   0.000000
    6       17.504230     17.504469   0.000000   0.000000
 
  0.5000000E+00  0.1538462E+00  0.5182970E-14  0.1690617E-02
    1      -45.477366    -45.475890   1.000000   1.000000
    2        1.445126      1.444922  -0.036740  -0.036708
    3        6.043480      6.043270   0.000000   0.000000
    4        9.363908      9.363874   0.000000   0.000000
    5       11.717253     11.716990   0.000000   0.000000
    6       17.452750     17.452817   0.000000   0.000000
 
 -0.4285714E+00  0.1538462E+00  0.5106113E-14  0.1690617E-02
    1      -45.481337    -45.479862   1.000000   1.000000
    2        0.335305      0.335145   1.035881   1.035996
    3        7.936325      7.936069   0.000000   0.000000
    4        9.944784      9.944758   0.000000   0.000000
    5       12.175200     12.174912   0.000000   0.000000
    6       17.516272     17.516415   0.000000   0.000000
 
 -0.3571429E+00  0.1538462E+00  0.5125587E-14  0.1690617E-02
    1      -45.487594    -45.486120   1.000000   1.000000
    2       -0.656925     -0.657050   1.000000   1.000000
    3        9.917251      9.916985   0.000000   0.000000
    4       11.075949     11.075907   0.000000   0.000000
    5       12.871619     12.871294   0.000000   0.000000
    6       17.511680     17.511928   0.000000   0.000000
 
 -0.2857143E+00  0.1538462E+00  0.5180757E-14  0.1690617E-02
    1      -45.494849    -45.493376   1.000000   1.000000
    2       -1.442123     -1.442220   1.000000   1.000000
    3       11.350353     11.350421   0.000000   0.000000
    4       13.022246     13.022514   0.000000   0.000000
    5       13.842334     13.842009   0.000000   0.000000
    6       17.532556     17.531886   0.000000   0.000000
 
 -0.2142857E+00  0.1538462E+00  0.5189344E-14  0.1690617E-02
    1      -45.501722    -45.500250   1.000000   1.000000
    2       -2.004109     -2.004184   1.000000   1.000000
    3       12.691337     12.691404   0.000000   0.000000
    4       14.163688     14.163403   0.000000   0.000000
    5       15.261505     15.261096   0.000000   0.000000
    6       17.964877     17.965355   0.000000   0.000000
 
 -0.1428571E+00  0.1538462E+00  0.5179530E-14  0.1690617E-02
    1      -45.506844    -45.505373   1.000000   1.000000
    2       -2.341705     -2.341767   1.000000   1.000000
    3       14.135583     14.135660   0.000000   0.000000
    4       14.488490     14.488208   0.000000   0.000000
    5       15.192975     15.192534   0.000000   0.000000
    6       18.531574     18.531537   0.000000   0.000000
 
 -0.7142857E-01  0.1538462E+00  0.5203526E-14  0.1690617E-02
    1      -45.509191    -45.507720   1.000000   1.000000
    2       -2.456395     -2.456454   1.000000   1.000000
    3       13.800102     13.799916   0.000000   0.000000
    4       14.607482     14.607138   0.000000   0.000000
    5       15.702123     15.701791   0.000000   0.000000
    6       18.423275     18.423099   0.000000   0.000000
 
 -0.1584257E-16  0.2307692E+00 -0.4634749E-14  0.1690617E-02
    1      -45.502919    -45.501447   1.000000   1.000000
    2       -1.804867     -1.804955   1.000000   1.000000
    3       10.044730     10.044609   0.000000   0.000000
    4       13.224475     13.224172   0.000000   0.000000
    5       16.146182     16.145689   0.000000   0.000000
    6       16.851786     16.852521   0.000000   0.000000
 
  0.7142857E-01  0.2307692E+00 -0.4648968E-14  0.1690617E-02
    1      -45.498737    -45.497264   1.000000   1.000000
    2       -1.363463     -1.363570   1.000000   1.000000
    3        8.897272      8.897140   0.000000   0.000000
    4       12.743333     12.743053   0.000000   0.000000
    5       14.705461     14.705168   0.000000   0.000000
    6       17.346931     17.347123   0.000000   0.000000
 
  0.1428571E+00  0.2307692E+00 -0.4629495E-14  0.1690617E-02
    1      -45.492953    -45.491480   1.000000   1.000000
    2       -0.692260     -0.692393   1.000309   1.000306
    3        7.905991      7.905849   0.000000   0.000000
    4       12.227456     12.227131   0.000000   0.000000
    5       12.434137     12.434023   0.000000   0.000000
    6       17.850910     17.851364   0.000000   0.000000
 
  0.2142857E+00  0.2307692E+00 -0.4560446E-14  0.1690617E-02
    1      -45.486684    -45.485209   1.000000   1.000000
    2        0.208365      0.208202   1.007744   1.007824
    3        6.999058      6.998867   0.000000   0.000000
    4       10.259262     10.259139   0.000000   0.000000
    5       11.863090     11.862913   0.000000   0.000000
    6       18.297009     18.296799   0.000000   0.000000
 
  0.2857143E+00  0.2307692E+00 -0.4622222E-14  0.1690617E-02
    1      -45.481223    -45.479748   1.000000   1.000000
    2        1.314820      1.314623   0.119460   0.119589
    3        5.968272      5.968006   0.000000   0.000000
    4        8.751696      8.751699   0.000000   0.000000
    5       11.575228     11.575058   0.000000   0.000000
    6       18.687179     18.683476   0.000000   0.000000
 
  0.3571429E+00  0.2307692E+00 -0.4644395E-14  0.1690617E-02
    1      -45.477551    -45.476076   1.000000   1.000000
    2        2.451905      2.451675  -0.000171  -0.000173
    3        4.824774      4.824490   0.000000   0.000000
    4        8.103853      8.103915   0.000000   0.000000
    5       11.456138     11.455962   0.000000   0.000000
    6       18.733361     18.733213   0.000000   0.000000
 
  0.4285714E+00  0.2307692E+00 -0.4672478E-14  0.1690617E-02
    1      -45.476479    -45.475004   1.000000   1.000000
    2        2.417220      2.416986   0.000000   0.000000
    3        4.977893      4.977612   0.000000   0.000000
    4        8.136166      8.136237   0.000000   0.000000
    5       11.532924     11.532729   0.000000   0.000000
    6       18.585374     18.585217   0.000000   0.000000
 
  0.5000000E+00  0.2307692E+00 -0.4686697E-14  0.1690617E-02
    1      -45.478146    -45.476670   1.000000   1.000000
    2        1.301454      1.301256   0.036992   0.037106
    3        6.403716      6.403435   0.000000   0.000000
    4        8.779512      8.779556   0.000000   0.000000
    5       11.816783     11.816555   0.000000   0.000000
    6       18.310497     18.310594   0.000000   0.000000
 
 -0.4285714E+00  0.2307692E+00 -0.4652531E-14  0.1690617E-02
    1      -45.482314    -45.480838   1.000000   1.000000
    2        0.218757      0.218596   1.073232   1.073272
    3        7.768023      7.767812   0.000000   0.000000
    4       10.209066     10.209012   0.000000   0.000000
    5       12.302862     12.302585   0.000000   0.000000
    6       17.934056     17.933637   0.000000   0.000000
 
 -0.3571429E+00  0.2307692E+00 -0.4656837E-14  0.1690617E-02
    1      -45.488107    -45.486633   1.000000   1.000000
    2       -0.670592     -0.670721   1.000000   1.000000
    3        8.950198      8.950047   0.000000   0.000000
    4       12.145373     12.145313   0.000000   0.000000
    5       13.067075     13.066710   0.000000   0.000000
    6       17.707743     17.707043   0.000000   0.000000
 
 -0.2857143E+00  0.2307692E+00 -0.4615544E-14  0.1690617E-02
    1      -45.494392    -45.492919   1.000000   1.000000
    2       -1.340751     -1.340854   1.000000   1.000000
    3       10.185956     10.185935   0.000000   0.000000
    4       13.190814     13.190575   0.000000   0.000000
    5       14.632150     14.631707   0.000000   0.000000
    6       17.125826     17.126316   0.000000   0.000000
 
 -0.2142857E+00  0.2307692E+00 -0.4618394E-14  0.1690617E-02
    1      -45.499908    -45.498436   1.000000   1.000000
    2       -1.788295     -1.788380   1.000000   1.000000
    3       11.548623     11.548680   0.000000   0.000000
    4       13.539263     13.539062   0.000000   0.000000
    5       14.544884     14.544450   0.000000   0.000000
    6       17.686899     17.687110   0.000000   0.000000
 
 -0.1428571E+00  0.2307692E+00 -0.4655870E-14  0.1690617E-02
    1      -45.503578    -45.502106   1.000000   1.000000
    2       -2.014655     -2.014731   1.000000   1.000000
    3       12.509730     12.509470   0.000000   0.000000
    4       13.401279     13.401353   0.000000   0.000000
    5       13.927496     13.927106   0.000000   0.000000
    6       18.526766     18.526779   0.000000   0.000000
 
 -0.7142857E-01  0.2307692E+00 -0.4648286E-14  0.1690617E-02
    1      -45.504683    -45.503211   1.000000   1.000000
    2       -2.020813     -2.020890   1.000000   1.000000
    3       11.336682     11.336524   0.000000   0.000000
    4       13.612703     13.612414   0.000000   0.000000
    5       14.848857     14.848530   0.000000   0.000000
    6       17.804388     17.804559   0.000000   0.000000
 
 -0.8746582E-17  0.3076923E+00 -0.2755491E-15  0.1690617E-02
    1      -45.497269    -45.495796   1.000000   1.000000
    2       -1.054456     -1.054581   1.000000   1.000000
    3        7.722177      7.722077   0.000000   0.000000
    4       12.433509     12.433222   0.000000   0.000000
    5       15.569195     15.568715   0.000000   0.000000
    6       16.178176     16.179132   0.000000   0.000000
 
  0.7142857E-01  0.3076923E+00 -0.2897676E-15  0.1690617E-02
    1      -45.493557    -45.492084   1.000000   1.000000
    2       -0.517640     -0.517791   1.001433   1.001424
    3        6.722863      6.722781   0.000000   0.000000
    4       12.097431     12.097164   0.000000   0.000000
    5       13.957903     13.957619   0.000000   0.000000
    6       16.994363     16.994354   0.000000   0.000000
 
  0.1428571E+00  0.3076923E+00 -0.3218284E-15  0.1690617E-02
    1      -45.488820    -45.487346   1.000000   1.000000
    2        0.242717      0.242532   1.040343   1.040446
    3        5.900124      5.900034   0.000000   0.000000
    4       11.671306     11.670972   0.000000   0.000000
    5       11.862968     11.862877   0.000000   0.000000
    6       17.776548     17.776412   0.000000   0.000000
 
  0.2142857E+00  0.3076923E+00 -0.3082913E-15  0.1690617E-02
    1      -45.483959    -45.482484   1.000000   1.000000
    2        1.220587      1.220366   0.185557   0.185725
    3        5.198702      5.198571   0.000000   0.000000
    4        9.723843      9.723715   0.000000   0.000000
    5       11.590856     11.590699   0.000000   0.000000
    6       18.503144     18.503357   0.000000   0.000000
 
  0.2857143E+00  0.3076923E+00 -0.3145554E-15  0.1690617E-02
    1      -45.479896    -45.478420   1.000000   1.000000
    2        2.386040      2.385786  -0.008640  -0.008654
    3        4.464525      4.464315   0.000000   0.000000
    4        8.287466      8.287471   0.000000   0.000000
    5       11.468588     11.468446   0.000000   0.000000
    6       19.364182     19.363086   0.000000   0.000000
 
  0.3571429E+00  0.3076923E+00 -0.3367284E-15  0.1690617E-02
    1      -45.477463    -45.475987   1.000000   1.000000
    2        3.446515      3.446272   0.000000   0.000000
    3        3.702681      3.702391   0.000000   0.000000
    4        7.751081      7.751168   0.000000   0.000000
    5       11.474240     11.474088   0.000000   0.000000
    6       19.770298     19.770914   0.000000   0.000000
 
  0.4285714E+00  0.3076923E+00 -0.2617441E-15  0.1690617E-02
    1      -45.477152    -45.475676   1.000000   1.000000
    2        2.340647      2.340397   0.000000   0.000000
    3        4.850169      4.849938   0.000000   0.000000
    4        8.251290      8.251331   0.000000   0.000000
    5       11.624011     11.623827   0.000000   0.000000
    6       19.260247     19.260073   0.000000   0.000000
 
  0.5000000E+00  0.3076923E+00 -0.3790305E-15  0.1690617E-02
    1      -45.478981    -45.477505   1.000000   1.000000
    2        1.233692      1.233478   0.083725   0.083867
    3        5.842126      5.841974   0.000000   0.000000
    4        9.659202      9.659137   0.000000   0.000000
    5       11.923664     11.923419   0.000000   0.000000
    6       18.475714     18.475796   0.000000   0.000000
 
 -0.4285714E+00  0.3076923E+00 -0.2259310E-15  0.1690617E-02
    1      -45.482642    -45.481167   1.000000   1.000000
    2        0.280623      0.280448   1.059179   1.059236
    3        6.793675      6.793566   0.000000   0.000000
    4       11.505260     11.505146   0.000000   0.000000
    5       12.463954     12.463595   0.000000   0.000000
    6       17.681129     17.681492   0.000000   0.000000
 
 -0.3571429E+00  0.3076923E+00 -0.2768198E-15  0.1690617E-02
    1      -45.487397    -45.485923   1.000000   1.000000
    2       -0.474575     -0.474717   1.000000   1.000000
    3        7.857677      7.857570   0.000000   0.000000
    4       12.436173     12.435959   0.000000   0.000000
    5       14.000677     14.000233   0.000000   0.000000
    6       16.439676     16.440022   0.000000   0.000000
 
 -0.2857143E+00  0.3076923E+00 -0.2903257E-15  0.1690617E-02
    1      -45.492300    -45.490827   1.000000   1.000000
    2       -1.018968     -1.019085   1.000000   1.000000
    3        9.076222      9.076106   0.000000   0.000000
    4       12.724683     12.724502   0.000000   0.000000
    5       13.921823     13.921402   0.000000   0.000000
    6       16.975373     16.976437   0.000000   0.000000
 
 -0.2142857E+00  0.3076923E+00 -0.2913791E-15  0.1690617E-02
    1      -45.496416    -45.494943   1.000000   1.000000
    2       -1.349945     -1.350047   1.000000   1.000000
    3       10.325755     10.325548   0.000000   0.000000
    4       12.230612     12.230489   0.000000   0.000000
    5       13.136957     13.136611   0.000000   0.000000
    6       18.480585     18.481437   0.000000   0.000000
 
 -0.1428571E+00  0.3076923E+00 -0.2550367E-15  0.1690617E-02
    1      -45.498849    -45.497376   1.000000   1.000000
    2       -1.467208     -1.467306   1.000000   1.000000
    3       10.161156     10.160954   0.000000   0.000000
    4       12.498263     12.498127   0.000000   0.000000
    5       13.008311     13.008000   0.000000   0.000000
    6       18.193208     18.193304   0.000000   0.000000
 
 -0.7142857E-01  0.3076923E+00 -0.2752083E-15  0.1690617E-02
    1      -45.499160    -45.497687   1.000000   1.000000
    2       -1.369668     -1.369776   1.000000   1.000000
    3        8.900183      8.900044   0.000000   0.000000
    4       12.756140     12.755869   0.000000   0.000000
    5       14.082606     14.082299   0.000000   0.000000
    6       17.381639     17.381641   0.000000   0.000000
 
 -0.3398310E-17  0.3846154E+00  0.5684360E-15  0.1690617E-02
    1      -45.492556    -45.491081   1.000000   1.000000
    2       -0.144754     -0.144934   1.005531   1.005478
    3        5.734322      5.734280   0.000000   0.000000
    4       11.889813     11.889536   0.000000   0.000000
    5       15.156194     15.155705   0.000000   0.000000
    6       15.680997     15.682363   0.000000   0.000000
 
  0.7142857E-01  0.3846154E+00  0.5581947E-15  0.1690617E-02
    1      -45.489942    -45.488468   1.000000   1.000000
    2        0.420766      0.420545   1.117996   1.118151
    3        4.969969      4.969956   0.000000   0.000000
    4       11.702952     11.702691   0.000000   0.000000
    5       13.448856     13.448575   0.000000   0.000000
    6       16.776709     16.776651   0.000000   0.000000
 
  0.1428571E+00  0.3846154E+00  0.5499122E-15  0.1690617E-02
    1      -45.486585    -45.485110   1.000000   1.000000
    2        1.133825      1.133560   0.204183   0.204448
    3        4.461910      4.461899   0.000000   0.000000
    4       11.309770     11.309484   0.000000   0.000000
    5       11.599228     11.599094   0.000000   0.000000
    6       17.757035     17.756928   0.000000   0.000000
 
  0.2142857E+00  0.3846154E+00  0.5356937E-15  0.1690617E-02
    1      -45.483148    -45.481672   1.000000   1.000000
    2        1.876613      1.876325  -0.012811  -0.012828
    3        4.259481      4.259414   0.000000   0.000000
    4        9.480720      9.480595   0.000000   0.000000
    5       11.513370     11.513219   0.000000   0.000000
    6       18.656972     18.656808   0.000000   0.000000
 
  0.2857143E+00  0.3846154E+00  0.5294297E-15  0.1690617E-02
    1      -45.480289    -45.478813   1.000000   1.000000
    2        2.386577      2.386316   0.000000   0.000000
    3        4.384769      4.384567   0.000000   0.000000
    4        8.249450      8.249455   0.000000   0.000000
    5       11.510874     11.510733   0.000000   0.000000
    6       19.737644     19.737876   0.000000   0.000000
 
  0.3571429E+00  0.3846154E+00  0.5152111E-15  0.1690617E-02
    1      -45.478616    -45.477141   1.000000   1.000000
    2        2.427664      2.427404   0.000000   0.000000
    3        4.535446      4.535232   0.000000   0.000000
    4        8.206016      8.206044   0.000000   0.000000
    5       11.584986     11.584822   0.000000   0.000000
    6       19.915742     19.916096   0.000000   0.000000
 
  0.4285714E+00  0.3846154E+00  0.5901954E-15  0.1690617E-02
    1      -45.478328    -45.476853   1.000000   1.000000
    2        1.966339      1.966061   0.000000   0.000000
    3        4.687682      4.687593   0.000000   0.000000
    4        9.397083      9.397011   0.000000   0.000000
    5       11.748070     11.747846   0.000000   0.000000
    6       18.769935     18.769901   0.000000   0.000000
 
  0.5000000E+00  0.3846154E+00  0.6790447E-15  0.1690617E-02
    1      -45.479650    -45.478175   1.000000   1.000000
    2        1.236752      1.236505   0.049894   0.050051
    3        5.148670      5.148630   0.000000   0.000000
    4       11.119358     11.119244   0.000000   0.000000
    5       12.095862     12.095517   0.000000   0.000000
    6       17.560343     17.560453   0.000000   0.000000
 
 -0.4285714E+00  0.3846154E+00  0.5595813E-15  0.1690617E-02
    1      -45.482250    -45.480775   1.000000   1.000000
    2        0.518110      0.517909   0.987169   0.987406