   26   26    1    2
  0.1146602E+02  0.5260542E-09  0.7288311E-09  0.8662229E-09  0.5000000E-15
  1.000000000000000E-004
  CAR 
 unknown system                          
    128     71     86
 
  0.0000000E+00  0.0000000E+00  0.0000000E+00  0.7142857E-02
    1      -42.019573    -42.019677   1.000000   1.000000
    2      -42.019017    -42.019121   1.000000   1.000000
    3      -41.884355    -41.884454   1.000000   1.000000
    4      -41.884134    -41.884233   1.000000   1.000000
    5      -41.793544    -41.793659   1.000000   1.000000
    6      -41.793286    -41.793401   1.000000   1.000000
    7      -41.768610    -41.768709   1.000000   1.000000
    8      -41.753716    -41.753815   1.000000   1.000000
    9      -20.097989    -20.097979   1.000000   1.000000
   10      -20.040682    -20.040673   1.000000   1.000000
   11      -18.854964    -18.854955   1.000000   1.000000
   12      -18.824162    -18.824152   1.000000   1.000000
   13      -17.562621    -17.562625   1.000000   1.000000
   14      -17.496461    -17.496466   1.000000   1.000000
   15      -17.007815    -17.007824   1.000000   1.000000
   16      -16.985416    -16.985426   1.000000   1.000000
   17      -16.765411    -16.765422   1.000000   1.000000
   18      -16.748499    -16.748509   1.000000   1.000000
   19      -16.684462    -16.684472   1.000000   1.000000
   20      -16.681660    -16.681670   1.000000   1.000000
   21      -16.657177    -16.657189   1.000000   1.000000
   22      -16.638830    -16.638842   1.000000   1.000000
   23       -8.610847     -8.610827   1.000000   1.000000
   24       -8.594770     -8.594749   1.000000   1.000000
   25       -6.105285     -6.105227   1.000000   1.000000
   26       -5.712622     -5.712580   1.000000   1.000000
   27       -5.109776     -5.109732   1.000000   1.000000
   28       -4.966725     -4.966687   1.000000   1.000000
   29       -4.611963     -4.611926   1.000000   1.000000
   30       -4.421000     -4.420964   1.000000   1.000000
   31       -4.298626     -4.298596   1.000000   1.000000
   32       -4.285415     -4.285387   1.000000   1.000000
   33       -3.875414     -3.875379   1.000000   1.000000
   34       -3.828778     -3.828738   1.000000   1.000000
   35       -3.743119     -3.743086   1.000000   1.000000
   36       -3.582000     -3.581967   1.000000   1.000000
   37       -3.182973     -3.182939   1.000000   1.000000
   38       -2.892079     -2.892050   1.000000   1.000000
   39       -2.478563     -2.478545   1.000000   1.000000
   40       -2.202010     -2.202002   1.000000   1.000000
   41       -2.199769     -2.199765   1.000000   1.000000
   42       -1.900757     -1.900738   1.000000   1.000000
   43       -1.852211     -1.852183   1.000000   1.000000
   44       -1.723598     -1.723584   1.000000   1.000000
   45       -1.571546     -1.571539   1.000000   1.000000
   46       -1.503612     -1.503606   1.000000   1.000000
   47       -1.487511     -1.487502   1.000000   1.000000
   48       -1.244708     -1.244699   1.000000   1.000000
   49       -1.125038     -1.125032   1.000000   1.000000
   50       -1.119356     -1.119349   1.000000   1.000000
   51       -1.055783     -1.055779   1.000000   1.000000
   52       -0.759357     -0.759353   1.000000   1.000000
   53       -0.677323     -0.677319   1.000000   1.000000
   54       -0.485307     -0.485302   1.000000   1.000000
   55       -0.329004     -0.329009   1.000000   1.000000
   56       -0.316915     -0.316922   1.000000   1.000000
   57       -0.163000     -0.163005   1.000000   1.000000
   58       -0.127913     -0.127891   1.000000   1.000000
   59       -0.102545     -0.102537   1.000000   1.000000
   60        0.020408      0.020415   1.000000   1.000000
   61        0.102955      0.102957   1.000000   1.000000
   62        0.178780      0.178771   1.000000   1.000000
   63        0.381998      0.381990   1.000000   1.000000
   64        0.393862      0.393858   1.000000   1.000000
   65        6.044552      6.044611   0.000002   0.000001
   66        8.321739      8.321768   0.000000   0.000000
   67        8.418085      8.418105   0.000000   0.000000
   68        8.595049      8.595103   0.000000   0.000000
   69        8.848876      8.848918   0.000000   0.000000
   70        8.929504      8.929553   0.000000   0.000000
   71        9.083130      9.083195   0.000000   0.000000
   72        9.400339      9.400382   0.000000   0.000000
   73        9.602467      9.602521   0.000000   0.000000
   74        9.681629      9.681672   0.000000   0.000000
   75        9.899768      9.899829   0.000000   0.000000
   76       10.208027     10.208090   0.000000   0.000000
   77       10.333815     10.333840   0.000000   0.000000
   78       10.407769     10.407824   0.000000   0.000000
   79       10.775797     10.775877   0.000000   0.000000
   80       10.806867     10.806896   0.000000   0.000000
   81       10.884369     10.884415   0.000000   0.000000
   82       11.053791     11.053845   0.000000   0.000000
   83       11.190569     11.190626   0.000000   0.000000
   84       11.319532     11.319560   0.000000   0.000000
   85       11.400799     11.400841   0.000000   0.000000
   86       11.729369     11.726319   0.000000   0.000000
 
  0.1428571E+00 -0.3485863E-17  0.8749572E-15  0.1428571E-01
    1      -42.019558    -42.019662   1.000000   1.000000
    2      -42.019018    -42.019122   1.000000   1.000000
    3      -41.884325    -41.884424   1.000000   1.000000
    4      -41.884111    -41.884209   1.000000   1.000000
    5      -41.793550    -41.793664   1.000000   1.000000
    6      -41.793308    -41.793422   1.000000   1.000000
    7      -41.768625    -41.768723   1.000000   1.000000
    8      -41.753718    -41.753817   1.000000   1.000000
    9      -20.092752    -20.092742   1.000000   1.000000
   10      -20.041002    -20.040993   1.000000   1.000000
   11      -18.854043    -18.854034   1.000000   1.000000
   12      -18.826298    -18.826288   1.000000   1.000000
   13      -17.555678    -17.555682   1.000000   1.000000
   14      -17.496458    -17.496463   1.000000   1.000000
   15      -17.006333    -17.006341   1.000000   1.000000
   16      -16.985312    -16.985321   1.000000   1.000000
   17      -16.773328    -16.773338   1.000000   1.000000
   18      -16.754386    -16.754397   1.000000   1.000000
   19      -16.693874    -16.693884   1.000000   1.000000
   20      -16.680560    -16.680570   1.000000   1.000000
   21      -16.657991    -16.658003   1.000000   1.000000
   22      -16.640250    -16.640263   1.000000   1.000000
   23       -8.618848     -8.618828   1.000000   1.000000
   24       -8.598620     -8.598599   1.000000   1.000000
   25       -6.086638     -6.086582   1.000000   1.000000
   26       -5.711992     -5.711950   1.000000   1.000000
   27       -5.097499     -5.097457   1.000000   1.000000
   28       -4.955911     -4.955874   1.000000   1.000000
   29       -4.596190     -4.596151   1.000000   1.000000
   30       -4.413328     -4.413291   1.000000   1.000000
   31       -4.284913     -4.284884   1.000000   1.000000
   32       -4.246773     -4.246744   1.000000   1.000000
   33       -3.845402     -3.845362   1.000000   1.000000
   34       -3.808586     -3.808547   1.000000   1.000000
   35       -3.701865     -3.701832   1.000000   1.000000
   36       -3.562381     -3.562347   1.000000   1.000000
   37       -3.169885     -3.169850   1.000000   1.000000
   38       -2.857138     -2.857109   1.000000   1.000000
   39       -2.448021     -2.448004   1.000000   1.000000
   40       -2.243501     -2.243493   1.000000   1.000000
   41       -2.176972     -2.176966   1.000000   1.000000
   42       -1.971032     -1.971010   1.000000   1.000000
   43       -1.870373     -1.870348   1.000000   1.000000
   44       -1.694150     -1.694136   1.000000   1.000000
   45       -1.626653     -1.626643   1.000000   1.000000
   46       -1.478010     -1.478004   1.000000   1.000000
   47       -1.464331     -1.464321   1.000000   1.000000
   48       -1.265515     -1.265506   1.000000   1.000000
   49       -1.200294     -1.200286   1.000000   1.000000
   50       -1.168336     -1.168329   1.000000   1.000000
   51       -1.116966     -1.116957   1.000000   1.000000
   52       -0.799386     -0.799382   1.000000   1.000000
   53       -0.656472     -0.656468   1.000000   1.000000
   54       -0.504596     -0.504591   1.000000   1.000000
   55       -0.349183     -0.349189   1.000000   1.000000
   56       -0.330515     -0.330521   1.000000   1.000000
   57       -0.198983     -0.198985   1.000000   1.000000
   58       -0.160079     -0.160066   1.000000   1.000000
   59       -0.063958     -0.063951   1.000000   1.000000
   60        0.018169      0.018174   1.000000   1.000000
   61        0.117679      0.117682   1.000000   1.000000
   62        0.182979      0.182970   1.000000   1.000000
   63        0.377198      0.377189   1.000000   1.000000
   64        0.402731      0.402727   1.000000   1.000000
   65        6.243467      6.243524  -0.000000  -0.000000
   66        8.216631      8.216659   0.000000   0.000000
   67        8.449936      8.449960   0.000000   0.000000
   68        8.593112      8.593165   0.000000   0.000000
   69        8.765135      8.765180   0.000000   0.000000
   70        8.931628      8.931678   0.000000   0.000000
   71        9.148407      9.148452   0.000000   0.000000
   72        9.506344      9.506398   0.000000   0.000000
   73        9.543685      9.543728   0.000000   0.000000
   74        9.777832      9.777881   0.000000   0.000000
   75        9.947241      9.947301   0.000000   0.000000
   76       10.090546     10.090597   0.000000   0.000000
   77       10.307988     10.308031   0.000000   0.000000
   78       10.373310     10.373354   0.000000   0.000000
   79       10.533427     10.533463   0.000000   0.000000
   80       10.651507     10.651571   0.000000   0.000000
   81       10.797554     10.797587   0.000000   0.000000
   82       10.876449     10.876509   0.000000   0.000000
   83       10.992469     10.992517   0.000000   0.000000
   84       11.330064     11.330156   0.000000   0.000000
   85       11.524767     11.527881   0.000000   0.000000
   86       11.653273     11.664994   0.000000   0.000000
 
  0.2857143E+00 -0.4661203E-16  0.1839953E-14  0.1428571E-01
    1      -42.019535    -42.019639   1.000000   1.000000
    2      -42.019022    -42.019126   1.000000   1.000000
    3      -41.884267    -41.884366   1.000000   1.000000
    4      -41.884057    -41.884156   1.000000   1.000000
    5      -41.793577    -41.793691   1.000000   1.000000
    6      -41.793355    -41.793470   1.000000   1.000000
    7      -41.768660    -41.768758   1.000000   1.000000
    8      -41.753734    -41.753833   1.000000   1.000000
    9      -20.079564    -20.079554   1.000000   1.000000
   10      -20.043192    -20.043183   1.000000   1.000000
   11      -18.851730    -18.851721   1.000000   1.000000
   12      -18.831404    -18.831394   1.000000   1.000000
   13      -17.538220    -17.538224   1.000000   1.000000
   14      -17.497834    -17.497839   1.000000   1.000000
   15      -17.001957    -17.001966   1.000000   1.000000
   16      -16.986027    -16.986037   1.000000   1.000000
   17      -16.791627    -16.791636   1.000000   1.000000
   18      -16.767895    -16.767905   1.000000   1.000000
   19      -16.705558    -16.705567   1.000000   1.000000
   20      -16.688056    -16.688065   1.000000   1.000000
   21      -16.659329    -16.659340   1.000000   1.000000
   22      -16.643190    -16.643202   1.000000   1.000000
   23       -8.634363     -8.634342   1.000000   1.000000
   24       -8.609964     -8.609944   1.000000   1.000000
   25       -6.044154     -6.044103   1.000000   1.000000
   26       -5.710861     -5.710819   1.000000   1.000000
   27       -5.064103     -5.064065   1.000000   1.000000
   28       -4.941086     -4.941051   1.000000   1.000000
   29       -4.559675     -4.559635   1.000000   1.000000
   30       -4.399646     -4.399609   1.000000   1.000000
   31       -4.220678     -4.220650   1.000000   1.000000
   32       -4.175718     -4.175688   1.000000   1.000000
   33       -3.870950     -3.870905   1.000000   1.000000
   34       -3.674514     -3.674477   1.000000   1.000000
   35       -3.599093     -3.599057   1.000000   1.000000
   36       -3.495079     -3.495046   1.000000   1.000000
   37       -3.133893     -3.133856   1.000000   1.000000
   38       -2.786414     -2.786387   1.000000   1.000000
   39       -2.399154     -2.399140   1.000000   1.000000
   40       -2.268831     -2.268818   1.000000   1.000000
   41       -2.172954     -2.172945   1.000000   1.000000
   42       -2.062147     -2.062124   1.000000   1.000000
   43       -1.894897     -1.894877   1.000000   1.000000
   44       -1.740578     -1.740564   1.000000   1.000000
   45       -1.670169     -1.670155   1.000000   1.000000
   46       -1.532639     -1.532628   1.000000   1.000000
   47       -1.508628     -1.508619   1.000000   1.000000
   48       -1.362133     -1.362122   1.000000   1.000000
   49       -1.290758     -1.290744   1.000000   1.000000
   50       -1.250147     -1.250138   1.000000   1.000000
   51       -1.174561     -1.174552   1.000000   1.000000
   52       -0.885549     -0.885545   1.000000   1.000000
   53       -0.634006     -0.634000   1.000000   1.000000
   54       -0.542354     -0.542350   1.000000   1.000000
   55       -0.410171     -0.410178   1.000000   1.000000
   56       -0.359092     -0.359097   1.000000   1.000000
   57       -0.245580     -0.245581   1.000000   1.000000
   58       -0.194553     -0.194547   1.000000   1.000000
   59       -0.045188     -0.045185   1.000000   1.000000
   60        0.011743      0.011744   1.000000   1.000000
   61        0.159575      0.159573   1.000000   1.000000
   62        0.194675      0.194666   1.000000   1.000000
   63        0.377617      0.377609   1.000000   1.000000
   64        0.413534      0.413529   1.000000   1.000000
   65        6.753935      6.753985   0.000000   0.000000
   66        8.135734      8.135768   0.000000   0.000000
   67        8.425579      8.425614   0.000000   0.000000
   68        8.534292      8.534332   0.000000   0.000000
   69        8.795326      8.795368   0.000000   0.000000
   70        8.947829      8.947869   0.000000   0.000000
   71        9.238184      9.238217   0.000000   0.000000
   72        9.382172      9.382224   0.000000   0.000000
   73        9.546796      9.546850   0.000000   0.000000
   74        9.689857      9.689883   0.000000   0.000000
   75        9.779908      9.779961   0.000000   0.000000
   76       10.008711     10.008766   0.000000   0.000000
   77       10.054290     10.054336   0.000000   0.000000
   78       10.326183     10.326229   0.000000   0.000000
   79       10.393361     10.393406   0.000000   0.000000
   80       10.503594     10.503661   0.000000   0.000000
   81       10.605680     10.605722   0.000000   0.000000
   82       10.659261     10.659313   0.000000   0.000000
   83       10.960140     10.960191   0.000000   0.000000
   84       11.167485     11.167539   0.000000   0.000000
   85       11.523274     11.523344   0.000000   0.000000
   86       11.674516     11.674557   0.000000   0.000000
 
  0.4285714E+00 -0.2234232E-16  0.2686063E-14  0.1428571E-01
    1      -42.019513    -42.019617   1.000000   1.000000
    2      -42.019029    -42.019133   1.000000   1.000000
    3      -41.884214    -41.884313   1.000000   1.000000
    4      -41.884017    -41.884115   1.000000   1.000000
    5      -41.793597    -41.793712   1.000000   1.000000
    6      -41.793389    -41.793503   1.000000   1.000000
    7      -41.768680    -41.768779   1.000000   1.000000
    8      -41.753749    -41.753848   1.000000   1.000000
    9      -20.064773    -20.064764   1.000000   1.000000
   10      -20.049099    -20.049090   1.000000   1.000000
   11      -18.849303    -18.849294   1.000000   1.000000
   12      -18.836024    -18.836015   1.000000   1.000000
   13      -17.518593    -17.518598   1.000000   1.000000
   14      -17.504369    -17.504374   1.000000   1.000000
   15      -16.995752    -16.995761   1.000000   1.000000
   16      -16.989016    -16.989025   1.000000   1.000000
   17      -16.806861    -16.806869   1.000000   1.000000
   18      -16.778924    -16.778934   1.000000   1.000000
   19      -16.711246    -16.711254   1.000000   1.000000
   20      -16.698039    -16.698049   1.000000   1.000000
   21      -16.660134    -16.660146   1.000000   1.000000
   22      -16.645226    -16.645238   1.000000   1.000000
   23       -8.645409     -8.645388   1.000000   1.000000
   24       -8.620619     -8.620599   1.000000   1.000000
   25       -6.008591     -6.008546   1.000000   1.000000
   26       -5.711653     -5.711611   1.000000   1.000000
   27       -5.029795     -5.029760   1.000000   1.000000
   28       -4.939782     -4.939748   1.000000   1.000000
   29       -4.529354     -4.529313   1.000000   1.000000
   30       -4.391525     -4.391487   1.000000   1.000000
   31       -4.138846     -4.138818   1.000000   1.000000
   32       -4.120039     -4.120009   1.000000   1.000000
   33       -3.907610     -3.907562   1.000000   1.000000
   34       -3.584643     -3.584605   1.000000   1.000000
   35       -3.504154     -3.504117   1.000000   1.000000
   36       -3.392815     -3.392784   1.000000   1.000000
   37       -3.094683     -3.094645   1.000000   1.000000
   38       -2.741660     -2.741634   1.000000   1.000000
   39       -2.400507     -2.400492   1.000000   1.000000
   40       -2.226025     -2.226013   1.000000   1.000000
   41       -2.158099     -2.158085   1.000000   1.000000
   42       -2.122593     -2.122567   1.000000   1.000000
   43       -1.929132     -1.929117   1.000000   1.000000
   44       -1.798267     -1.798248   1.000000   1.000000
   45       -1.748874     -1.748860   1.000000   1.000000
   46       -1.718647     -1.718632   1.000000   1.000000
   47       -1.565381     -1.565368   1.000000   1.000000
   48       -1.411280     -1.411267   1.000000   1.000000
   49       -1.323354     -1.323336   1.000000   1.000000
   50       -1.274801     -1.274788   1.000000   1.000000
   51       -1.139394     -1.139390   1.000000   1.000000
   52       -0.987478     -0.987474   1.000000   1.000000
   53       -0.646068     -0.646061   1.000000   1.000000
   54       -0.553000     -0.553001   1.000000   1.000000
   55       -0.465181     -0.465187   1.000000   1.000000
   56       -0.383960     -0.383965   1.000000   1.000000
   57       -0.254100     -0.254101   1.000000   1.000000
   58       -0.231422     -0.231419   1.000000   1.000000
   59       -0.049049     -0.049046   1.000000   1.000000
   60        0.023700      0.023696   1.000000   1.000000
   61        0.185383      0.185375   1.000000   1.000000
   62        0.199330      0.199321   1.000000   1.000000
   63        0.394309      0.394302   1.000000   1.000000
   64        0.413068      0.413062   1.000000   1.000000
   65        7.337693      7.337736   0.000000   0.000000
   66        8.053278      8.053329   0.000000   0.000000
   67        8.424519      8.424546   0.000000   0.000000
   68        8.640006      8.640039   0.000000   0.000000
   69        8.765366      8.765398   0.000000   0.000000
   70        8.964760      8.964786   0.000000   0.000000
   71        9.070997      9.071014   0.000000   0.000000
   72        9.236669      9.236719   0.000000   0.000000
   73        9.363086      9.363120   0.000000   0.000000
   74        9.413593      9.413653   0.000000   0.000000
   75        9.637993      9.638054   0.000000   0.000000
   76        9.736849      9.736910   0.000000   0.000000
   77       10.167773     10.167819   0.000000   0.000000
   78       10.335866     10.335914   0.000000   0.000000
   79       10.358504     10.358569   0.000000   0.000000
   80       10.452688     10.452728   0.000000   0.000000
   81       10.552101     10.552164   0.000000   0.000000
   82       10.716528     10.716561   0.000000   0.000000
   83       10.934639     10.934702   0.000000   0.000000
   84       11.032354     11.032398   0.000000   0.000000
   85       11.516290     11.516346   0.000000   0.000000
   86       11.783645     11.783757   0.000000   0.000000
 
  0.0000000E+00  0.2000000E+00  0.5940892E-16  0.1428571E-01
    1      -42.019517    -42.019621   1.000000   1.000000
    2      -42.019074    -42.019178   1.000000   1.000000
    3      -41.884359    -41.884457   1.000000   1.000000
    4      -41.884129    -41.884227   1.000000   1.000000
    5      -41.793522    -41.793636   1.000000   1.000000
    6      -41.793289    -41.793403   1.000000   1.000000
    7      -41.768696    -41.768795   1.000000   1.000000
    8      -41.753658    -41.753757   1.000000   1.000000
    9      -20.089186    -20.089176   1.000000   1.000000
   10      -20.044527    -20.044518   1.000000   1.000000
   11      -18.853788    -18.853778   1.000000   1.000000
   12      -18.842265    -18.842256   1.000000   1.000000
   13      -17.542886    -17.542891   1.000000   1.000000
   14      -17.504681    -17.504686   1.000000   1.000000
   15      -17.018184    -17.018192   1.000000   1.000000
   16      -16.970627    -16.970637   1.000000   1.000000
   17      -16.768061    -16.768071   1.000000   1.000000
   18      -16.752147    -16.752157   1.000000   1.000000
   19      -16.684030    -16.684040   1.000000   1.000000
   20      -16.675530    -16.675540   1.000000   1.000000
   21      -16.656266    -16.656278   1.000000   1.000000
   22      -16.640446    -16.640458   1.000000   1.000000
   23       -8.627279     -8.627257   1.000000   1.000000
   24       -8.607661     -8.607641   1.000000   1.000000
   25       -6.092486     -6.092429   1.000000   1.000000
   26       -5.690545     -5.690504   1.000000   1.000000
   27       -5.111363     -5.111319   1.000000   1.000000
   28       -4.956653     -4.956615   1.000000   1.000000
   29       -4.596802     -4.596764   1.000000   1.000000
   30       -4.390909     -4.390873   1.000000   1.000000
   31       -4.311799     -4.311768   1.000000   1.000000
   32       -4.299923     -4.299896   1.000000   1.000000
   33       -3.901652     -3.901611   1.000000   1.000000
   34       -3.861581     -3.861546   1.000000   1.000000
   35       -3.736729     -3.736696   1.000000   1.000000
   36       -3.564225     -3.564191   1.000000   1.000000
   37       -3.129135     -3.129101   1.000000   1.000000
   38       -2.926986     -2.926956   1.000000   1.000000
   39       -2.357466     -2.357449   1.000000   1.000000
   40       -2.208733     -2.208727   1.000000   1.000000
   41       -2.195477     -2.195469   1.000000   1.000000
   42       -2.079200     -2.079186   1.000000   1.000000
   43       -1.921964     -1.921935   1.000000   1.000000
   44       -1.665242     -1.665231   1.000000   1.000000
   45       -1.592075     -1.592062   1.000000   1.000000
   46       -1.449856     -1.449849   1.000000   1.000000
   47       -1.316949     -1.316940   1.000000   1.000000
   48       -1.261980     -1.261973   1.000000   1.000000
   49       -1.136923     -1.136918   1.000000   1.000000
   50       -1.119625     -1.119617   1.000000   1.000000
   51       -1.080833     -1.080830   1.000000   1.000000
   52       -0.857780     -0.857778   1.000000   1.000000
   53       -0.707310     -0.707304   1.000000   1.000000
   54       -0.480652     -0.480649   1.000000   1.000000
   55       -0.352630     -0.352633   1.000000   1.000000
   56       -0.306197     -0.306201   1.000000   1.000000
   57       -0.194552     -0.194551   1.000000   1.000000
   58       -0.127508     -0.127495   1.000000   1.000000
   59       -0.068492     -0.068481   1.000000   1.000000
   60        0.003246      0.003255   1.000000   1.000000
   61        0.120389      0.120389   1.000000   1.000000
   62        0.187422      0.187415   1.000000   1.000000
   63        0.363547      0.363540   1.000000   1.000000
   64        0.393856      0.393850   1.000000   1.000000
   65        6.277850      6.277906  -0.000000  -0.000000
   66        8.010710      8.010725   0.000000   0.000000
   67        8.340068      8.340112   0.000000   0.000000
   68        8.719300      8.719348   0.000000   0.000000
   69        8.742296      8.742341   0.000000   0.000000
   70        8.981999      8.982055   0.000000   0.000000
   71        9.206246      9.206295   0.000000   0.000000
   72        9.330152      9.330203   0.000000   0.000000
   73        9.658491      9.658538   0.000000   0.000000
   74        9.704514      9.704560   0.000000   0.000000
   75        9.819431      9.819488   0.000000   0.000000
   76       10.118369     10.118429   0.000000   0.000000
   77       10.298371     10.298420   0.000000   0.000000
   78       10.549812     10.549870   0.000000   0.000000
   79       10.581866     10.581890   0.000000   0.000000
   80       10.861943     10.861983   0.000000   0.000000
   81       11.031334     11.031404   0.000000   0.000000
   82       11.071798     11.071852   0.000000   0.000000
   83       11.181909     11.181970   0.000000   0.000000
   84       11.432657     11.432712   0.000000   0.000000
   85       11.527836     11.528547   0.000000   0.000000
   86       11.745160     11.761023   0.000000   0.000000
 
  0.1428571E+00  0.2000000E+00  0.9705155E-15  0.1428571E-01
    1      -42.019506    -42.019610   1.000000   1.000000
    2      -42.019080    -42.019184   1.000000   1.000000
    3      -41.884339    -41.884438   1.000000   1.000000
    4      -41.884104    -41.884203   1.000000   1.000000
    5      -41.793511    -41.793626   1.000000   1.000000
    6      -41.793315    -41.793429   1.000000   1.000000
    7      -41.768773    -41.768871   1.000000   1.000000
    8      -41.753629    -41.753727   1.000000   1.000000
    9      -20.079451    -20.079441   1.000000   1.000000
   10      -20.046678    -20.046669   1.000000   1.000000
   11      -18.869260    -18.869250   1.000000   1.000000
   12      -18.836372    -18.836363   1.000000   1.000000
   13      -17.526658    -17.526662   1.000000   1.000000
   14      -17.508868    -17.508873   1.000000   1.000000
   15      -17.016874    -17.016883   1.000000   1.000000
   16      -16.967563    -16.967573   1.000000   1.000000
   17      -16.780981    -16.780991   1.000000   1.000000
   18      -16.755174    -16.755184   1.000000   1.000000
   19      -16.690156    -16.690166   1.000000   1.000000
   20      -16.675275    -16.675285   1.000000   1.000000
   21      -16.656453    -16.656465   1.000000   1.000000
   22      -16.643236    -16.643248   1.000000   1.000000
   23       -8.651020     -8.650998   1.000000   1.000000
   24       -8.611151     -8.611130   1.000000   1.000000
   25       -6.072599     -6.072545   1.000000   1.000000
   26       -5.671467     -5.671426   1.000000   1.000000
   27       -5.094492     -5.094449   1.000000   1.000000
   28       -4.943407     -4.943370   1.000000   1.000000
   29       -4.579152     -4.579113   1.000000   1.000000
   30       -4.373081     -4.373045   1.000000   1.000000
   31       -4.302597     -4.302564   1.000000   1.000000
   32       -4.288041     -4.288014   1.000000   1.000000
   33       -3.924665     -3.924624   1.000000   1.000000
   34       -3.785393     -3.785358   1.000000   1.000000
   35       -3.673063     -3.673031   1.000000   1.000000
   36       -3.568396     -3.568361   1.000000   1.000000
   37       -3.083995     -3.083961   1.000000   1.000000
   38       -2.888072     -2.888043   1.000000   1.000000
   39       -2.318781     -2.318767   1.000000   1.000000
   40       -2.237033     -2.237022   1.000000   1.000000
   41       -2.155690     -2.155676   1.000000   1.000000
   42       -2.111637     -2.111626   1.000000   1.000000
   43       -1.975658     -1.975629   1.000000   1.000000
   44       -1.702563     -1.702553   1.000000   1.000000
   45       -1.586809     -1.586794   1.000000   1.000000
   46       -1.454005     -1.453997   1.000000   1.000000
   47       -1.311983     -1.311975   1.000000   1.000000
   48       -1.266396     -1.266388   1.000000   1.000000
   49       -1.197654     -1.197647   1.000000   1.000000
   50       -1.185009     -1.185003   1.000000   1.000000
   51       -1.134613     -1.134606   1.000000   1.000000
   52       -0.942407     -0.942404   1.000000   1.000000
   53       -0.683224     -0.683217   1.000000   1.000000
   54       -0.503235     -0.503233   1.000000   1.000000
   55       -0.394331     -0.394336   1.000000   1.000000
   56       -0.310806     -0.310806   1.000000   1.000000
   57       -0.221758     -0.221758   1.000000   1.000000
   58       -0.167555     -0.167547   1.000000   1.000000
   59       -0.043766     -0.043759   1.000000   1.000000
   60        0.021355      0.021365   1.000000   1.000000
   61        0.153736      0.153735   1.000000   1.000000
   62        0.166589      0.166582   1.000000   1.000000
   63        0.352147      0.352139   1.000000   1.000000
   64        0.406810      0.406804   1.000000   1.000000
   65        6.603630      6.603680   0.000000   0.000000
   66        7.913070      7.913086   0.000000   0.000000
   67        8.142796      8.142839   0.000000   0.000000
   68        8.734158      8.734204   0.000000   0.000000
   69        8.799420      8.799469   0.000000   0.000000
   70        8.972997      8.973049   0.000000   0.000000
   71        9.273864      9.273913   0.000000   0.000000
   72        9.330229      9.330272   0.000000   0.000000
   73        9.693459      9.693520   0.000000   0.000000
   74        9.866020      9.866055   0.000000   0.000000
   75        9.874901      9.874957   0.000000   0.000000
   76       10.025544     10.025607   0.000000   0.000000
   77       10.136002     10.136053   0.000000   0.000000