 running on   12 total cores
 distrk:  each k-point on   12 cores,    1 groups
 distr:  one band on    6 cores,    2 groups
 using from now: INCAR     
 vasp.6.1.2 22Jul20 (build Mar 20 2021 11:25:07) complex                        
  
 POSCAR found type information on POSCAR LiP O 
 POSCAR found :  3 types and      26 ions
 scaLAPACK will be used
 LDA part: xc-table for Pade appr. of Perdew
 generate k-points for:    7    5    4
 POSCAR, INCAR and KPOINTS ok, starting setup
 FFT: planning ...
 WAVECAR not read
 entering main loop
       N       E                     dE             d eps       ncg     rms          rms(c)
DAV:   1     0.111729966941E+04    0.11173E+04   -0.61973E+04 24424   0.152E+03
DAV:   2    -0.627244854530E+02   -0.11800E+04   -0.11096E+04 29296   0.394E+02
DAV:   3    -0.174382033438E+03   -0.11166E+03   -0.11095E+03 31526   0.124E+02
DAV:   4    -0.184052342687E+03   -0.96703E+01   -0.96293E+01 45880   0.296E+01
DAV:   5    -0.185629385930E+03   -0.15770E+01   -0.15766E+01 34592   0.691E+00    0.505E+01
DAV:   6    -0.165708578274E+03    0.19921E+02   -0.89496E+01 30512   0.319E+01    0.249E+01
DAV:   7    -0.167744559932E+03   -0.20360E+01   -0.73010E+00 31920   0.901E+00    0.895E+00
DAV:   8    -0.168030599891E+03   -0.28604E+00   -0.79350E-01 32708   0.356E+00    0.446E+00
DAV:   9    -0.168168303710E+03   -0.13770E+00   -0.13947E-01 33400   0.162E+00    0.168E+00
DAV:  10    -0.168193651106E+03   -0.25347E-01   -0.51466E-02 30584   0.110E+00    0.515E-01
DAV:  11    -0.168204401197E+03   -0.10750E-01   -0.11577E-02 30232   0.445E-01    0.305E-01
DAV:  12    -0.168207041333E+03   -0.26401E-02   -0.19856E-03 32552   0.201E-01    0.156E-01
DAV:  13    -0.168208286213E+03   -0.12449E-02   -0.10880E-03 28280   0.127E-01    0.457E-02
DAV:  14    -0.168208456743E+03   -0.17053E-03   -0.14448E-04 32344   0.601E-02    0.221E-02
DAV:  15    -0.168208515901E+03   -0.59158E-04   -0.66007E-05 25472   0.362E-02    0.138E-02
DAV:  16    -0.168208522758E+03   -0.68566E-05   -0.81410E-06 21056   0.145E-02
   1 F= -.16820852E+03 E0= -.16820852E+03  d E =0.000000E+00  mag=    -0.0014
