 running on    8 total cores
 distrk:  each k-point on    8 cores,    1 groups
 distr:  one band on    1 cores,    8 groups
 using from now: INCAR     
 vasp.6.1.2 22Jul20 (build Mar 20 2021 11:25:07) complex                        
  
 POSCAR found type information on POSCAR LiP 
 POSCAR found :  2 types and      16 ions
 scaLAPACK will be used
 -----------------------------------------------------------------------------
|                                                                             |
|           W    W    AA    RRRRR   N    N  II  N    N   GGGG   !!!           |
|           W    W   A  A   R    R  NN   N  II  NN   N  G    G  !!!           |
|           W    W  A    A  R    R  N N  N  II  N N  N  G       !!!           |
|           W WW W  AAAAAA  RRRRR   N  N N  II  N  N N  G  GGG   !            |
|           WW  WW  A    A  R   R   N   NN  II  N   NN  G    G                |
|           W    W  A    A  R    R  N    N  II  N    N   GGGG   !!!           |
|                                                                             |
|     The value NCORE = 6 specified in the INCAR file was overwritten,        |
|     because it was not compatible with the 8 processes available:           |
|     NCORE = 1                                                               |
|     was used instead, please check that this makes sense for your           |
|     machine.                                                                |
|                                                                             |
 -----------------------------------------------------------------------------

 -----------------------------------------------------------------------------
|                                                                             |
|           W    W    AA    RRRRR   N    N  II  N    N   GGGG   !!!           |
|           W    W   A  A   R    R  NN   N  II  NN   N  G    G  !!!           |
|           W    W  A    A  R    R  N N  N  II  N N  N  G       !!!           |
|           W WW W  AAAAAA  RRRRR   N  N N  II  N  N N  G  GGG   !            |
|           WW  WW  A    A  R   R   N   NN  II  N   NN  G    G                |
|           W    W  A    A  R    R  N    N  II  N    N   GGGG   !!!           |
|                                                                             |
|     For optimal performance we recommend to set                             |
|       NCORE = 4 - approx SQRT(number of cores).                             |
|     NCORE specifies how many cores store one orbital (NPAR=cpu/NCORE).      |
|     This setting can greatly improve the performance of VASP for DFT.       |
|     The default, NCORE=1 might be grossly inefficient on modern             |
|     multi-core architectures or massively parallel machines. Do your        |
|     own testing!!!!                                                         |
|     Unfortunately you need to use the default for GW and RPA                |
|     calculations (for HF NCORE is supported but not extensively tested      |
|     yet).                                                                   |
|                                                                             |
 -----------------------------------------------------------------------------

 LDA part: xc-table for Pade appr. of Perdew
 generate k-points for:    6    6    4
 POSCAR, INCAR and KPOINTS ok, starting setup
 FFT: planning ...
 WAVECAR not read
 entering main loop
       N       E                     dE             d eps       ncg     rms          rms(c)
DAV:   1     0.393607951646E+03    0.39361E+03   -0.25686E+04 14592   0.131E+03
DAV:   2    -0.440281467911E+01   -0.39801E+03   -0.36417E+03 16280   0.314E+02
DAV:   3    -0.558403999055E+02   -0.51438E+02   -0.50781E+02 20888   0.877E+01
DAV:   4    -0.632723186032E+02   -0.74319E+01   -0.73546E+01 25848   0.325E+01
DAV:   5    -0.639756774390E+02   -0.70336E+00   -0.70307E+00 20256   0.736E+00    0.210E+01
DAV:   6    -0.652921533911E+02   -0.13165E+01   -0.27628E+00 19560   0.644E+00    0.112E+01
DAV:   7    -0.665687729298E+02   -0.12766E+01   -0.71910E-01 17864   0.407E+00    0.590E+00
DAV:   8    -0.668031665452E+02   -0.23439E+00   -0.61151E-01 19008   0.287E+00    0.126E+00
DAV:   9    -0.668337988086E+02   -0.30632E-01   -0.80790E-02 21880   0.110E+00    0.501E-01
DAV:  10    -0.668375645729E+02   -0.37658E-02   -0.65664E-03 18744   0.372E-01    0.214E-01
DAV:  11    -0.668390295648E+02   -0.14650E-02   -0.18980E-03 18248   0.203E-01    0.994E-02
DAV:  12    -0.668393106418E+02   -0.28108E-03   -0.59518E-04 18496   0.100E-01    0.412E-02
DAV:  13    -0.668393563120E+02   -0.45670E-04   -0.93011E-05 17104   0.496E-02    0.207E-02
DAV:  14    -0.668393701552E+02   -0.13843E-04   -0.29140E-05 14968   0.274E-02    0.623E-03
DAV:  15    -0.668393717401E+02   -0.15849E-05   -0.40451E-06 10896   0.121E-02
   1 F= -.66839372E+02 E0= -.66839372E+02  d E =0.000000E+00  mag=    -0.0003
