   12   12    1    2
  0.1068527E+02  0.5756834E-09  0.5330402E-09  0.4748969E-09  0.5000000E-15
  1.000000000000000E-004
  CAR 
 unknown system                          
     56     88     40
 
  0.0000000E+00  0.0000000E+00  0.0000000E+00  0.3401361E-02
    1      -41.168588    -41.168492   1.000000   1.000000
    2      -41.161607    -41.161510   1.000000   1.000000
    3      -41.003773    -41.003675   1.000000   1.000000
    4      -40.994448    -40.994351   1.000000   1.000000
    5      -17.247983    -17.248017   1.000000   1.000000
    6      -16.664055    -16.664095   1.000000   1.000000
    7      -15.132551    -15.132591   1.000000   1.000000
    8      -15.090473    -15.090514   1.000000   1.000000
    9      -13.333642    -13.333670   1.000000   1.000000
   10      -11.730982    -11.731006   1.000000   1.000000
   11       -7.474378     -7.474405   1.000000   1.000000
   12       -4.259981     -4.259995   1.000000   1.000000
   13       -4.023721     -4.023732   1.000000   1.000000
   14       -3.365188     -3.365196   1.000000   1.000000
   15       -3.321864     -3.321872   1.000000   1.000000
   16       -2.180785     -2.180807   1.000000   1.000000
   17       -1.184342     -1.184344   1.000000   1.000000
   18       -1.179817     -1.179823   1.000000   1.000000
   19       -0.308275     -0.308282   1.000000   1.000000
   20       -0.199515     -0.199519   1.000000   1.000000
   21        0.049650      0.049644   1.000000   1.000000
   22        0.580726      0.580709   1.000000   1.000000
   23        0.636733      0.636717   1.000000   1.000000
   24        0.771473      0.771457   1.000000   1.000000
   25        0.959869      0.959855   1.000000   1.000000
   26        1.411628      1.411617   1.000000   1.000000
   27        1.488116      1.488113   1.000000   1.000000
   28        2.106213      2.106222   1.000000   1.000000
   29        6.960688      6.960737   0.000002   0.000002
   30        8.848195      8.848190   0.000000   0.000000
   31        8.887135      8.887155   0.000000   0.000000
   32        9.791862      9.791828   0.000000   0.000000
   33       10.718142     10.718206   0.000000   0.000000
   34       11.143731     11.143567   0.000000   0.000000
   35       11.201036     11.201055   0.000000   0.000000
   36       11.806066     11.806716   0.000000   0.000000
   37       12.204740     12.204688   0.000000   0.000000
   38       12.371184     12.388213   0.000000   0.000000
   39       12.605034     12.621896   0.000000   0.000000
   40       12.708709     12.728026   0.000000   0.000000
 
  0.1666667E+00  0.2279560E-16  0.0000000E+00  0.6802721E-02
    1      -41.168505    -41.168409   1.000000   1.000000
    2      -41.161698    -41.161601   1.000000   1.000000
    3      -41.003816    -41.003718   1.000000   1.000000
    4      -40.994456    -40.994359   1.000000   1.000000
    5      -17.230640    -17.230674   1.000000   1.000000
    6      -16.681588    -16.681627   1.000000   1.000000
    7      -15.133783    -15.133823   1.000000   1.000000
    8      -15.097631    -15.097672   1.000000   1.000000
    9      -13.332535    -13.332564   1.000000   1.000000
   10      -11.727848    -11.727872   1.000000   1.000000
   11       -7.481110     -7.481137   1.000000   1.000000
   12       -4.256456     -4.256470   1.000000   1.000000
   13       -3.978946     -3.978957   1.000000   1.000000
   14       -3.387530     -3.387539   1.000000   1.000000
   15       -3.255718     -3.255727   1.000000   1.000000
   16       -2.213785     -2.213807   1.000000   1.000000
   17       -1.275914     -1.275917   1.000000   1.000000
   18       -0.957092     -0.957099   1.000000   1.000000
   19       -0.273089     -0.273097   1.000000   1.000000
   20       -0.161082     -0.161088   1.000000   1.000000
   21        0.046058      0.046052   1.000000   1.000000
   22        0.369164      0.369152   1.000000   1.000000
   23        0.525164      0.525151   1.000000   1.000000
   24        0.768844      0.768831   1.000000   1.000000
   25        0.949583      0.949566   1.000000   1.000000
   26        1.342290      1.342282   1.000000   1.000000
   27        1.545849      1.545844   1.000000   1.000000
   28        2.102439      2.102448   1.000000   1.000000
   29        7.272068      7.272111  -0.000000  -0.000000
   30        8.796522      8.796534   0.000000   0.000000
   31        8.919325      8.919335   0.000000   0.000000
   32        9.891623      9.891678   0.000000   0.000000
   33       10.396172     10.396219   0.000000   0.000000
   34       10.913329     10.913325   0.000000   0.000000
   35       11.310789     11.311014   0.000000   0.000000
   36       11.434283     11.434314   0.000000   0.000000
   37       12.121692     12.121662   0.000000   0.000000
   38       12.320793     12.317418   0.000000   0.000000
   39       12.337147     12.336462   0.000000   0.000000
   40       13.759159     13.132882   0.000000   0.000000
 
  0.3333333E+00  0.3060163E-16  0.0000000E+00  0.6802721E-02
    1      -41.168300    -41.168204   1.000000   1.000000
    2      -41.161865    -41.161769   1.000000   1.000000
    3      -41.003847    -41.003750   1.000000   1.000000
    4      -40.994467    -40.994369   1.000000   1.000000
    5      -17.191804    -17.191839   1.000000   1.000000
    6      -16.720658    -16.720696   1.000000   1.000000
    7      -15.134296    -15.134336   1.000000   1.000000
    8      -15.113709    -15.113749   1.000000   1.000000
    9      -13.330117    -13.330146   1.000000   1.000000
   10      -11.721848    -11.721872   1.000000   1.000000
   11       -7.493872     -7.493898   1.000000   1.000000
   12       -4.261195     -4.261209   1.000000   1.000000
   13       -3.857076     -3.857090   1.000000   1.000000
   14       -3.484789     -3.484797   1.000000   1.000000
   15       -3.057021     -3.057034   1.000000   1.000000
   16       -2.304586     -2.304606   1.000000   1.000000
   17       -1.164979     -1.164985   1.000000   1.000000
   18       -0.763840     -0.763850   1.000000   1.000000
   19       -0.299293     -0.299300   1.000000   1.000000
   20       -0.112369     -0.112378   1.000000   1.000000
   21       -0.025405     -0.025407   1.000000   1.000000
   22        0.163838      0.163832   1.000000   1.000000
   23        0.356256      0.356247   1.000000   1.000000
   24        0.709532      0.709523   1.000000   1.000000
   25        0.892692      0.892671   1.000000   1.000000
   26        1.195192      1.195186   1.000000   1.000000
   27        1.660668      1.660660   1.000000   1.000000
   28        2.087480      2.087489   1.000000   1.000000
   29        8.002216      8.002239   0.000000   0.000000
   30        8.653876      8.653893   0.000000   0.000000
   31        8.971535      8.971538   0.000000   0.000000
   32        9.927058      9.927087   0.000000   0.000000
   33       10.098855     10.098911   0.000000   0.000000
   34       10.529516     10.529495   0.000000   0.000000
   35       10.747345     10.747375   0.000000   0.000000
   36       11.507011     11.506592   0.000000   0.000000
   37       11.702342     11.702332   0.000000   0.000000
   38       12.183574     12.183922   0.000000   0.000000
   39       12.660088     12.663555   0.000000   0.000000
   40       13.795148     13.750696   0.000000   0.000000
 
  0.5000000E+00  0.1177172E-15  0.0000000E+00  0.3401361E-02
    1      -41.168174    -41.168077   1.000000   1.000000
    2      -41.161925    -41.161828   1.000000   1.000000
    3      -41.003855    -41.003758   1.000000   1.000000
    4      -40.994431    -40.994333   1.000000   1.000000
    5      -17.169458    -17.169493   1.000000   1.000000
    6      -16.743090    -16.743128   1.000000   1.000000
    7      -15.128563    -15.128603   1.000000   1.000000
    8      -15.127537    -15.127577   1.000000   1.000000
    9      -13.328641    -13.328670   1.000000   1.000000
   10      -11.719008    -11.719032   1.000000   1.000000
   11       -7.499898     -7.499924   1.000000   1.000000
   12       -4.267624     -4.267638   1.000000   1.000000
   13       -3.759631     -3.759647   1.000000   1.000000
   14       -3.566700     -3.566707   1.000000   1.000000
   15       -2.922265     -2.922280   1.000000   1.000000
   16       -2.375938     -2.375956   1.000000   1.000000
   17       -1.021188     -1.021199   1.000000   1.000000
   18       -0.741311     -0.741323   1.000000   1.000000
   19       -0.371613     -0.371613   1.000000   1.000000
   20       -0.180678     -0.180683   1.000000   1.000000
   21       -0.085504     -0.085508   1.000000   1.000000
   22        0.171048      0.171043   1.000000   1.000000
   23        0.364060      0.364051   1.000000   1.000000
   24        0.684695      0.684683   1.000000   1.000000
   25        0.846559      0.846538   1.000000   1.000000
   26        1.098697      1.098696   1.000000   1.000000
   27        1.721276      1.721265   1.000000   1.000000
   28        2.075878      2.075887   1.000000   1.000000
   29        8.347902      8.347899   0.000000   0.000000
   30        8.888686      8.888693   0.000000   0.000000
   31        8.951535      8.951570   0.000000   0.000000
   32        9.496410      9.496445   0.000000   0.000000
   33       10.157534     10.157626   0.000000   0.000000
   34       10.321879     10.321815   0.000000   0.000000
   35       10.546203     10.546259   0.000000   0.000000
   36       11.482296     11.482145   0.000000   0.000000
   37       11.524366     11.524288   0.000000   0.000000
   38       12.311525     12.311725   0.000000   0.000000
   39       12.977971     12.973042   0.000000   0.000000
   40       13.385289     13.413790   0.000000   0.000000
 
 -0.1818762E-16  0.1428571E+00  0.0000000E+00  0.6802721E-02
    1      -41.168552    -41.168456   1.000000   1.000000
    2      -41.161624    -41.161528   1.000000   1.000000
    3      -41.003827    -41.003730   1.000000   1.000000
    4      -40.994429    -40.994331   1.000000   1.000000
    5      -17.229013    -17.229046   1.000000   1.000000
    6      -16.679877    -16.679916   1.000000   1.000000
    7      -15.148031    -15.148071   1.000000   1.000000
    8      -15.086451    -15.086492   1.000000   1.000000
    9      -13.334723    -13.334751   1.000000   1.000000
   10      -11.728418    -11.728442   1.000000   1.000000
   11       -7.485042     -7.485069   1.000000   1.000000
   12       -4.251541     -4.251555   1.000000   1.000000
   13       -3.995948     -3.995959   1.000000   1.000000
   14       -3.390048     -3.390057   1.000000   1.000000
   15       -3.242908     -3.242917   1.000000   1.000000
   16       -2.205462     -2.205484   1.000000   1.000000
   17       -1.282220     -1.282223   1.000000   1.000000
   18       -0.954957     -0.954965   1.000000   1.000000
   19       -0.303696     -0.303704   1.000000   1.000000
   20       -0.169754     -0.169760   1.000000   1.000000
   21        0.039308      0.039303   1.000000   1.000000
   22        0.511290      0.511276   1.000000   1.000000
   23        0.553070      0.553057   1.000000   1.000000
   24        0.698367      0.698350   1.000000   1.000000
   25        0.914521      0.914509   1.000000   1.000000
   26        1.359198      1.359188   1.000000   1.000000
   27        1.548793      1.548789   1.000000   1.000000
   28        2.112082      2.112091   1.000000   1.000000
   29        7.161309      7.161353   0.000000   0.000000
   30        8.863142      8.863159   0.000000   0.000000
   31        8.960069      8.960087   0.000000   0.000000
   32        9.739963      9.739981   0.000000   0.000000
   33       10.565435     10.565481   0.000000   0.000000
   34       10.878502     10.878505   0.000000   0.000000
   35       11.308797     11.308870   0.000000   0.000000
   36       11.376371     11.376299   0.000000   0.000000
   37       12.284105     12.283397   0.000000   0.000000
   38       12.322108     12.322223   0.000000   0.000000
   39       12.497888     12.497277   0.000000   0.000000
   40       12.753168     12.742017   0.000000   0.000000
 
  0.1666667E+00  0.1428571E+00  0.0000000E+00  0.6802721E-02
    1      -41.168404    -41.168308   1.000000   1.000000
    2      -41.161725    -41.161629   1.000000   1.000000
    3      -41.003844    -41.003747   1.000000   1.000000
    4      -40.994425    -40.994327   1.000000   1.000000
    5      -17.196817    -17.196851   1.000000   1.000000
    6      -16.713913    -16.713952   1.000000   1.000000
    7      -15.163027    -15.163066   1.000000   1.000000
    8      -15.083035    -15.083076   1.000000   1.000000
    9      -13.330480    -13.330509   1.000000   1.000000
   10      -11.723885    -11.723909   1.000000   1.000000
   11       -7.493823     -7.493849   1.000000   1.000000
   12       -4.267750     -4.267763   1.000000   1.000000
   13       -3.903618     -3.903630   1.000000   1.000000
   14       -3.438776     -3.438786   1.000000   1.000000
   15       -3.150676     -3.150686   1.000000   1.000000
   16       -2.275497     -2.275518   1.000000   1.000000
   17       -1.229014     -1.229019   1.000000   1.000000
   18       -0.687669     -0.687680   1.000000   1.000000
   19       -0.229865     -0.229873   1.000000   1.000000
   20       -0.202302     -0.202310   1.000000   1.000000
   21        0.038635      0.038632   1.000000   1.000000
   22        0.247343      0.247335   1.000000   1.000000
   23        0.307357      0.307348   1.000000   1.000000
   24        0.771756      0.771743   1.000000   1.000000
   25        0.840927      0.840910   1.000000   1.000000
   26        1.240198      1.240191   1.000000   1.000000
   27        1.663018      1.663010   1.000000   1.000000
   28        2.122713      2.122721   1.000000   1.000000
   29        7.595237      7.595272   0.000000   0.000000
   30        8.777300      8.777315   0.000000   0.000000
   31        9.000265      9.000272   0.000000   0.000000
   32        9.771912      9.771943   0.000000   0.000000
   33       10.310632     10.310672   0.000000   0.000000
   34       10.682157     10.682174   0.000000   0.000000
   35       10.926187     10.926225   0.000000   0.000000
   36       11.354756     11.354760   0.000000   0.000000
   37       11.868766     11.868354   0.000000   0.000000
   38       12.022620     12.022536   0.000000   0.000000
   39       12.518433     12.518805   0.000000   0.000000
   40       13.250004     13.360426   0.000000   0.000000
 
  0.3333333E+00  0.1428571E+00  0.0000000E+00  0.6802721E-02
    1      -41.168236    -41.168140   1.000000   1.000000
    2      -41.161861    -41.161765   1.000000   1.000000
    3      -41.003860    -41.003762   1.000000   1.000000
    4      -40.994436    -40.994338   1.000000   1.000000
    5      -17.164708    -17.164743   1.000000   1.000000
    6      -16.744420    -16.744458   1.000000   1.000000
    7      -15.171840    -15.171879   1.000000   1.000000
    8      -15.088759    -15.088800   1.000000   1.000000
    9      -13.330116    -13.330145   1.000000   1.000000
   10      -11.719207    -11.719231   1.000000   1.000000
   11       -7.504673     -7.504699   1.000000   1.000000
   12       -4.268144     -4.268158   1.000000   1.000000
   13       -3.779136     -3.779151   1.000000   1.000000
   14       -3.522477     -3.522486   1.000000   1.000000
   15       -2.965217     -2.965230   1.000000   1.000000
   16       -2.353318     -2.353337   1.000000   1.000000
   17       -1.056627     -1.056636   1.000000   1.000000
   18       -0.651118     -0.651131   1.000000   1.000000
   19       -0.348855     -0.348856   1.000000   1.000000
   20       -0.318898     -0.318900   1.000000   1.000000
   21        0.060385      0.060376   1.000000   1.000000
   22        0.136106      0.136103   1.000000   1.000000
   23        0.300940      0.300930   1.000000   1.000000
   24        0.696282      0.696271   1.000000   1.000000
   25        0.857214      0.857193   1.000000   1.000000
   26        1.104356      1.104355   1.000000   1.000000
   27        1.739132      1.739121   1.000000   1.000000
   28        2.103303      2.103311   1.000000   1.000000
   29        8.183792      8.183802   0.000000   0.000000
   30        8.649999      8.650020   0.000000   0.000000
   31        9.096400      9.096417   0.000000   0.000000
   32        9.664454      9.664478   0.000000   0.000000
   33       10.094753     10.094652   0.000000   0.000000
   34       10.245664     10.245696   0.000000   0.000000
   35       10.862445     10.862438   0.000000   0.000000
   36       11.322479     11.322714   0.000000   0.000000
   37       11.693210     11.693295   0.000000   0.000000
   38       11.977080     11.976850   0.000000   0.000000
   39       12.711694     12.714014   0.000000   0.000000
   40       13.590832     13.575321   0.000000   0.000000
 
  0.5000000E+00  0.1428571E+00  0.0000000E+00  0.6802721E-02
    1      -41.168231    -41.168135   1.000000   1.000000
    2      -41.161885    -41.161789   1.000000   1.000000
    3      -41.003862    -41.003764   1.000000   1.000000
    4      -40.994460    -40.994362   1.000000   1.000000
    5      -17.170086    -17.170121   1.000000   1.000000
    6      -16.735620    -16.735658   1.000000   1.000000
    7      -15.166456    -15.166495   1.000000   1.000000
    8      -15.097016    -15.097057   1.000000   1.000000
    9      -13.334275    -13.334304   1.000000   1.000000
   10      -11.718748    -11.718772   1.000000   1.000000
   11       -7.507345     -7.507371   1.000000   1.000000
   12       -4.251193     -4.251207   1.000000   1.000000
   13       -3.765255     -3.765271   1.000000   1.000000
   14       -3.529607     -3.529615   1.000000   1.000000
   15       -2.903536     -2.903551   1.000000   1.000000
   16       -2.348736     -2.348754   1.000000   1.000000
   17       -1.038971     -1.038980   1.000000   1.000000
   18       -0.843607     -0.843614   1.000000   1.000000
   19       -0.370688     -0.370692   1.000000   1.000000
   20       -0.326961     -0.326962   1.000000   1.000000
   21        0.024521      0.024511   1.000000   1.000000
   22        0.167999      0.167996   1.000000   1.000000
   23        0.423353      0.423342   1.000000   1.000000
   24        0.657537      0.657526   1.000000   1.000000
   25        0.890737      0.890717   1.000000   1.000000
   26        1.134577      1.134575   1.000000   1.000000
   27        1.694706      1.694696   1.000000   1.000000
   28        2.080645      2.080653   1.000000   1.000000
   29        8.340791      8.340792   0.000000   0.000000
   30        8.777043      8.777066   0.000000   0.000000
   31        8.905335      8.905362   0.000000   0.000000
   32        9.470426      9.470484   0.000000   0.000000
   33       10.175379     10.175395   0.000000   0.000000
   34       10.368390     10.368368   0.000000   0.000000
   35       10.850113     10.850149   0.000000   0.000000
   36       11.270770     11.270812   0.000000   0.000000
   37       11.694507     11.695810   0.000000   0.000000
   38       12.308149     12.308610   0.000000   0.000000
   39       12.856802     12.849986   0.000000   0.000000
   40       13.300654     13.272250   0.000000   0.000000
 
 -0.3333333E+00  0.1428571E+00  0.0000000E+00  0.6802721E-02
    1      -41.168374    -41.168277   1.000000   1.000000
    2      -41.161783    -41.161687   1.000000   1.000000
    3      -41.003829    -41.003732   1.000000   1.000000
    4      -40.994467    -40.994370   1.000000   1.000000
    5      -17.205718    -17.205752   1.000000   1.000000
    6      -16.698056    -16.698094   1.000000   1.000000
    7      -15.148795    -15.148835   1.000000   1.000000
    8      -15.103016    -15.103057   1.000000   1.000000
    9      -13.338798    -13.338827   1.000000   1.000000
   10      -11.723016    -11.723040   1.000000   1.000000
   11       -7.498822     -7.498849   1.000000   1.000000
   12       -4.227184     -4.227198   1.000000   1.000000
   13       -3.906737     -3.906750   1.000000   1.000000
   14       -3.425376     -3.425385   1.000000   1.000000
   15       -3.058829     -3.058842   1.000000   1.000000
   16       -2.244169     -2.244190   1.000000   1.000000
   17       -1.191043     -1.191047   1.000000   1.000000
   18       -0.987909     -0.987914   1.000000   1.000000
   19       -0.368074     -0.368080   1.000000   1.000000
   20       -0.103336     -0.103346   1.000000   1.000000
   21       -0.044065     -0.044071   1.000000   1.000000
   22        0.203194      0.203189   1.000000   1.000000
   23        0.518457      0.518444   1.000000   1.000000
   24        0.732630      0.732620   1.000000   1.000000
   25        0.956241      0.956220   1.000000   1.000000
   26        1.268000      1.267993   1.000000   1.000000
   27        1.571108      1.571101   1.000000   1.000000
   28        2.072603      2.072613   1.000000   1.000000
   29        7.820335      7.820366   0.000000   0.000000
   30        8.752338      8.752351   0.000000   0.000000
   31        8.962797      8.962784   0.000000   0.000000
   32        9.751884      9.752021   0.000000   0.000000
   33       10.125475     10.125439   0.000000   0.000000
   34       10.620658     10.620646   0.000000   0.000000
   35       11.136487     11.136998   0.000000   0.000000
   36       11.450613     11.450735   0.000000   0.000000
   37       11.975329     11.975486   0.000000   0.000000
   38       12.385998     12.386515   0.000000   0.000000
   39       12.502333     12.508274   0.000000   0.000000
   40       13.407496     13.455057   0.000000   0.000000
 
 -0.1666667E+00  0.1428571E+00  0.0000000E+00  0.6802721E-02
    1      -41.168530    -41.168434   1.000000   1.000000
    2      -41.161659    -41.161563   1.000000   1.000000
    3      -41.003807    -41.003710   1.000000   1.000000
    4      -40.994457    -40.994359   1.000000   1.000000
    5      -17.232857    -17.232891   1.000000   1.000000
    6      -16.672574    -16.672613   1.000000   1.000000
    7      -15.138395    -15.138435   1.000000   1.000000
    8      -15.098899    -15.098940   1.000000   1.000000
    9      -13.338919    -13.338948   1.000000   1.000000
   10      -11.727977    -11.728001   1.000000   1.000000
   11       -7.487347     -7.487373   1.000000   1.000000
   12       -4.226068     -4.226083   1.000000   1.000000
   13       -4.007353     -4.007364   1.000000   1.000000
   14       -3.370470     -3.370479   1.000000   1.000000
   15       -3.212298     -3.212308   1.000000   1.000000
   16       -2.183983     -2.184005   1.000000   1.000000
   17       -1.175860     -1.175865   1.000000   1.000000
   18       -1.165311     -1.165313   1.000000   1.000000
   19       -0.370840     -0.370846   1.000000   1.000000
   20       -0.165462     -0.165468   1.000000   1.000000
   21        0.100914      0.100905   1.000000   1.000000
   22        0.362460      0.362450   1.000000   1.000000
   23        0.637754      0.637740   1.000000   1.000000
   24        0.775956      0.775939   1.000000   1.000000
   25        0.944095      0.944080   1.000000   1.000000
   26        1.370049      1.370039   1.000000   1.000000
   27        1.497587      1.497583   1.000000   1.000000
   28        2.085570      2.085580   1.000000   1.000000
   29        7.248368      7.248412  -0.000000  -0.000000
   30        8.815501      8.815506   0.000000   0.000000
   31        8.994116      8.994089   0.000000   0.000000
   32        9.884449      9.884375   0.000000   0.000000
   33       10.253511     10.253439   0.000000   0.000000
   34       10.887300     10.887284   0.000000   0.000000
   35       11.177419     11.177586   0.000000   0.000000
   36       11.837931     11.838048   0.000000   0.000000
   37       12.096649     12.096880   0.000000   0.000000
   38       12.496220     12.503523   0.000000   0.000000
   39       12.605599     12.656768   0.000000   0.000000
   40       13.022349     13.655622   0.000000   0.000000
 
 -0.1212689E-16  0.2857143E+00  0.0000000E+00  0.6802721E-02
    1      -41.168464    -41.168367   1.000000   1.000000
    2      -41.161663    -41.161567   1.000000   1.000000
    3      -41.003896    -41.003799   1.000000   1.000000
    4      -40.994419    -40.994322   1.000000   1.000000
    5      -17.181028    -17.181063   1.000000   1.000000
    6      -16.720784    -16.720822   1.000000   1.000000
    7      -15.176629    -15.176668   1.000000   1.000000
    8      -15.083703    -15.083744   1.000000   1.000000
    9      -13.336715    -13.336744   1.000000   1.000000
   10      -11.722955    -11.722979   1.000000   1.000000
   11       -7.508520     -7.508546   1.000000   1.000000
   12       -4.248692     -4.248706   1.000000   1.000000
   13       -3.894054     -3.894066   1.000000   1.000000
   14       -3.467538     -3.467547   1.000000   1.000000
   15       -3.040830     -3.040842   1.000000   1.000000
   16       -2.276414     -2.276434   1.000000   1.000000
   17       -1.205711     -1.205715   1.000000   1.000000
   18       -0.710307     -0.710315   1.000000   1.000000
   19       -0.348154     -0.348161   1.000000   1.000000
   20       -0.088176     -0.088186   1.000000   1.000000
   21        0.020234      0.020230   1.000000   1.000000
   22        0.142688      0.142683   1.000000   1.000000
   23        0.470263      0.470252   1.000000   1.000000
   24        0.664853      0.664836   1.000000   1.000000
   25        0.811014      0.811003   1.000000   1.000000
   26        1.245053      1.245046   1.000000   1.000000
   27        1.685832      1.685823   1.000000   1.000000
   28        2.123185      2.123193   1.000000   1.000000
   29        7.608781      7.608813   0.000000   0.000000
   30        8.890084      8.890103   0.000000   0.000000
   31        9.059839      9.059842   0.000000   0.000000
   32        9.662391      9.662418   0.000000   0.000000
   33       10.249991     10.250004   0.000000   0.000000
   34       10.556267     10.556154   0.000000   0.000000
   35       10.801612     10.801644   0.000000   0.000000
   36       11.277760     11.277713   0.000000   0.000000
   37       11.939798     11.939547   0.000000   0.000000
   38       12.406096     12.406741   0.000000   0.000000
   39       12.510136     12.511497   0.000000   0.000000
   40       12.982231     12.982124   0.000000   0.000000
 
  0.1666667E+00  0.2857143E+00  0.0000000E+00  0.6802721E-02
    1      -41.168341    -41.168244   1.000000   1.000000
    2      -41.161739    -41.161643   1.000000   1.000000
    3      -41.003916    -41.003819   1.000000   1.000000
    4      -40.994401    -40.994303   1.000000   1.000000
    5      -17.150682    -17.150718   1.000000   1.000000
    6      -16.751513    -16.751551   1.000000   1.000000
    7      -15.193540    -15.193579   1.000000   1.000000
    8      -15.077215    -15.077256   1.000000   1.000000
    9      -13.333771    -13.333800   1.000000   1.000000
   10      -11.719391    -11.719415   1.000000   1.000000
   11       -7.515880     -7.515905   1.000000   1.000000
   12       -4.264901     -4.264914   1.000000   1.000000
   13       -3.788637     -3.788651   1.000000   1.000000
   14       -3.510761     -3.510771   1.000000   1.000000
   15       -2.952661     -2.952674   1.000000   1.000000
   16       -2.339839     -2.339858   1.000000   1.000000
   17       -1.080162     -1.080170   1.000000   1.000000
   18       -0.521202     -0.521216   1.000000   1.000000
   19       -0.417837     -0.417838   1.000000   1.000000
   20       -0.267655     -0.267655   1.000000   1.000000
   21       -0.013101     -0.013108   1.000000   1.000000
   22        0.107270      0.107265   1.000000   1.000000
   23        0.350408      0.350399   1.000000   1.000000
   24        0.708166      0.708156   1.000000   1.000000
   25        0.787966      0.787948   1.000000   1.000000
   26        1.128361      1.128358   1.000000   1.000000
   27        1.777560      1.777548   1.000000   1.000000
   28        2.132479      2.132487   1.000000   1.000000
   29        7.923154      7.923175   0.000000   0.000000
   30        8.810217      8.810234   0.000000   0.000000
   31        9.107437      9.107449   0.000000   0.000000
   32        9.555441      9.555462   0.000000   0.000000
   33       10.106058     10.106044   0.000000   0.000000
   34       10.489981     10.490011   0.000000   0.000000
   35       10.665412     10.665441   0.000000   0.000000
   36       11.251824     11.252304   0.000000   0.000000
   37       11.625090     11.624847   0.000000   0.000000
   38       12.103917     12.104364   0.000000   0.000000
   39       12.620227     12.621275   0.000000   0.000000
   40       13.327325     13.421235   0.000000   0.000000
 
  0.3333333E+00  0.2857143E+00  0.0000000E+00  0.6802721E-02
    1      -41.168264    -41.168167   1.000000   1.000000
    2      -41.161821    -41.161724   1.000000   1.000000
    3      -41.003909    -41.003811   1.000000   1.000000
    4      -40.994433    -40.994336   1.000000   1.000000
    5      -17.145157    -17.145193   1.000000   1.000000
    6      -16.751332    -16.751370   1.000000   1.000000
    7      -15.204807    -15.204846   1.000000   1.000000
    8      -15.075662    -15.075703   1.000000   1.000000
    9      -13.338811    -13.338839   1.000000   1.000000
   10      -11.717068    -11.717092   1.000000   1.000000
   11       -7.523228     -7.523254   1.000000   1.000000
   12       -4.250971     -4.250985   1.000000   1.000000
   13       -3.701057     -3.701076   1.000000   1.000000
   14       -3.536800     -3.536808   1.000000   1.000000
   15       -2.836885     -2.836900   1.000000   1.000000
   16       -2.353679     -2.353697   1.000000   1.000000
   17       -0.986105     -0.986115   1.000000   1.000000
   18       -0.810775     -0.810779   1.000000   1.000000
   19       -0.516188     -0.516186   1.000000   1.000000