       N       E                     dE             d eps       ncg     rms          rms(c)
DAV:   1     0.411414117345E+03    0.41141E+03   -0.26912E+04 14080   0.144E+03
DAV:   2    -0.409103237041E+02   -0.45232E+03   -0.43338E+03 16416   0.361E+02
DAV:   3    -0.804564081502E+02   -0.39546E+02   -0.39337E+02 20648   0.101E+02
DAV:   4    -0.837311691339E+02   -0.32748E+01   -0.32605E+01 23640   0.232E+01
DAV:   5    -0.839942645162E+02   -0.26310E+00   -0.26308E+00 19680   0.472E+00    0.304E+01
RMM:   6    -0.761360228009E+02    0.78582E+01   -0.30846E+01 15173   0.225E+01    0.123E+01
RMM:   7    -0.766957088433E+02   -0.55969E+00   -0.41751E+00 21042   0.953E+00    0.643E+00
RMM:   8    -0.768460491434E+02   -0.15034E+00   -0.88168E-01 23129   0.460E+00    0.342E+00
RMM:   9    -0.768809326797E+02   -0.34884E-01   -0.25044E-01 22944   0.297E+00    0.947E-01
RMM:  10    -0.769060234035E+02   -0.25091E-01   -0.17397E-01 26084   0.177E+00    0.357E-01
RMM:  11    -0.769153942325E+02   -0.93708E-02   -0.77480E-02 26805   0.106E+00    0.251E-01
RMM:  12    -0.769201197977E+02   -0.47256E-02   -0.33148E-02 27291   0.680E-01    0.143E-01
RMM:  13    -0.769220489108E+02   -0.19291E-02   -0.14280E-02 27063   0.446E-01    0.623E-02
RMM:  14    -0.769227756950E+02   -0.72678E-03   -0.58617E-03 27079   0.314E-01    0.369E-02
RMM:  15    -0.769230892213E+02   -0.31353E-03   -0.29521E-03 26489   0.200E-01    0.226E-02
RMM:  16    -0.769232162315E+02   -0.12701E-03   -0.11961E-03 26168   0.134E-01    0.139E-02
RMM:  17    -0.769232723894E+02   -0.56158E-04   -0.58438E-04 25513   0.937E-02    0.958E-03
RMM:  18    -0.769233061179E+02   -0.33728E-04   -0.27866E-04 25304   0.669E-02    0.609E-03
RMM:  19    -0.769233170425E+02   -0.10925E-04   -0.10969E-04 21636   0.460E-02    0.524E-03
RMM:  20    -0.769233189594E+02   -0.19169E-05   -0.31795E-05 18447   0.372E-02
   1 F= -.76923319E+02 E0= -.76923319E+02  d E =0.000000E+00  mag=     0.0000
