 running on   12 total cores
 distrk:  each k-point on   12 cores,    1 groups
 distr:  one band on    6 cores,    2 groups
 using from now: INCAR     
 vasp.6.1.2 22Jul20 (build Mar 20 2021 11:25:07) complex                        
  
 POSCAR found type information on POSCAR LiP N 
 POSCAR found :  3 types and       8 ions
 scaLAPACK will be used
 -----------------------------------------------------------------------------
|                                                                             |
|               ----> ADVICE to this user running VASP <----                  |
|                                                                             |
|     You have a (more or less) 'small supercell' and for smaller cells       |
|     it is recommended to use the reciprocal-space projection scheme!        |
|     The real-space optimization is not efficient for small cells and it     |
|     is also less accurate ...                                               |
|     Therefore, set LREAL=.FALSE. in the INCAR file.                         |
|                                                                             |
 -----------------------------------------------------------------------------

 LDA part: xc-table for Pade appr. of Perdew
 generate k-points for:    9    8   10
 POSCAR, INCAR and KPOINTS ok, starting setup
 FFT: planning ...
 WAVECAR not read
 entering main loop
       N       E                     dE             d eps       ncg     rms          rms(c)
DAV:   1     0.209875852183E+03    0.20988E+03   -0.17751E+04 37648   0.138E+03
DAV:   2    -0.413883901510E+02   -0.25126E+03   -0.24306E+03 46224   0.331E+02
DAV:   3    -0.591569957339E+02   -0.17769E+02   -0.17686E+02 62220   0.810E+01
DAV:   4    -0.602011708368E+02   -0.10442E+01   -0.10412E+01 56272   0.161E+01
DAV:   5    -0.602475139452E+02   -0.46343E-01   -0.46340E-01 56458   0.271E+00    0.282E+01
RMM:   6    -0.539683187568E+02    0.62792E+01   -0.20222E+01 41303   0.222E+01    0.126E+01
RMM:   7    -0.542716600678E+02   -0.30334E+00   -0.56354E+00 55252   0.130E+01    0.618E+00
RMM:   8    -0.543695939686E+02   -0.97934E-01   -0.60118E-01 60458   0.539E+00    0.334E+00
RMM:   9    -0.543754984203E+02   -0.59045E-02   -0.24899E-01 58797   0.339E+00    0.106E+00
RMM:  10    -0.543868151187E+02   -0.11317E-01   -0.11870E-01 66700   0.202E+00    0.364E-01
RMM:  11    -0.543908078274E+02   -0.39927E-02   -0.60838E-02 69790   0.116E+00    0.232E-01
RMM:  12    -0.543937112180E+02   -0.29034E-02   -0.24953E-02 72860   0.719E-01    0.193E-01
RMM:  13    -0.543948296303E+02   -0.11184E-02   -0.95591E-03 72340   0.436E-01    0.639E-02
RMM:  14    -0.543952457158E+02   -0.41609E-03   -0.34615E-03 70897   0.287E-01    0.437E-02
RMM:  15    -0.543954259140E+02   -0.18020E-03   -0.16234E-03 70576   0.188E-01    0.299E-02
RMM:  16    -0.543954926168E+02   -0.66703E-04   -0.63692E-04 69754   0.124E-01    0.189E-02
RMM:  17    -0.543955183815E+02   -0.25765E-04   -0.31969E-04 68200   0.888E-02    0.108E-02
WARNING in EDDRMM: call to ZHEGV failed, returncode =   8  4      2
RMM:  18    -0.543955377014E+02   -0.19320E-04   -0.14031E-04 61003   0.633E-02    0.550E-03
RMM:  19    -0.543955409991E+02   -0.32977E-05   -0.38440E-05 47298   0.478E-02
   1 F= -.54395541E+02 E0= -.54395541E+02  d E =0.000000E+00  mag=    -0.0000
