   9   9   1   0
  0.1129649E+02  0.5057376E-09  0.5112339E-09  0.5112339E-09  0.5000000E-15
  1.000000000000000E-004
  CAR 
 unknown system                          
     12.59719129    -46.89412792  301      0.94787651      1.00000000
    -46.894  0.0000E+00  0.0000E+00  0.0000E+00  0.0000E+00
    -46.696  0.0000E+00  0.0000E+00  0.0000E+00  0.0000E+00
    -46.498  0.0000E+00  0.0000E+00  0.0000E+00  0.0000E+00
    -46.299  0.0000E+00  0.0000E+00  0.0000E+00  0.0000E+00
    -46.101  0.0000E+00  0.0000E+00  0.0000E+00  0.0000E+00
    -45.903  0.0000E+00  0.0000E+00  0.0000E+00  0.0000E+00
    -45.704  0.0000E+00  0.0000E+00  0.0000E+00  0.0000E+00
    -45.506  0.0000E+00  0.0000E+00  0.0000E+00  0.0000E+00
    -45.308  0.0000E+00  0.0000E+00  0.0000E+00  0.0000E+00
    -45.109  0.0000E+00  0.0000E+00  0.0000E+00  0.0000E+00
    -44.911  0.0000E+00  0.0000E+00  0.0000E+00  0.0000E+00
    -44.713  0.0000E+00  0.0000E+00  0.0000E+00  0.0000E+00
    -44.514  0.0000E+00  0.0000E+00  0.0000E+00  0.0000E+00
    -44.316  0.0000E+00  0.0000E+00  0.0000E+00  0.0000E+00
    -44.118  0.0000E+00  0.0000E+00  0.1010E-01  0.1010E-01
    -43.920  0.0000E+00  0.0000E+00  0.1010E-01  0.1010E-01
    -43.721  0.0000E+00  0.0000E+00  0.1010E-01  0.1010E-01
    -43.523  0.0000E+00  0.0000E+00  0.1010E-01  0.1010E-01
    -43.325  0.0000E+00  0.0000E+00  0.1010E-01  0.1010E-01
    -43.126  0.0000E+00  0.0000E+00  0.1010E-01  0.1010E-01
    -42.928  0.0000E+00  0.0000E+00  0.1010E-01  0.1010E-01
    -42.730  0.0000E+00  0.0000E+00  0.1010E-01  0.1010E-01
    -42.531  0.0000E+00  0.0000E+00  0.1010E-01  0.1010E-01
    -42.333  0.0000E+00  0.0000E+00  0.1010E-01  0.1010E-01
    -42.135  0.0000E+00  0.0000E+00  0.1010E-01  0.1010E-01
    -41.937  0.0000E+00  0.0000E+00  0.1010E-01  0.1010E-01
    -41.738  0.0000E+00  0.0000E+00  0.1010E-01  0.1010E-01
    -41.540  0.0000E+00  0.0000E+00  0.1010E-01  0.1010E-01
    -41.342  0.0000E+00  0.0000E+00  0.1010E-01  0.1010E-01
    -41.143  0.0000E+00  0.0000E+00  0.1010E-01  0.1010E-01
    -40.945  0.0000E+00  0.0000E+00  0.1010E-01  0.1010E-01
    -40.747  0.0000E+00  0.0000E+00  0.1010E-01  0.1010E-01
    -40.548  0.0000E+00  0.0000E+00  0.1010E-01  0.1010E-01
    -40.350  0.0000E+00  0.0000E+00  0.1010E-01  0.1010E-01
    -40.152  0.0000E+00  0.0000E+00  0.1010E-01  0.1010E-01
    -39.953  0.0000E+00  0.0000E+00  0.1010E-01  0.1010E-01
    -39.755  0.0000E+00  0.0000E+00  0.1010E-01  0.1010E-01
    -39.557  0.0000E+00  0.0000E+00  0.1010E-01  0.1010E-01
    -39.359  0.0000E+00  0.0000E+00  0.1010E-01  0.1010E-01
    -39.160  0.0000E+00  0.0000E+00  0.1010E-01  0.1010E-01
    -38.962  0.0000E+00  0.0000E+00  0.1010E-01  0.1010E-01
    -38.764  0.0000E+00  0.0000E+00  0.1010E-01  0.1010E-01
    -38.565  0.0000E+00  0.0000E+00  0.1010E-01  0.1010E-01
    -38.367  0.0000E+00  0.0000E+00  0.1010E-01  0.1010E-01
    -38.169  0.0000E+00  0.0000E+00  0.1010E-01  0.1010E-01
    -37.970  0.0000E+00  0.0000E+00  0.1010E-01  0.1010E-01
    -37.772  0.0000E+00  0.0000E+00  0.1010E-01  0.1010E-01
    -37.574  0.0000E+00  0.0000E+00  0.1010E-01  0.1010E-01
    -37.376  0.0000E+00  0.0000E+00  0.1010E-01  0.1010E-01
    -37.177  0.0000E+00  0.0000E+00  0.1010E-01  0.1010E-01
    -36.979  0.0000E+00  0.0000E+00  0.1010E-01  0.1010E-01
    -36.781  0.0000E+00  0.0000E+00  0.1010E-01  0.1010E-01
    -36.582  0.0000E+00  0.0000E+00  0.1010E-01  0.1010E-01
    -36.384  0.0000E+00  0.0000E+00  0.1010E-01  0.1010E-01
    -36.186  0.0000E+00  0.0000E+00  0.1010E-01  0.1010E-01
    -35.987  0.0000E+00  0.0000E+00  0.1010E-01  0.1010E-01
    -35.789  0.0000E+00  0.0000E+00  0.1010E-01  0.1010E-01
    -35.591  0.0000E+00  0.0000E+00  0.1010E-01  0.1010E-01
    -35.392  0.0000E+00  0.0000E+00  0.1010E-01  0.1010E-01
    -35.194  0.0000E+00  0.0000E+00  0.1010E-01  0.1010E-01
    -34.996  0.0000E+00  0.0000E+00  0.1010E-01  0.1010E-01
    -34.798  0.0000E+00  0.0000E+00  0.1010E-01  0.1010E-01
    -34.599  0.0000E+00  0.0000E+00  0.1010E-01  0.1010E-01
    -34.401  0.0000E+00  0.0000E+00  0.1010E-01  0.1010E-01
    -34.203  0.0000E+00  0.0000E+00  0.1010E-01  0.1010E-01
    -34.004  0.0000E+00  0.0000E+00  0.1010E-01  0.1010E-01
    -33.806  0.0000E+00  0.0000E+00  0.1010E-01  0.1010E-01
    -33.608  0.0000E+00  0.0000E+00  0.1010E-01  0.1010E-01
    -33.409  0.0000E+00  0.0000E+00  0.1010E-01  0.1010E-01
    -33.211  0.0000E+00  0.0000E+00  0.1010E-01  0.1010E-01
    -33.013  0.0000E+00  0.0000E+00  0.1010E-01  0.1010E-01
    -32.815  0.0000E+00  0.0000E+00  0.1010E-01  0.1010E-01
    -32.616  0.0000E+00  0.0000E+00  0.1010E-01  0.1010E-01
    -32.418  0.0000E+00  0.0000E+00  0.1010E-01  0.1010E-01
    -32.220  0.0000E+00  0.0000E+00  0.1010E-01  0.1010E-01
    -32.021  0.0000E+00  0.0000E+00  0.1010E-01  0.1010E-01
    -31.823  0.0000E+00  0.0000E+00  0.1010E-01  0.1010E-01
    -31.625  0.0000E+00  0.0000E+00  0.1010E-01  0.1010E-01
    -31.426  0.0000E+00  0.0000E+00  0.1010E-01  0.1010E-01
    -31.228  0.0000E+00  0.0000E+00  0.1010E-01  0.1010E-01
    -31.030  0.0000E+00  0.0000E+00  0.1010E-01  0.1010E-01
    -30.831  0.0000E+00  0.0000E+00  0.1010E-01  0.1010E-01
    -30.633  0.0000E+00  0.0000E+00  0.1010E-01  0.1010E-01
    -30.435  0.0000E+00  0.0000E+00  0.1010E-01  0.1010E-01
    -30.237  0.0000E+00  0.0000E+00  0.1010E-01  0.1010E-01
    -30.038  0.0000E+00  0.0000E+00  0.1010E-01  0.1010E-01
    -29.840  0.0000E+00  0.0000E+00  0.1010E-01  0.1010E-01
    -29.642  0.0000E+00  0.0000E+00  0.1010E-01  0.1010E-01
    -29.443  0.0000E+00  0.0000E+00  0.1010E-01  0.1010E-01
    -29.245  0.0000E+00  0.0000E+00  0.1010E-01  0.1010E-01
    -29.047  0.0000E+00  0.0000E+00  0.1010E-01  0.1010E-01
    -28.848  0.0000E+00  0.0000E+00  0.1010E-01  0.1010E-01
    -28.650  0.0000E+00  0.0000E+00  0.1010E-01  0.1010E-01
    -28.452  0.0000E+00  0.0000E+00  0.1010E-01  0.1010E-01
    -28.254  0.0000E+00  0.0000E+00  0.1010E-01  0.1010E-01
    -28.055  0.0000E+00  0.0000E+00  0.1010E-01  0.1010E-01
    -27.857  0.0000E+00  0.0000E+00  0.1010E-01  0.1010E-01
    -27.659  0.0000E+00  0.0000E+00  0.1010E-01  0.1010E-01
    -27.460  0.0000E+00  0.0000E+00  0.1010E-01  0.1010E-01
    -27.262  0.0000E+00  0.0000E+00  0.1010E-01  0.1010E-01
    -27.064  0.0000E+00  0.0000E+00  0.1010E-01  0.1010E-01
    -26.865  0.0000E+00  0.0000E+00  0.1010E-01  0.1010E-01
    -26.667  0.0000E+00  0.0000E+00  0.1010E-01  0.1010E-01
    -26.469  0.0000E+00  0.0000E+00  0.1010E-01  0.1010E-01
    -26.270  0.0000E+00  0.0000E+00  0.1010E-01  0.1010E-01
    -26.072  0.0000E+00  0.0000E+00  0.1010E-01  0.1010E-01
    -25.874  0.0000E+00  0.0000E+00  0.2020E-01  0.2020E-01
    -25.676  0.0000E+00  0.0000E+00  0.2020E-01  0.2020E-01
    -25.477  0.0000E+00  0.0000E+00  0.2020E-01  0.2020E-01
    -25.279  0.0000E+00  0.0000E+00  0.2020E-01  0.2020E-01
    -25.081  0.9261E-01  0.9261E-01  0.2425E-01  0.2425E-01
    -24.882  0.0000E+00  0.0000E+00  0.4040E-01  0.4040E-01
    -24.684  0.0000E+00  0.0000E+00  0.4040E-01  0.4040E-01
    -24.486  0.5051E-01  0.5051E-01  0.4297E-01  0.4297E-01
    -24.287  0.0000E+00  0.0000E+00  0.5051E-01  0.5051E-01
    -24.089  0.0000E+00  0.0000E+00  0.5051E-01  0.5051E-01
    -23.891  0.0000E+00  0.0000E+00  0.5051E-01  0.5051E-01
    -23.693  0.0000E+00  0.0000E+00  0.5051E-01  0.5051E-01
    -23.494  0.0000E+00  0.0000E+00  0.5051E-01  0.5051E-01
    -23.296  0.0000E+00  0.0000E+00  0.5051E-01  0.5051E-01
    -23.098  0.0000E+00  0.0000E+00  0.5051E-01  0.5051E-01
    -22.899  0.0000E+00  0.0000E+00  0.5051E-01  0.5051E-01
    -22.701  0.0000E+00  0.0000E+00  0.5051E-01  0.5051E-01
    -22.503  0.0000E+00  0.0000E+00  0.5051E-01  0.5051E-01
    -22.304  0.0000E+00  0.0000E+00  0.5051E-01  0.5051E-01
    -22.106  0.0000E+00  0.0000E+00  0.5051E-01  0.5051E-01
    -21.908  0.0000E+00  0.0000E+00  0.5051E-01  0.5051E-01
    -21.709  0.0000E+00  0.0000E+00  0.5051E-01  0.5051E-01
    -21.511  0.0000E+00  0.0000E+00  0.5051E-01  0.5051E-01
    -21.313  0.0000E+00  0.0000E+00  0.5051E-01  0.5051E-01
    -21.115  0.0000E+00  0.0000E+00  0.5051E-01  0.5051E-01
    -20.916  0.0000E+00  0.0000E+00  0.5051E-01  0.5051E-01
    -20.718  0.0000E+00  0.0000E+00  0.5051E-01  0.5051E-01
    -20.520  0.0000E+00  0.0000E+00  0.5051E-01  0.5051E-01
    -20.321  0.0000E+00  0.0000E+00  0.5051E-01  0.5051E-01
    -20.123  0.0000E+00  0.0000E+00  0.5051E-01  0.5051E-01
    -19.925  0.0000E+00  0.0000E+00  0.5051E-01  0.5051E-01
    -19.726  0.0000E+00  0.0000E+00  0.5051E-01  0.5051E-01
    -19.528  0.0000E+00  0.0000E+00  0.5051E-01  0.5051E-01
    -19.330  0.0000E+00  0.0000E+00  0.5051E-01  0.5051E-01
    -19.132  0.0000E+00  0.0000E+00  0.5051E-01  0.5051E-01
    -18.933  0.0000E+00  0.0000E+00  0.5051E-01  0.5051E-01
    -18.735  0.0000E+00  0.0000E+00  0.5051E-01  0.5051E-01
    -18.537  0.0000E+00  0.0000E+00  0.5051E-01  0.5051E-01
    -18.338  0.0000E+00  0.0000E+00  0.5051E-01  0.5051E-01
    -18.140  0.0000E+00  0.0000E+00  0.5051E-01  0.5051E-01
    -17.942  0.0000E+00  0.0000E+00  0.5051E-01  0.5051E-01
    -17.743  0.0000E+00  0.0000E+00  0.5051E-01  0.5051E-01
    -17.545  0.0000E+00  0.0000E+00  0.5051E-01  0.5051E-01
    -17.347  0.0000E+00  0.0000E+00  0.5051E-01  0.5051E-01
    -17.148  0.0000E+00  0.0000E+00  0.5051E-01  0.5051E-01
    -16.950  0.0000E+00  0.0000E+00  0.5051E-01  0.5051E-01
    -16.752  0.0000E+00  0.0000E+00  0.5051E-01  0.5051E-01
    -16.554  0.0000E+00  0.0000E+00  0.5051E-01  0.5051E-01
    -16.355  0.0000E+00  0.0000E+00  0.5051E-01  0.5051E-01
    -16.157  0.0000E+00  0.0000E+00  0.5051E-01  0.5051E-01
    -15.959  0.0000E+00  0.0000E+00  0.5051E-01  0.5051E-01
    -15.760  0.0000E+00  0.0000E+00  0.5051E-01  0.5051E-01
    -15.562  0.0000E+00  0.0000E+00  0.5051E-01  0.5051E-01
    -15.364  0.0000E+00  0.0000E+00  0.5051E-01  0.5051E-01
    -15.165  0.0000E+00  0.0000E+00  0.5051E-01  0.5051E-01
    -14.967  0.0000E+00  0.0000E+00  0.5051E-01  0.5051E-01
    -14.769  0.3620E-02  0.3620E-02  0.5055E-01  0.5055E-01
    -14.571  0.1519E-01  0.1519E-01  0.5235E-01  0.5235E-01
    -14.372  0.6007E-01  0.6007E-01  0.5884E-01  0.5884E-01
    -14.174  0.0000E+00  0.0000E+00  0.6061E-01  0.6061E-01
    -13.976  0.0000E+00  0.0000E+00  0.6061E-01  0.6061E-01
    -13.777  0.7004E-01  0.7004E-01  0.6368E-01  0.6368E-01
    -13.579  0.5275E-01  0.5275E-01  0.7295E-01  0.7295E-01
    -13.381  0.4266E-02  0.4267E-02  0.8078E-01  0.8078E-01
    -13.182  0.0000E+00  0.0000E+00  0.8081E-01  0.8081E-01
    -12.984  0.1711E-01  0.1711E-01  0.8156E-01  0.8156E-01
    -12.786  0.3789E-01  0.3789E-01  0.9057E-01  0.9057E-01
    -12.587  0.0000E+00  0.0000E+00  0.9091E-01  0.9091E-01
    -12.389  0.0000E+00  0.0000E+00  0.9091E-01  0.9091E-01
    -12.191  0.0000E+00  0.0000E+00  0.9091E-01  0.9091E-01
    -11.993  0.0000E+00  0.0000E+00  0.9091E-01  0.9091E-01
    -11.794  0.0000E+00  0.0000E+00  0.9091E-01  0.9091E-01
    -11.596  0.0000E+00  0.0000E+00  0.9091E-01  0.9091E-01
    -11.398  0.0000E+00  0.0000E+00  0.9091E-01  0.9091E-01
    -11.199  0.0000E+00  0.0000E+00  0.9091E-01  0.9091E-01
    -11.001  0.0000E+00  0.0000E+00  0.9091E-01  0.9091E-01
    -10.803  0.0000E+00  0.0000E+00  0.9091E-01  0.9091E-01
    -10.604  0.0000E+00  0.0000E+00  0.9091E-01  0.9091E-01
    -10.406  0.0000E+00  0.0000E+00  0.9091E-01  0.9091E-01
    -10.208  0.0000E+00  0.0000E+00  0.9091E-01  0.9091E-01
    -10.010  0.0000E+00  0.0000E+00  0.9091E-01  0.9091E-01
     -9.811  0.0000E+00  0.0000E+00  0.9091E-01  0.9091E-01
     -9.613  0.0000E+00  0.0000E+00  0.9091E-01  0.9091E-01
     -9.415  0.0000E+00  0.0000E+00  0.9091E-01  0.9091E-01
     -9.216  0.0000E+00  0.0000E+00  0.9091E-01  0.9091E-01
     -9.018  0.0000E+00  0.0000E+00  0.9091E-01  0.9091E-01
     -8.820  0.0000E+00  0.0000E+00  0.9091E-01  0.9091E-01
     -8.621  0.0000E+00  0.0000E+00  0.9091E-01  0.9091E-01
     -8.423  0.0000E+00  0.0000E+00  0.9091E-01  0.9091E-01
     -8.225  0.4137E-05  0.4137E-05  0.9091E-01  0.9091E-01
     -8.026  0.3647E-01  0.3647E-01  0.9436E-01  0.9436E-01
     -7.828  0.1296E-01  0.1296E-01  0.1016E+00  0.1016E+00
     -7.630  0.3864E-01  0.3864E-01  0.1076E+00  0.1076E+00
     -7.432  0.1202E-01  0.1202E-01  0.1118E+00  0.1118E+00
     -7.233  0.2951E-01  0.2951E-01  0.1147E+00  0.1147E+00
     -7.035  0.2636E-01  0.2636E-01  0.1222E+00  0.1222E+00
     -6.837  0.2815E-01  0.2815E-01  0.1296E+00  0.1296E+00
     -6.638  0.4476E-01  0.4476E-01  0.1395E+00  0.1395E+00
     -6.440  0.3038E-01  0.3038E-01  0.1458E+00  0.1458E+00
     -6.242  0.2089E-01  0.2089E-01  0.1516E+00  0.1516E+00
     -6.043  0.4491E-01  0.4491E-01  0.1598E+00  0.1598E+00
     -5.845  0.1521E-01  0.1521E-01  0.1714E+00  0.1714E+00
     -5.647  0.0000E+00  0.0000E+00  0.1717E+00  0.1717E+00
     -5.449  0.0000E+00  0.0000E+00  0.1717E+00  0.1717E+00
     -5.250  0.0000E+00  0.0000E+00  0.1717E+00  0.1717E+00
     -5.052  0.1723E-01  0.1723E-01  0.1753E+00  0.1753E+00
     -4.854  0.1608E-01  0.1608E-01  0.1783E+00  0.1783E+00
     -4.655  0.2035E-01  0.2035E-01  0.1817E+00  0.1817E+00
     -4.457  0.3241E-01  0.3241E-01  0.1863E+00  0.1863E+00
     -4.259  0.6128E-01  0.6128E-01  0.1954E+00  0.1954E+00
     -4.060  0.4151E-01  0.4151E-01  0.2046E+00  0.2046E+00
     -3.862  0.5200E-02  0.5200E-02  0.2121E+00  0.2121E+00
     -3.664  0.0000E+00  0.0000E+00  0.2121E+00  0.2121E+00
     -3.465  0.0000E+00  0.0000E+00  0.2121E+00  0.2121E+00
     -3.267  0.0000E+00  0.0000E+00  0.2121E+00  0.2121E+00
     -3.069  0.0000E+00  0.0000E+00  0.2121E+00  0.2121E+00
     -2.871  0.0000E+00  0.0000E+00  0.2121E+00  0.2121E+00
     -2.672  0.0000E+00  0.0000E+00  0.2121E+00  0.2121E+00
     -2.474  0.0000E+00  0.0000E+00  0.2121E+00  0.2121E+00
     -2.276  0.0000E+00  0.0000E+00  0.2121E+00  0.2121E+00
     -2.077  0.0000E+00  0.0000E+00  0.2121E+00  0.2121E+00
     -1.879  0.0000E+00  0.0000E+00  0.2121E+00  0.2121E+00
     -1.681  0.0000E+00  0.0000E+00  0.2121E+00  0.2121E+00
     -1.482  0.0000E+00  0.0000E+00  0.2121E+00  0.2121E+00
     -1.284  0.1879E-01  0.1879E-01  0.2141E+00  0.2141E+00
     -1.086  0.2937E-01  0.2937E-01  0.2193E+00  0.2193E+00
     -0.888  0.3067E-01  0.3067E-01  0.2247E+00  0.2247E+00
     -0.689  0.3921E-01  0.3921E-01  0.2311E+00  0.2311E+00
     -0.491  0.2364E-01  0.2364E-01  0.2383E+00  0.2383E+00
     -0.293  0.1398E-01  0.1398E-01  0.2409E+00  0.2409E+00
     -0.094  0.2580E-01  0.2580E-01  0.2453E+00  0.2453E+00
      0.104  0.2172E-01  0.2172E-01  0.2521E+00  0.2521E+00
      0.302  0.0000E+00  0.0000E+00  0.2525E+00  0.2525E+00
      0.501  0.0000E+00  0.0000E+00  0.2525E+00  0.2525E+00
      0.699  0.1476E-01  0.1476E-01  0.2528E+00  0.2528E+00
      0.897  0.1096E-01  0.1096E-01  0.2570E+00  0.2570E+00
      1.096  0.1722E-01  0.1722E-01  0.2600E+00  0.2600E+00
      1.294  0.2221E-01  0.2221E-01  0.2639E+00  0.2639E+00
      1.492  0.4579E-01  0.4579E-01  0.2697E+00  0.2697E+00
      1.690  0.3540E-01  0.3540E-01  0.2797E+00  0.2797E+00
      1.889  0.3137E-01  0.3137E-01  0.2869E+00  0.2869E+00
      2.087  0.0000E+00  0.0000E+00  0.2929E+00  0.2929E+00
      2.285  0.0000E+00  0.0000E+00  0.2929E+00  0.2929E+00
      2.484  0.0000E+00  0.0000E+00  0.2929E+00  0.2929E+00
      2.682  0.0000E+00  0.0000E+00  0.2929E+00  0.2929E+00
      2.880  0.0000E+00  0.0000E+00  0.2929E+00  0.2929E+00
      3.079  0.0000E+00  0.0000E+00  0.2929E+00  0.2929E+00
      3.277  0.0000E+00  0.0000E+00  0.2929E+00  0.2929E+00
      3.475  0.0000E+00  0.0000E+00  0.2929E+00  0.2929E+00
      3.673  0.0000E+00  0.0000E+00  0.2929E+00  0.2929E+00
      3.872  0.0000E+00  0.0000E+00  0.2929E+00  0.2929E+00
      4.070  0.0000E+00  0.0000E+00  0.2929E+00  0.2929E+00
      4.268  0.0000E+00  0.0000E+00  0.2929E+00  0.2929E+00
      4.467  0.0000E+00  0.0000E+00  0.2929E+00  0.2929E+00
      4.665  0.0000E+00  0.0000E+00  0.2929E+00  0.2929E+00
      4.863  0.0000E+00  0.0000E+00  0.2929E+00  0.2929E+00
      5.062  0.0000E+00  0.0000E+00  0.2929E+00  0.2929E+00
      5.260  0.0000E+00  0.0000E+00  0.2929E+00  0.2929E+00
      5.458  0.0000E+00  0.0000E+00  0.2929E+00  0.2929E+00
      5.657  0.0000E+00  0.0000E+00  0.2929E+00  0.2929E+00
      5.855  0.0000E+00  0.0000E+00  0.2929E+00  0.2929E+00
      6.053  0.6652E-04  0.6652E-04  0.2929E+00  0.2929E+00
      6.251  0.1656E-02  0.1656E-02  0.2931E+00  0.2931E+00
      6.450  0.2665E-02  0.2665E-02  0.2935E+00  0.2935E+00
      6.648  0.3629E-02  0.3629E-02  0.2942E+00  0.2942E+00
      6.846  0.4542E-02  0.4542E-02  0.2950E+00  0.2950E+00
      7.045  0.5976E-02  0.5976E-02  0.2960E+00  0.2960E+00
      7.243  0.8213E-02  0.8213E-02  0.2975E+00  0.2975E+00
      7.441  0.8830E-02  0.8830E-02  0.2991E+00  0.2991E+00
      7.640  0.1018E-01  0.1018E-01  0.3011E+00  0.3011E+00
      7.838  0.1035E-01  0.1035E-01  0.3030E+00  0.3030E+00
      8.036  0.2028E-01  0.2028E-01  0.3053E+00  0.3053E+00
      8.234  0.1272E-01  0.1272E-01  0.3091E+00  0.3091E+00
      8.433  0.6459E-02  0.6459E-02  0.3108E+00  0.3108E+00
      8.631  0.8858E-02  0.8859E-02  0.3123E+00  0.3123E+00
      8.829  0.1283E-01  0.1283E-01  0.3145E+00  0.3145E+00
      9.028  0.1335E-01  0.1335E-01  0.3172E+00  0.3172E+00
      9.226  0.1170E-01  0.1170E-01  0.3197E+00  0.3197E+00
      9.424  0.1019E-01  0.1019E-01  0.3221E+00  0.3221E+00
      9.623  0.2485E-02  0.2485E-02  0.3230E+00  0.3230E+00
      9.821  0.1686E-03  0.1685E-03  0.3232E+00  0.3232E+00
     10.019  0.0000E+00  0.0000E+00  0.3232E+00  0.3232E+00
     10.218  0.0000E+00  0.0000E+00  0.3232E+00  0.3232E+00
     10.416  0.0000E+00  0.0000E+00  0.3232E+00  0.3232E+00
     10.614  0.0000E+00  0.0000E+00  0.3232E+00  0.3232E+00
     10.812  0.0000E+00  0.0000E+00  0.3232E+00  0.3232E+00
     11.011  0.0000E+00  0.0000E+00  0.3232E+00  0.3232E+00
     11.209  0.0000E+00  0.0000E+00  0.3232E+00  0.3232E+00
     11.407  0.0000E+00  0.0000E+00  0.3232E+00  0.3232E+00
     11.606  0.0000E+00  0.0000E+00  0.3232E+00  0.3232E+00
     11.804  0.0000E+00  0.0000E+00  0.3232E+00  0.3232E+00
     12.002  0.0000E+00  0.0000E+00  0.3232E+00  0.3232E+00
     12.201  0.0000E+00  0.0000E+00  0.3232E+00  0.3232E+00
     12.399  0.0000E+00  0.0000E+00  0.3232E+00  0.3232E+00
     12.597  0.0000E+00  0.0000E+00  0.3232E+00  0.3232E+00
     12.59719129    -46.89412792  301      0.94787651      1.00000000
    -46.894  0.0000E+00  0.0000E+00  0.0000E+00  0.0000E+00  0.0000E+00  0.0000E+00  0.0000E+00  0.0000E+00  0.0000E+00  0.0000E+00  0.0000E+00  0.0000E+00  0.0000E+00  0.0000E+00  0.0000E+00  0.0000E+00  0.0000E+00  0.0000E+00
    -46.696  0.0000E+00  0.0000E+00  0.0000E+00  0.0000E+00  0.0000E+00  0.0000E+00  0.0000E+00  0.0000E+00  0.0000E+00  0.0000E+00  0.0000E+00  0.0000E+00  0.0000E+00  0.0000E+00  0.0000E+00  0.0000E+00  0.0000E+00  0.0000E+00
    -46.498  0.0000E+00  0.0000E+00  0.0000E+00  0.0000E+00  0.0000E+00  0.0000E+00  0.0000E+00  0.0000E+00  0.0000E+00  0.0000E+00  0.0000E+00  0.0000E+00  0.0000E+00  0.0000E+00  0.0000E+00  0.0000E+00  0.0000E+00  0.0000E+00
    -46.299  0.0000E+00  0.0000E+00  0.0000E+00  0.0000E+00  0.0000E+00  0.0000E+00  0.0000E+00  0.0000E+00  0.0000E+00  0.0000E+00  0.0000E+00  0.0000E+00  0.0000E+00  0.0000E+00  0.0000E+00  0.0000E+00  0.0000E+00  0.0000E+00
    -46.101  0.0000E+00  0.0000E+00  0.0000E+00  0.0000E+00  0.0000E+00  0.0000E+00  0.0000E+00  0.0000E+00  0.0000E+00  0.0000E+00  0.0000E+00  0.0000E+00  0.0000E+00  0.0000E+00  0.0000E+00  0.0000E+00  0.0000E+00  0.0000E+00
    -45.903  0.0000E+00  0.0000E+00  0.0000E+00  0.0000E+00  0.0000E+00  0.0000E+00  0.0000E+00  0.0000E+00  0.0000E+00  0.0000E+00  0.0000E+00  0.0000E+00  0.0000E+00  0.0000E+00  0.0000E+00  0.0000E+00  0.0000E+00  0.0000E+00
    -45.704  0.0000E+00  0.0000E+00  0.0000E+00  0.0000E+00  0.0000E+00  0.0000E+00  0.0000E+00  0.0000E+00  0.0000E+00  0.0000E+00  0.0000E+00  0.0000E+00  0.0000E+00  0.0000E+00  0.0000E+00  0.0000E+00  0.0000E+00  0.0000E+00
    -45.506  0.0000E+00  0.0000E+00  0.0000E+00  0.0000E+00  0.0000E+00  0.0000E+00  0.0000E+00  0.0000E+00  0.0000E+00  0.0000E+00  0.0000E+00  0.0000E+00  0.0000E+00  0.0000E+00  0.0000E+00  0.0000E+00  0.0000E+00  0.0000E+00
    -45.308  0.0000E+00  0.0000E+00  0.0000E+00  0.0000E+00  0.0000E+00  0.0000E+00  0.0000E+00  0.0000E+00  0.0000E+00  0.0000E+00  0.0000E+00  0.0000E+00  0.0000E+00  0.0000E+00  0.0000E+00  0.0000E+00  0.0000E+00  0.0000E+00
    -45.109  0.0000E+00  0.0000E+00  0.0000E+00  0.0000E+00  0.0000E+00  0.0000E+00  0.0000E+00  0.0000E+00  0.0000E+00  0.0000E+00  0.0000E+00  0.0000E+00  0.0000E+00  0.0000E+00  0.0000E+00  0.0000E+00  0.0000E+00  0.0000E+00
    -44.911  0.0000E+00  0.0000E+00  0.0000E+00  0.0000E+00  0.0000E+00  0.0000E+00  0.0000E+00  0.0000E+00  0.0000E+00  0.0000E+00  0.0000E+00  0.0000E+00  0.0000E+00  0.0000E+00  0.0000E+00  0.0000E+00  0.0000E+00  0.0000E+00
    -44.713  0.0000E+00  0.0000E+00  0.0000E+00  0.0000E+00  0.0000E+00  0.0000E+00  0.0000E+00  0.0000E+00  0.0000E+00  0.0000E+00  0.0000E+00  0.0000E+00  0.0000E+00  0.0000E+00  0.0000E+00  0.0000E+00  0.0000E+00  0.0000E+00
    -44.514  0.0000E+00  0.0000E+00  0.0000E+00  0.0000E+00  0.0000E+00  0.0000E+00  0.0000E+00  0.0000E+00  0.0000E+00  0.0000E+00  0.0000E+00  0.0000E+00  0.0000E+00  0.0000E+00  0.0000E+00  0.0000E+00  0.0000E+00  0.0000E+00
    -44.316  0.0000E+00  0.0000E+00  0.0000E+00  0.0000E+00  0.0000E+00  0.0000E+00  0.0000E+00  0.0000E+00  0.0000E+00  0.0000E+00  0.0000E+00  0.0000E+00  0.0000E+00  0.0000E+00  0.0000E+00  0.0000E+00  0.0000E+00  0.0000E+00
    -44.118  0.0000E+00  0.0000E+00  0.0000E+00  0.0000E+00  0.0000E+00  0.0000E+00  0.0000E+00  0.0000E+00  0.0000E+00  0.0000E+00  0.0000E+00  0.0000E+00  0.0000E+00  0.0000E+00  0.0000E+00  0.0000E+00  0.0000E+00  0.0000E+00
    -43.920  0.0000E+00  0.0000E+00  0.0000E+00  0.0000E+00  0.0000E+00  0.0000E+00  0.0000E+00  0.0000E+00  0.0000E+00  0.0000E+00  0.0000E+00  0.0000E+00  0.0000E+00  0.0000E+00  0.0000E+00  0.0000E+00  0.0000E+00  0.0000E+00
    -43.721  0.0000E+00  0.0000E+00  0.0000E+00  0.0000E+00  0.0000E+00  0.0000E+00  0.0000E+00  0.0000E+00  0.0000E+00  0.0000E+00  0.0000E+00  0.0000E+00  0.0000E+00  0.0000E+00  0.0000E+00  0.0000E+00  0.0000E+00  0.0000E+00
    -43.523  0.0000E+00  0.0000E+00  0.0000E+00  0.0000E+00  0.0000E+00  0.0000E+00  0.0000E+00  0.0000E+00  0.0000E+00  0.0000E+00  0.0000E+00  0.0000E+00  0.0000E+00  0.0000E+00  0.0000E+00  0.0000E+00  0.0000E+00  0.0000E+00
    -43.325  0.0000E+00  0.0000E+00  0.0000E+00  0.0000E+00  0.0000E+00  0.0000E+00  0.0000E+00  0.0000E+00  0.0000E+00  0.0000E+00  0.0000E+00  0.0000E+00  0.0000E+00  0.0000E+00  0.0000E+00  0.0000E+00  0.0000E+00  0.0000E+00
    -43.126  0.0000E+00  0.0000E+00  0.0000E+00  0.0000E+00  0.0000E+00  0.0000E+00  0.0000E+00  0.0000E+00  0.0000E+00  0.0000E+00  0.0000E+00  0.0000E+00  0.0000E+00  0.0000E+00  0.0000E+00  0.0000E+00  0.0000E+00  0.0000E+00
    -42.928  0.0000E+00  0.0000E+00  0.0000E+00  0.0000E+00  0.0000E+00  0.0000E+00  0.0000E+00  0.0000E+00  0.0000E+00  0.0000E+00  0.0000E+00  0.0000E+00  0.0000E+00  0.0000E+00  0.0000E+00  0.0000E+00  0.0000E+00  0.0000E+00
    -42.730  0.0000E+00  0.0000E+00  0.0000E+00  0.0000E+00  0.0000E+00  0.0000E+00  0.0000E+00  0.0000E+00  0.0000E+00  0.0000E+00  0.0000E+00  0.0000E+00  0.0000E+00  0.0000E+00  0.0000E+00  0.0000E+00  0.0000E+00  0.0000E+00
    -42.531  0.0000E+00  0.0000E+00  0.0000E+00  0.0000E+00  0.0000E+00  0.0000E+00  0.0000E+00  0.0000E+00  0.0000E+00  0.0000E+00  0.0000E+00  0.0000E+00  0.0000E+00  0.0000E+00  0.0000E+00  0.0000E+00  0.0000E+00  0.0000E+00
    -42.333  0.0000E+00  0.0000E+00  0.0000E+00  0.0000E+00  0.0000E+00  0.0000E+00  0.0000E+00  0.0000E+00  0.0000E+00  0.0000E+00  0.0000E+00  0.0000E+00  0.0000E+00  0.0000E+00  0.0000E+00  0.0000E+00  0.0000E+00  0.0000E+00
    -42.135  0.0000E+00  0.0000E+00  0.0000E+00  0.0000E+00  0.0000E+00  0.0000E+00  0.0000E+00  0.0000E+00  0.0000E+00  0.0000E+00  0.0000E+00  0.0000E+00  0.0000E+00  0.0000E+00  0.0000E+00  0.0000E+00  0.0000E+00  0.0000E+00
    -41.937  0.0000E+00  0.0000E+00  0.0000E+00  0.0000E+00  0.0000E+00  0.0000E+00  0.0000E+00  0.0000E+00  0.0000E+00  0.0000E+00  0.0000E+00  0.0000E+00  0.0000E+00  0.0000E+00  0.0000E+00  0.0000E+00  0.0000E+00  0.0000E+00
    -41.738  0.0000E+00  0.0000E+00  0.0000E+00  0.0000E+00  0.0000E+00  0.0000E+00  0.0000E+00  0.0000E+00  0.0000E+00  0.0000E+00  0.0000E+00  0.0000E+00  0.0000E+00  0.0000E+00  0.0000E+00  0.0000E+00  0.0000E+00  0.0000E+00
    -41.540  0.0000E+00  0.0000E+00  0.0000E+00  0.0000E+00  0.0000E+00  0.0000E+00  0.0000E+00  0.0000E+00  0.0000E+00  0.0000E+00  0.0000E+00  0.0000E+00  0.0000E+00  0.0000E+00  0.0000E+00  0.0000E+00  0.0000E+00  0.0000E+00
    -41.342  0.0000E+00  0.0000E+00  0.0000E+00  0.0000E+00  0.0000E+00  0.0000E+00  0.0000E+00  0.0000E+00  0.0000E+00  0.0000E+00  0.0000E+00  0.0000E+00  0.0000E+00  0.0000E+00  0.0000E+00  0.0000E+00  0.0000E+00  0.0000E+00
    -41.143  0.0000E+00  0.0000E+00  0.0000E+00  0.0000E+00  0.0000E+00  0.0000E+00  0.0000E+00  0.0000E+00  0.0000E+00  0.0000E+00  0.0000E+00  0.0000E+00  0.0000E+00  0.0000E+00  0.0000E+00  0.0000E+00  0.0000E+00  0.0000E+00
    -40.945  0.0000E+00  0.0000E+00  0.0000E+00  0.0000E+00  0.0000E+00  0.0000E+00  0.0000E+00  0.0000E+00  0.0000E+00  0.0000E+00  0.0000E+00  0.0000E+00  0.0000E+00  0.0000E+00  0.0000E+00  0.0000E+00  0.0000E+00  0.0000E+00
    -40.747  0.0000E+00  0.0000E+00  0.0000E+00  0.0000E+00  0.0000E+00  0.0000E+00  0.0000E+00  0.0000E+00  0.0000E+00  0.0000E+00  0.0000E+00  0.0000E+00  0.0000E+00  0.0000E+00  0.0000E+00  0.0000E+00  0.0000E+00  0.0000E+00
    -40.548  0.0000E+00  0.0000E+00  0.0000E+00  0.0000E+00  0.0000E+00  0.0000E+00  0.0000E+00  0.0000E+00  0.0000E+00  0.0000E+00  0.0000E+00  0.0000E+00  0.0000E+00  0.0000E+00  0.0000E+00  0.0000E+00  0.0000E+00  0.0000E+00
    -40.350  0.0000E+00  0.0000E+00  0.0000E+00  0.0000E+00  0.0000E+00  0.0000E+00  0.0000E+00  0.0000E+00  0.0000E+00  0.0000E+00  0.0000E+00  0.0000E+00  0.0000E+00  0.0000E+00  0.0000E+00  0.0000E+00  0.0000E+00  0.0000E+00
    -40.152  0.0000E+00  0.0000E+00  0.0000E+00  0.0000E+00  0.0000E+00  0.0000E+00  0.0000E+00  0.0000E+00  0.0000E+00  0.0000E+00  0.0000E+00  0.0000E+00  0.0000E+00  0.0000E+00  0.0000E+00  0.0000E+00  0.0000E+00  0.0000E+00
    -39.953  0.0000E+00  0.0000E+00  0.0000E+00  0.0000E+00  0.0000E+00  0.0000E+00  0.0000E+00  0.0000E+00  0.0000E+00  0.0000E+00  0.0000E+00  0.0000E+00  0.0000E+00  0.0000E+00  0.0000E+00  0.0000E+00  0.0000E+00  0.0000E+00
    -39.755  0.0000E+00  0.0000E+00  0.0000E+00  0.0000E+00  0.0000E+00  0.0000E+00  0.0000E+00  0.0000E+00  0.0000E+00  0.0000E+00  0.0000E+00  0.0000E+00  0.0000E+00  0.0000E+00  0.0000E+00  0.0000E+00  0.0000E+00  0.0000E+00
    -39.557  0.0000E+00  0.0000E+00  0.0000E+00  0.0000E+00  0.0000E+00  0.0000E+00  0.0000E+00  0.0000E+00  0.0000E+00  0.0000E+00  0.0000E+00  0.0000E+00  0.0000E+00  0.0000E+00  0.0000E+00  0.0000E+00  0.0000E+00  0.0000E+00
    -39.359  0.0000E+00  0.0000E+00  0.0000E+00  0.0000E+00  0.0000E+00  0.0000E+00  0.0000E+00  0.0000E+00  0.0000E+00  0.0000E+00  0.0000E+00  0.0000E+00  0.0000E+00  0.0000E+00  0.0000E+00  0.0000E+00  0.0000E+00  0.0000E+00
    -39.160  0.0000E+00  0.0000E+00  0.0000E+00  0.0000E+00  0.0000E+00  0.0000E+00  0.0000E+00  0.0000E+00  0.0000E+00  0.0000E+00  0.0000E+00  0.0000E+00  0.0000E+00  0.0000E+00  0.0000E+00  0.0000E+00  0.0000E+00  0.0000E+00
    -38.962  0.0000E+00  0.0000E+00  0.0000E+00  0.0000E+00  0.0000E+00  0.0000E+00  0.0000E+00  0.0000E+00  0.0000E+00  0.0000E+00  0.0000E+00  0.0000E+00  0.0000E+00  0.0000E+00  0.0000E+00  0.0000E+00  0.0000E+00  0.0000E+00
    -38.764  0.0000E+00  0.0000E+00  0.0000E+00  0.0000E+00  0.0000E+00  0.0000E+00  0.0000E+00  0.0000E+00  0.0000E+00  0.0000E+00  0.0000E+00  0.0000E+00  0.0000E+00  0.0000E+00  0.0000E+00  0.0000E+00  0.0000E+00  0.0000E+00
    -38.565  0.0000E+00  0.0000E+00  0.0000E+00  0.0000E+00  0.0000E+00  0.0000E+00  0.0000E+00  0.0000E+00  0.0000E+00  0.0000E+00  0.0000E+00  0.0000E+00  0.0000E+00  0.0000E+00  0.0000E+00  0.0000E+00  0.0000E+00  0.0000E+00
    -38.367  0.0000E+00  0.0000E+00  0.0000E+00  0.0000E+00  0.0000E+00  0.0000E+00  0.0000E+00  0.0000E+00  0.0000E+00  0.0000E+00  0.0000E+00  0.0000E+00  0.0000E+00  0.0000E+00  0.0000E+00  0.0000E+00  0.0000E+00  0.0000E+00
    -38.169  0.0000E+00  0.0000E+00  0.0000E+00  0.0000E+00  0.0000E+00  0.0000E+00  0.0000E+00  0.0000E+00  0.0000E+00  0.0000E+00  0.0000E+00  0.0000E+00  0.0000E+00  0.0000E+00  0.0000E+00  0.0000E+00  0.0000E+00  0.0000E+00
    -37.970  0.0000E+00  0.0000E+00  0.0000E+00  0.0000E+00  0.0000E+00  0.0000E+00  0.0000E+00  0.0000E+00  0.0000E+00  0.0000E+00  0.0000E+00  0.0000E+00  0.0000E+00  0.0000E+00  0.0000E+00  0.0000E+00  0.0000E+00  0.0000E+00
    -37.772  0.0000E+00  0.0000E+00  0.0000E+00  0.0000E+00  0.0000E+00  0.0000E+00  0.0000E+00  0.0000E+00  0.0000E+00  0.0000E+00  0.0000E+00  0.0000E+00  0.0000E+00  0.0000E+00  0.0000E+00  0.0000E+00  0.0000E+00  0.0000E+00
    -37.574  0.0000E+00  0.0000E+00  0.0000E+00  0.0000E+00  0.0000E+00  0.0000E+00  0.0000E+00  0.0000E+00  0.0000E+00  0.0000E+00  0.0000E+00  0.0000E+00  0.0000E+00  0.0000E+00  0.0000E+00  0.0000E+00  0.0000E+00  0.0000E+00
    -37.376  0.0000E+00  0.0000E+00  0.0000E+00  0.0000E+00  0.0000E+00  0.0000E+00  0.0000E+00  0.0000E+00  0.0000E+00  0.0000E+00  0.0000E+00  0.0000E+00  0.0000E+00  0.0000E+00  0.0000E+00  0.0000E+00  0.0000E+00  0.0000E+00
    -37.177  0.0000E+00  0.0000E+00  0.0000E+00  0.0000E+00  0.0000E+00  0.0000E+00  0.0000E+00  0.0000E+00  0.0000E+00  0.0000E+00  0.0000E+00  0.0000E+00  0.0000E+00  0.0000E+00  0.0000E+00  0.0000E+00  0.0000E+00  0.0000E+00
    -36.979  0.0000E+00  0.0000E+00  0.0000E+00  0.0000E+00  0.0000E+00  0.0000E+00  0.0000E+00  0.0000E+00  0.0000E+00  0.0000E+00  0.0000E+00  0.0000E+00  0.0000E+00  0.0000E+00  0.0000E+00  0.0000E+00  0.0000E+00  0.0000E+00