       N       E                     dE             d eps       ncg     rms          rms(c)
DAV:   1     0.374612403444E+03    0.37461E+03   -0.28152E+04 14864   0.156E+03
DAV:   2    -0.197858462783E+02   -0.39440E+03   -0.38316E+03 20448   0.367E+02
DAV:   3    -0.445933071031E+02   -0.24807E+02   -0.24618E+02 21952   0.951E+01
DAV:   4    -0.455526659634E+02   -0.95936E+00   -0.95649E+00 25576   0.133E+01
DAV:   5    -0.456439548184E+02   -0.91289E-01   -0.91288E-01 20144   0.191E+00    0.102E+01
RMM:   6    -0.450138233653E+02    0.63013E+00   -0.28856E+00 14848   0.886E+00    0.950E+00
RMM:   7    -0.443009121414E+02    0.71291E+00   -0.99942E-01 15080   0.492E+00    0.487E+00
RMM:   8    -0.441101114727E+02    0.19080E+00   -0.70048E-01 15080   0.449E+00    0.239E+00
RMM:   9    -0.440821791310E+02    0.27932E-01   -0.86159E-02 15092   0.146E+00    0.165E+00
RMM:  10    -0.440644230591E+02    0.17756E-01   -0.23173E-02 15269   0.752E-01    0.671E-01
RMM:  11    -0.440661087623E+02   -0.16857E-02   -0.11914E-02 14861   0.634E-01    0.259E-01
RMM:  12    -0.440656278248E+02    0.48094E-03   -0.12397E-03 15005   0.191E-01    0.103E-01
RMM:  13    -0.440654779468E+02    0.14988E-03   -0.34342E-04 14841   0.958E-02    0.319E-02
RMM:  14    -0.440655183870E+02   -0.40440E-04   -0.58880E-05 13043   0.444E-02    0.151E-02
RMM:  15    -0.440655423217E+02   -0.23935E-04   -0.11246E-05  8468   0.228E-02    0.736E-03
RMM:  16    -0.440655383259E+02    0.39958E-05   -0.38273E-06  8167   0.136E-02
   1 F= -.44065538E+02 E0= -.44065538E+02  d E =-.440655E+02  mag=     0.0000
       N       E                     dE             d eps       ncg     rms          rms(c)
DAV:   1    -0.440643359135E+02    0.12064E-02   -0.32972E-01 18560   0.381E+00    0.249E-01
RMM:   2    -0.440652962002E+02   -0.96029E-03   -0.12847E-02 15640   0.625E-01    0.269E-01
RMM:   3    -0.440643269693E+02    0.96923E-03   -0.10009E-03 15618   0.162E-01    0.141E-01
RMM:   4    -0.440642438830E+02    0.83086E-04   -0.40275E-04 15367   0.104E-01    0.895E-02
RMM:   5    -0.440642223456E+02    0.21537E-04   -0.84608E-05 13852   0.441E-02    0.245E-02
RMM:   6    -0.440642198918E+02    0.24538E-05   -0.45837E-06  8337   0.186E-02
   2 F= -.44064220E+02 E0= -.44064220E+02  d E =0.131843E-02  mag=     0.0000
       N       E                     dE             d eps       ncg     rms          rms(c)
DAV:   1    -0.440658734880E+02   -0.16511E-02   -0.18837E-01 18128   0.288E+00    0.187E-01
RMM:   2    -0.440660262151E+02   -0.15273E-03   -0.73588E-03 15343   0.471E-01    0.205E-01
RMM:   3    -0.440658678375E+02    0.15838E-03   -0.55663E-04 15309   0.121E-01    0.105E-01
RMM:   4    -0.440657729702E+02    0.94867E-04   -0.22972E-04 15000   0.783E-02    0.687E-02
RMM:   5    -0.440656802491E+02    0.92721E-04   -0.46785E-05 12038   0.332E-02    0.182E-02
RMM:   6    -0.440656799182E+02    0.33090E-06   -0.28763E-06  8124   0.133E-02
   3 F= -.44065680E+02 E0= -.44065680E+02  d E =-.141592E-03  mag=     0.0000
       N       E                     dE             d eps       ncg     rms          rms(c)
DAV:   1    -0.440666391096E+02   -0.95886E-03   -0.86843E-02 15472   0.201E+00    0.198E-01
RMM:   2    -0.440664954506E+02    0.14366E-03   -0.28012E-03 15514   0.309E-01    0.153E-01
RMM:   3    -0.440661896462E+02    0.30580E-03   -0.51726E-04 15664   0.110E-01    0.144E-01
RMM:   4    -0.440661027383E+02    0.86908E-04   -0.33108E-04 15081   0.901E-02    0.658E-02
RMM:   5    -0.440660949497E+02    0.77886E-05   -0.43302E-05 11829   0.316E-02
   4 F= -.44066095E+02 E0= -.44066095E+02  d E =-.415032E-03  mag=    -0.0000
       N       E                     dE             d eps       ncg     rms          rms(c)
DAV:   1    -0.440671886531E+02   -0.10859E-02   -0.13161E-01 14928   0.247E+00    0.247E-01
RMM:   2    -0.440669077810E+02    0.28087E-03   -0.42112E-03 15642   0.379E-01    0.188E-01
RMM:   3    -0.440665222939E+02    0.38549E-03   -0.79682E-04 15817   0.137E-01    0.181E-01
RMM:   4    -0.440663600331E+02    0.16226E-03   -0.50832E-04 15284   0.113E-01    0.812E-02
RMM:   5    -0.440663393192E+02    0.20714E-04   -0.69994E-05 13614   0.395E-02    0.191E-02
RMM:   6    -0.440663351279E+02    0.41913E-05   -0.18499E-05  8863   0.253E-02
   5 F= -.44066335E+02 E0= -.44066335E+02  d E =-.655210E-03  mag=     0.0000
       N       E                     dE             d eps       ncg     rms          rms(c)
DAV:   1    -0.440668826696E+02   -0.54335E-03   -0.47165E-02 16216   0.149E+00    0.129E-01
RMM:   2    -0.440666895701E+02    0.19310E-03   -0.14343E-03 15563   0.230E-01    0.889E-02
RMM:   3    -0.440668053735E+02   -0.11580E-03   -0.19256E-04 15576   0.741E-02    0.783E-02
RMM:   4    -0.440666720425E+02    0.13333E-03   -0.11099E-04 14797   0.529E-02    0.476E-02
RMM:   5    -0.440666575311E+02    0.14511E-04   -0.18492E-05  8771   0.229E-02    0.120E-02
RMM:   6    -0.440666541313E+02    0.33998E-05   -0.38422E-06  8095   0.146E-02
   6 F= -.44066654E+02 E0= -.44066654E+02  d E =-.319003E-03  mag=     0.0000
       N       E                     dE             d eps       ncg     rms          rms(c)
DAV:   1    -0.440668844869E+02   -0.22696E-03   -0.29379E-02 18496   0.118E+00    0.101E-01
RMM:   2    -0.440667518983E+02    0.13259E-03   -0.88467E-04 15606   0.181E-01    0.686E-02
RMM:   3    -0.440668523453E+02   -0.10045E-03   -0.12045E-04 15201   0.585E-02    0.631E-02
RMM:   4    -0.440667536671E+02    0.98678E-04   -0.66832E-05 13372   0.417E-02    0.367E-02
RMM:   5    -0.440667443921E+02    0.92750E-05   -0.99101E-06  8192   0.192E-02
   7 F= -.44066744E+02 E0= -.44066744E+02  d E =-.409264E-03  mag=     0.0000
       N       E                     dE             d eps       ncg     rms          rms(c)
DAV:   1    -0.440668445125E+02   -0.90845E-04   -0.19961E-02 15136   0.949E-01    0.650E-02
RMM:   2    -0.440668517462E+02   -0.72337E-05   -0.47310E-04 15876   0.133E-01    0.373E-02
RMM:   3    -0.440668639992E+02   -0.12253E-04   -0.44609E-05 12177   0.378E-02    0.518E-02
RMM:   4    -0.440668211730E+02    0.42826E-04   -0.23106E-05  8816   0.263E-02    0.148E-02
RMM:   5    -0.440668419398E+02   -0.20767E-04   -0.38814E-06  8112   0.137E-02    0.907E-03
RMM:   6    -0.440668310121E+02    0.10928E-04   -0.31978E-06  8196   0.863E-03    0.335E-03
RMM:   7    -0.440668321884E+02   -0.11763E-05   -0.44936E-07  3935   0.585E-03
   8 F= -.44066832E+02 E0= -.44066832E+02  d E =-.877963E-04  mag=     0.0000
       N       E                     dE             d eps       ncg     rms          rms(c)
DAV:   1    -0.440668647952E+02   -0.33783E-04   -0.13370E-02 15840   0.777E-01    0.521E-02
RMM:   2    -0.440668693309E+02   -0.45356E-05   -0.31634E-04 15946   0.108E-01    0.290E-02
RMM:   3    -0.440668801542E+02   -0.10823E-04   -0.29084E-05 10137   0.307E-02    0.406E-02
RMM:   4    -0.440668499754E+02    0.30179E-04   -0.12781E-05  8141   0.210E-02    0.115E-02
RMM:   5    -0.440668658287E+02   -0.15853E-04   -0.46501E-06  8229   0.117E-02    0.731E-03
RMM:   6    -0.440668566044E+02    0.92242E-05   -0.12818E-06  7419   0.698E-03
   9 F= -.44066857E+02 E0= -.44066857E+02  d E =-.112212E-03  mag=     0.0000
       N       E                     dE             d eps       ncg     rms          rms(c)
DAV:   1    -0.440669390094E+02   -0.73181E-04   -0.89972E-03 15088   0.652E-01    0.503E-02
RMM:   2    -0.440670025165E+02   -0.63507E-04   -0.20530E-04 15951   0.867E-02    0.490E-02
RMM:   3    -0.440669260078E+02    0.76509E-04   -0.25871E-05  9930   0.268E-02    0.303E-02
RMM:   4    -0.440669321257E+02   -0.61179E-05   -0.16154E-05  8284   0.231E-02
  10 F= -.44066932E+02 E0= -.44066932E+02  d E =-.755213E-04  mag=     0.0000
       N       E                     dE             d eps       ncg     rms          rms(c)
DAV:   1    -0.440671891169E+02   -0.26311E-03   -0.80868E-02 14912   0.196E+00    0.152E-01
RMM:   2    -0.440674038429E+02   -0.21473E-03   -0.18956E-03 15855   0.262E-01    0.150E-01
RMM:   3    -0.440670673308E+02    0.33651E-03   -0.25401E-04 15861   0.805E-02    0.936E-02
RMM:   4    -0.440670448029E+02    0.22528E-04   -0.15011E-04 15593   0.650E-02    0.734E-02
RMM:   5    -0.440670234136E+02    0.21389E-04   -0.61166E-05 13239   0.395E-02    0.243E-02
RMM:   6    -0.440670070479E+02    0.16366E-04   -0.11552E-05  8274   0.210E-02    0.698E-03
RMM:   7    -0.440670091304E+02   -0.20825E-05   -0.38670E-06  8502   0.119E-02
  11 F= -.44067009E+02 E0= -.44067009E+02  d E =-.152526E-03  mag=     0.0000
       N       E                     dE             d eps       ncg     rms          rms(c)
DAV:   1    -0.440670927153E+02   -0.85667E-04   -0.15979E-02 14912   0.858E-01    0.644E-02
RMM:   2    -0.440671692888E+02   -0.76574E-04   -0.36954E-04 15712   0.117E-01    0.850E-02
RMM:   3    -0.440670723656E+02    0.96923E-04   -0.50831E-05 12370   0.375E-02    0.342E-02
RMM:   4    -0.440670833674E+02   -0.11002E-04   -0.20603E-05  8329   0.277E-02    0.152E-02
RMM:   5    -0.440670598677E+02    0.23500E-04   -0.38084E-06  8006   0.137E-02    0.934E-03
RMM:   6    -0.440670692697E+02   -0.94020E-05   -0.29266E-06  7901   0.873E-03
  12 F= -.44067069E+02 E0= -.44067069E+02  d E =-.601393E-04  mag=     0.0000
       N       E                     dE             d eps       ncg     rms          rms(c)
DAV:   1    -0.440671232488E+02   -0.63381E-04   -0.19878E-02 14912   0.958E-01    0.717E-02
RMM:   2    -0.440672146460E+02   -0.91397E-04   -0.46357E-04 15628   0.130E-01    0.948E-02
RMM:   3    -0.440670985817E+02    0.11606E-03   -0.62763E-05 13176   0.416E-02    0.381E-02
RMM:   4    -0.440671078325E+02   -0.92508E-05   -0.24283E-05  8546   0.302E-02
  13 F= -.44067108E+02 E0= -.44067108E+02  d E =-.987020E-04  mag=     0.0000
