unknown system                          
           1
     4.680267    0.030675    1.916040
     1.982558    4.453103    1.541215
     0.569716   -0.340467    5.069074
   Li   O 
   1   8
Direct configuration=     1
   0.49553000  0.80370600  0.80370600
   0.84209800  0.33335800  0.82039300
   0.15060000  0.23329700  0.69961700
   0.15060000  0.69961700  0.23329700
   0.84209800  0.82039300  0.33335800
   0.83801700  0.25582200  0.25582200
   0.15371300  0.74122500  0.74122500
   0.14205900  0.15254900  0.15254900
   0.84361800  0.86479500  0.86479500
unknown system                          
           1
     4.678474    0.029603    1.913865
     1.980877    4.451950    1.539241
     0.568106   -0.341379    5.066924
   Li   O 
   1   8
Direct configuration=     2
   0.49508200  0.80382163  0.80382163
   0.84169123  0.33346920  0.82057272
   0.15112232  0.23283782  0.69953307
   0.15112232  0.69953307  0.23283782
   0.84169123  0.82057272  0.33346920
   0.83773628  0.25596403  0.25596403
   0.15455394  0.74115484  0.74115484
   0.14254973  0.15236531  0.15236531
   0.84278396  0.86504338  0.86504338
unknown system                          
           1
     4.679830    0.030414    1.915510
     1.982148    4.452822    1.540734
     0.569324   -0.340689    5.068550
   Li   O 
   1   8
Direct configuration=     3
   0.49542084  0.80373423  0.80373423
   0.84199887  0.33338513  0.82043683
   0.15072731  0.23318508  0.69959654
   0.15072731  0.69959654  0.23318508
   0.84199887  0.82043683  0.33338513
   0.83794858  0.25585662  0.25585662
   0.15391785  0.74120776  0.74120776
   0.14217859  0.15250420  0.15250420
   0.84341477  0.86485561  0.86485561
unknown system                          
           1
     4.675132    0.030766    1.914107
     1.980731    4.451927    1.539040
     0.567931   -0.341503    5.066796
   Li   O 
   1   8
Direct configuration=     4
   0.49502308  0.80383769  0.80383769
   0.84194932  0.33337361  0.82047283
   0.15087401  0.23288815  0.69964503
   0.15087401  0.69964503  0.23288815
   0.84194932  0.82047283  0.33337361
   0.83799665  0.25588114  0.25588114
   0.15415932  0.74133361  0.74133361
   0.14233729  0.15244241  0.15244241
   0.84316999  0.86488752  0.86488752
unknown system                          
           1
     4.669360    0.031199    1.912384
     1.978990    4.450828    1.536960
     0.566219   -0.342503    5.064642
   Li   O 
   1   8
Direct configuration=     5
   0.49453392  0.80396491  0.80396491
   0.84188837  0.33335946  0.82051707
   0.15105439  0.23252327  0.69970454
   0.15105439  0.69970454  0.23252327
   0.84188837  0.82051707  0.33335946
   0.83805580  0.25591127  0.25591127
   0.15445636  0.74148827  0.74148827
   0.14253246  0.15236644  0.15236644
   0.84286894  0.86492677  0.86492677
unknown system                          
           1
     4.666061    0.031593    1.911598
     1.978173    4.450580    1.535829
     0.565277   -0.343172    5.063822
   Li   O 
   1   8
Direct configuration=     6
   0.49426558  0.80403668  0.80403668
   0.84180887  0.33335582  0.82055144
   0.15118912  0.23231391  0.69972019
   0.15118912  0.69972019  0.23231391
   0.84180887  0.82055144  0.33335582
   0.83792889  0.25598870  0.25598870
   0.15435097  0.74166647  0.74166647
   0.14282054  0.15227801  0.15227801
   0.84297105  0.86485079  0.86485079
unknown system                          
           1
     4.663456    0.031904    1.910977
     1.977528    4.450385    1.534937
     0.564534   -0.343700    5.063175
   Li   O 
   1   8
Direct configuration=     7
   0.49405360  0.80409336  0.80409336
   0.84174606  0.33335295  0.82057858
   0.15129554  0.23214863  0.69973250
   0.15129554  0.69973250  0.23214863
   0.84174606  0.82057858  0.33335295
   0.83782865  0.25604985  0.25604985
   0.15426774  0.74180718  0.74180718
   0.14304810  0.15220816  0.15220816
   0.84305170  0.86479080  0.86479080
unknown system                          
           1
     4.661757    0.032163    1.910649
     1.977209    4.450797    1.534291
     0.563928   -0.344263    5.063246
   Li   O 
   1   8
Direct configuration=     8
   0.49388365  0.80414267  0.80414267
   0.84162768  0.33335526  0.82061172
   0.15143502  0.23200455  0.69971565
   0.15143502  0.69971565  0.23200455
   0.84162768  0.82061172  0.33335526
   0.83782143  0.25608627  0.25608627
   0.15433068  0.74185208  0.74185208
   0.14320189  0.15218413  0.15218413
   0.84296995  0.86480966  0.86480966
unknown system                          
           1
     4.660366    0.032375    1.910381
     1.976948    4.451134    1.533762
     0.563431   -0.344724    5.063305
   Li   O 
   1   8
Direct configuration=     9
   0.49374452  0.80418303  0.80418303
   0.84153075  0.33335716  0.82063886
   0.15154921  0.23188664  0.69970184
   0.15154921  0.69970184  0.23188664
   0.84153075  0.82063886  0.33335716
   0.83781552  0.25611609  0.25611609
   0.15438222  0.74188883  0.74188883
   0.14332780  0.15216446  0.15216446
   0.84290302  0.86482510  0.86482510
unknown system                          
           1
     4.658806    0.032730    1.910238
     1.976763    4.451615    1.533303
     0.562970   -0.345181    5.063536
   Li   O 
   1   8
Direct configuration=    10
   0.49362555  0.80421977  0.80421977
   0.84150025  0.33332944  0.82063937
   0.15158965  0.23180706  0.69970945
   0.15158965  0.69970945  0.23180706
   0.84150025  0.82063937  0.33332944
   0.83787534  0.25612503  0.25612503
   0.15445368  0.74190177  0.74190177
   0.14338728  0.15217331  0.15217331
   0.84281134  0.86485681  0.86485681
unknown system                          
           1
     4.654127    0.033795    1.909811
     1.976208    4.453056    1.531929
     0.561586   -0.346551    5.064231
   Li   O 
   1   8
Direct configuration=    11
   0.49326851  0.80433003  0.80433003
   0.84140871  0.33324628  0.82064092
   0.15171102  0.23156832  0.69973222
   0.15171102  0.69973222  0.23156832
   0.84140871  0.82064092  0.33324628
   0.83805487  0.25615186  0.25615186
   0.15466814  0.74194057  0.74194057
   0.14356579  0.15219982  0.15219982
   0.84253623  0.86495198  0.86495198
unknown system                          
           1
     4.652245    0.034242    1.909664
     1.976021    4.453887    1.531346
     0.560964   -0.347200    5.064737
   Li   O 
   1   8
Direct configuration=    12
   0.49313393  0.80437717  0.80437717
   0.84138599  0.33318439  0.82064400
   0.15174307  0.23148211  0.69974621
   0.15174307  0.69974621  0.23148211
   0.84138599  0.82064400  0.33318439
   0.83800985  0.25620891  0.25620891
   0.15470795  0.74195793  0.74195793
   0.14377017  0.15217314  0.15217314
   0.84245296  0.86498814  0.86498814
unknown system                          
           1
     4.650145    0.034741    1.909501
     1.975813    4.454813    1.530696
     0.560269   -0.347923    5.065301
   Li   O 
   1   8
Direct configuration=    13
   0.49298374  0.80442977  0.80442977
   0.84136062  0.33311536  0.82064742
   0.15177884  0.23138594  0.69976180
   0.15177884  0.69976180  0.23138594
   0.84136062  0.82064742  0.33311536
   0.83795962  0.25627256  0.25627256
   0.15475238  0.74197730  0.74197730
   0.14399828  0.15214336  0.15214336
   0.84236004  0.86502849  0.86502849
