   12   12    1    2
  0.8904395E+01  0.4797362E-09  0.5330402E-09  0.4748969E-09  0.5000000E-15
  1.000000000000000E-004
  CAR 
 unknown system                          
     56    116     40
 
  0.0000000E+00  0.0000000E+00  0.0000000E+00  0.2551020E-02
    1      -39.361750    -39.361548   1.000000   1.000000
    2      -39.349514    -39.349312   1.000000   1.000000
    3      -39.156183    -39.155991   1.000000   1.000000
    4      -39.140998    -39.140805   1.000000   1.000000
    5      -17.314345    -17.314373   1.000000   1.000000
    6      -16.700980    -16.701017   1.000000   1.000000
    7      -14.522184    -14.522221   1.000000   1.000000
    8      -14.478105    -14.478141   1.000000   1.000000
    9      -12.183798    -12.183822   1.000000   1.000000
   10      -10.691254    -10.691274   1.000000   1.000000
   11       -6.271926     -6.271946   1.000000   1.000000
   12       -3.274858     -3.274873   1.000000   1.000000
   13       -2.964549     -2.964560   1.000000   1.000000
   14       -2.577361     -2.577377   1.000000   1.000000
   15       -2.351013     -2.351028   1.000000   1.000000
   16       -1.284802     -1.284831   1.000000   1.000000
   17       -0.528493     -0.528501   1.000000   1.000000
   18       -0.523887     -0.523898   1.000000   1.000000
   19        0.390928      0.390912   1.000000   1.000000
   20        0.571645      0.571629   1.000000   1.000000
   21        0.936057      0.936041   1.000000   1.000000
   22        1.724015      1.723994   1.000000   1.000000
   23        1.734789      1.734761   1.000000   1.000000
   24        2.076565      2.076543   1.000000   1.000000
   25        2.114815      2.114788   1.000000   1.000000
   26        2.862432      2.862432   1.000000   1.000000
   27        2.964671      2.964663   1.000000   1.000000
   28        3.599779      3.599780   1.000000   1.000000
   29        9.795355      9.795380   0.000002   0.000001
   30       10.608182     10.608194   0.000000   0.000000
   31       11.174287     11.174292   0.000000   0.000000
   32       12.828273     12.828264   0.000000   0.000000
   33       12.944968     12.944783   0.000000   0.000000
   34       13.724672     13.724840   0.000000   0.000000
   35       13.763621     13.763844   0.000000   0.000000
   36       14.495405     14.495418   0.000000   0.000000
   37       14.661261     14.660588   0.000000   0.000000
   38       15.245991     15.246828   0.000000   0.000000
   39       15.382358     15.382599   0.000000   0.000000
   40       16.144979     16.364461   0.000000   0.000000
 
  0.1250000E+00  0.4671930E-18  0.0000000E+00  0.5102041E-02
    1      -39.361581    -39.361379   1.000000   1.000000
    2      -39.349539    -39.349337   1.000000   1.000000
    3      -39.156343    -39.156150   1.000000   1.000000
    4      -39.141030    -39.140837   1.000000   1.000000
    5      -17.295975    -17.296004   1.000000   1.000000
    6      -16.712678    -16.712714   1.000000   1.000000
    7      -14.536516    -14.536552   1.000000   1.000000
    8      -14.481245    -14.481282   1.000000   1.000000
    9      -12.191508    -12.191533   1.000000   1.000000
   10      -10.690560    -10.690580   1.000000   1.000000
   11       -6.273836     -6.273856   1.000000   1.000000
   12       -3.285183     -3.285198   1.000000   1.000000
   13       -2.963327     -2.963340   1.000000   1.000000
   14       -2.523233     -2.523249   1.000000   1.000000
   15       -2.310953     -2.310969   1.000000   1.000000
   16       -1.299680     -1.299708   1.000000   1.000000
   17       -0.635061     -0.635070   1.000000   1.000000
   18       -0.296355     -0.296368   1.000000   1.000000
   19        0.420056      0.420039   1.000000   1.000000
   20        0.610653      0.610637   1.000000   1.000000
   21        0.921321      0.921305   1.000000   1.000000
   22        1.645359      1.645336   1.000000   1.000000
   23        1.736653      1.736628   1.000000   1.000000
   24        1.940693      1.940673   1.000000   1.000000
   25        2.074669      2.074643   1.000000   1.000000
   26        2.852776      2.852771   1.000000   1.000000
   27        2.965453      2.965449   1.000000   1.000000
   28        3.598957      3.598957   1.000000   1.000000
   29        9.888701      9.888719   0.000000   0.000000
   30       10.671476     10.671487   0.000000   0.000000
   31       11.280131     11.280128   0.000000   0.000000
   32       12.644188     12.644185   0.000000   0.000000
   33       13.049202     13.049288   0.000000   0.000000
   34       13.564368     13.564457   0.000000   0.000000
   35       13.753892     13.753319   0.000000   0.000000
   36       14.369666     14.368953   0.000000   0.000000
   37       14.584822     14.585738   0.000000   0.000000
   38       15.229532     15.229983   0.000000   0.000000
   39       15.350685     15.353128   0.000000   0.000000
   40       15.488562     15.486920   0.000000   0.000000
 
  0.2500000E+00  0.9343860E-18  0.0000000E+00  0.5102041E-02
    1      -39.361111    -39.360909   1.000000   1.000000
    2      -39.349619    -39.349417   1.000000   1.000000
    3      -39.156684    -39.156491   1.000000   1.000000
    4      -39.141089    -39.140896   1.000000   1.000000
    5      -17.247040    -17.247070   1.000000   1.000000
    6      -16.745331    -16.745367   1.000000   1.000000
    7      -14.568970    -14.569006   1.000000   1.000000
    8      -14.491133    -14.491170   1.000000   1.000000
    9      -12.208989    -12.209013   1.000000   1.000000
   10      -10.689730    -10.689750   1.000000   1.000000
   11       -6.276462     -6.276482   1.000000   1.000000
   12       -3.322972     -3.322986   1.000000   1.000000
   13       -2.922655     -2.922669   1.000000   1.000000
   14       -2.499075     -2.499094   1.000000   1.000000
   15       -2.113464     -2.113483   1.000000   1.000000
   16       -1.341804     -1.341829   1.000000   1.000000
   17       -0.560174     -0.560185   1.000000   1.000000
   18       -0.044361     -0.044376   1.000000   1.000000
   19        0.420113      0.420096   1.000000   1.000000
   20        0.751928      0.751908   1.000000   1.000000
   21        0.887487      0.887473   1.000000   1.000000
   22        1.365914      1.365899   1.000000   1.000000
   23        1.642604      1.642584   1.000000   1.000000
   24        1.785757      1.785737   1.000000   1.000000
   25        1.972659      1.972635   1.000000   1.000000
   26        2.740198      2.740194   1.000000   1.000000
   27        3.079655      3.079646   1.000000   1.000000
   28        3.599275      3.599275   1.000000   1.000000
   29       10.018245     10.018255   0.000000   0.000000
   30       10.882884     10.882901   0.000000   0.000000
   31       11.599354     11.599373   0.000000   0.000000
   32       12.534268     12.534250   0.000000   0.000000
   33       12.830785     12.830800   0.000000   0.000000
   34       13.149192     13.149082   0.000000   0.000000
   35       13.799201     13.798872   0.000000   0.000000
   36       13.993142     13.992414   0.000000   0.000000
   37       14.412512     14.412439   0.000000   0.000000
   38       14.933531     14.932429   0.000000   0.000000
   39       15.105043     15.104775   0.000000   0.000000
   40       15.644316     15.633046   0.000000   0.000000
 
  0.3750000E+00 -0.6491201E-16  0.0000000E+00  0.5102041E-02
    1      -39.360574    -39.360373   1.000000   1.000000
    2      -39.349680    -39.349478   1.000000   1.000000
    3      -39.156961    -39.156768   1.000000   1.000000
    4      -39.141134    -39.140942   1.000000   1.000000
    5      -17.188444    -17.188475   1.000000   1.000000
    6      -16.787485    -16.787521   1.000000   1.000000
    7      -14.600021    -14.600056   1.000000   1.000000
    8      -14.502540    -14.502577   1.000000   1.000000
    9      -12.224936    -12.224961   1.000000   1.000000
   10      -10.690098    -10.690118   1.000000   1.000000
   11       -6.275780     -6.275799   1.000000   1.000000
   12       -3.377199     -3.377211   1.000000   1.000000
   13       -2.864469     -2.864483   1.000000   1.000000
   14       -2.497435     -2.497459   1.000000   1.000000
   15       -1.833179     -1.833202   1.000000   1.000000
   16       -1.390783     -1.390806   1.000000   1.000000
   17       -0.401434     -0.401449   1.000000   1.000000
   18        0.178775      0.178757   1.000000   1.000000
   19        0.383435      0.383419   1.000000   1.000000
   20        0.739059      0.739048   1.000000   1.000000
   21        0.853046      0.853032   1.000000   1.000000
   22        1.060824      1.060807   1.000000   1.000000
   23        1.632606      1.632590   1.000000   1.000000
   24        1.660952      1.660937   1.000000   1.000000
   25        1.874956      1.874932   1.000000   1.000000
   26        2.632574      2.632574   1.000000   1.000000
   27        3.219709      3.219691   1.000000   1.000000
   28        3.600228      3.600226   1.000000   1.000000
   29        9.995107      9.995097   0.000000   0.000000
   30       11.274475     11.274486   0.000000   0.000000
   31       12.029895     12.030030   0.000000   0.000000
   32       12.495228     12.495292   0.000000   0.000000
   33       12.562301     12.562230   0.000000   0.000000
   34       12.671468     12.671400   0.000000   0.000000
   35       13.608090     13.607766   0.000000   0.000000
   36       13.724910     13.724830   0.000000   0.000000
   37       13.854753     13.854782   0.000000   0.000000
   38       15.029487     15.029374   0.000000   0.000000
   39       15.205491     15.204912   0.000000   0.000000
   40       15.970893     15.956325   0.000000   0.000000
 
  0.5000000E+00  0.1868772E-17  0.0000000E+00  0.2551020E-02
    1      -39.360358    -39.360156   1.000000   1.000000
    2      -39.349719    -39.349517   1.000000   1.000000
    3      -39.157120    -39.156928   1.000000   1.000000
    4      -39.141126    -39.140934   1.000000   1.000000
    5      -17.159441    -17.159473   1.000000   1.000000
    6      -16.809753    -16.809788   1.000000   1.000000
    7      -14.612795    -14.612829   1.000000   1.000000
    8      -14.507473    -14.507509   1.000000   1.000000
    9      -12.231173    -12.231197   1.000000   1.000000
   10      -10.690675    -10.690695   1.000000   1.000000
   11       -6.274447     -6.274466   1.000000   1.000000
   12       -3.404180     -3.404192   1.000000   1.000000
   13       -2.841435     -2.841448   1.000000   1.000000
   14       -2.490653     -2.490680   1.000000   1.000000
   15       -1.669385     -1.669410   1.000000   1.000000
   16       -1.429581     -1.429603   1.000000   1.000000
   17       -0.326873     -0.326890   1.000000   1.000000
   18        0.300620      0.300594   1.000000   1.000000
   19        0.405296      0.405278   1.000000   1.000000
   20        0.493276      0.493280   1.000000   1.000000
   21        0.857472      0.857461   1.000000   1.000000
   22        1.041897      1.041874   1.000000   1.000000
   23        1.583456      1.583446   1.000000   1.000000
   24        1.677479      1.677461   1.000000   1.000000
   25        1.825306      1.825281   1.000000   1.000000
   26        2.591753      2.591753   1.000000   1.000000
   27        3.281300      3.281279   1.000000   1.000000
   28        3.600305      3.600302   1.000000   1.000000
   29        9.949568      9.949557   0.000000   0.000000
   30       11.619600     11.619592   0.000000   0.000000
   31       12.015651     12.015654   0.000000   0.000000
   32       12.308824     12.308863   0.000000   0.000000
   33       12.510484     12.510253   0.000000   0.000000
   34       12.880201     12.880277   0.000000   0.000000
   35       13.297248     13.297217   0.000000   0.000000
   36       13.507207     13.506855   0.000000   0.000000
   37       13.671074     13.671204   0.000000   0.000000
   38       15.030745     15.030784   0.000000   0.000000
   39       15.412225     15.412451   0.000000   0.000000
   40       16.062362     16.058375   0.000000   0.000000
 
 -0.1860997E-16  0.1428571E+00  0.0000000E+00  0.5102041E-02
    1      -39.361465    -39.361263   1.000000   1.000000
    2      -39.349687    -39.349485   1.000000   1.000000
    3      -39.156302    -39.156109   1.000000   1.000000
    4      -39.141023    -39.140830   1.000000   1.000000
    5      -17.299718    -17.299747   1.000000   1.000000
    6      -16.715707    -16.715744   1.000000   1.000000
    7      -14.525637    -14.525674   1.000000   1.000000
    8      -14.481880    -14.481917   1.000000   1.000000
    9      -12.189349    -12.189374   1.000000   1.000000
   10      -10.690089    -10.690109   1.000000   1.000000
   11       -6.263626     -6.263646   1.000000   1.000000
   12       -3.290917     -3.290932   1.000000   1.000000
   13       -2.927521     -2.927534   1.000000   1.000000
   14       -2.501121     -2.501138   1.000000   1.000000
   15       -2.374378     -2.374393   1.000000   1.000000
   16       -1.296932     -1.296961   1.000000   1.000000
   17       -0.639639     -0.639648   1.000000   1.000000
   18       -0.321983     -0.321995   1.000000   1.000000
   19        0.427110      0.427093   1.000000   1.000000
   20        0.642592      0.642575   1.000000   1.000000
   21        0.943797      0.943782   1.000000   1.000000
   22        1.527528      1.527506   1.000000   1.000000
   23        1.685634      1.685613   1.000000   1.000000
   24        2.029258      2.029235   1.000000   1.000000
   25        2.105747      2.105721   1.000000   1.000000
   26        2.829357      2.829353   1.000000   1.000000
   27        2.964319      2.964315   1.000000   1.000000
   28        3.582808      3.582809   1.000000   1.000000
   29        9.988744      9.988764  -0.000000  -0.000000
   30       10.676592     10.676611   0.000000   0.000000
   31       11.271585     11.271609   0.000000   0.000000
   32       12.591789     12.591647   0.000000   0.000000
   33       12.978615     12.978447   0.000000   0.000000
   34       13.517192     13.516977   0.000000   0.000000
   35       13.775862     13.775955   0.000000   0.000000
   36       14.198086     14.198103   0.000000   0.000000
   37       14.620059     14.620006   0.000000   0.000000
   38       14.985864     14.974428   0.000000   0.000000
   39       15.571102     15.567232   0.000000   0.000000
   40       16.200101     15.864231   0.000000   0.000000
 
  0.1250000E+00  0.1428571E+00  0.0000000E+00  0.5102041E-02
    1      -39.361053    -39.360852   1.000000   1.000000
    2      -39.349815    -39.349613   1.000000   1.000000
    3      -39.156541    -39.156349   1.000000   1.000000
    4      -39.140996    -39.140804   1.000000   1.000000
    5      -17.266532    -17.266561   1.000000   1.000000
    6      -16.743680    -16.743715   1.000000   1.000000
    7      -14.550946    -14.550982   1.000000   1.000000
    8      -14.477811    -14.477848   1.000000   1.000000
    9      -12.197019    -12.197044   1.000000   1.000000
   10      -10.689935    -10.689955   1.000000   1.000000
   11       -6.253546     -6.253566   1.000000   1.000000
   12       -3.334766     -3.334780   1.000000   1.000000
   13       -2.907261     -2.907275   1.000000   1.000000
   14       -2.458466     -2.458485   1.000000   1.000000
   15       -2.306350     -2.306367   1.000000   1.000000
   16       -1.344071     -1.344097   1.000000   1.000000
   17       -0.606822     -0.606833   1.000000   1.000000
   18       -0.060512     -0.060530   1.000000   1.000000
   19        0.593796      0.593780   1.000000   1.000000
   20        0.605732      0.605712   1.000000   1.000000
   21        0.910192      0.910179   1.000000   1.000000
   22        1.402759      1.402740   1.000000   1.000000
   23        1.542493      1.542478   1.000000   1.000000
   24        1.967228      1.967206   1.000000   1.000000
   25        1.978845      1.978821   1.000000   1.000000
   26        2.745093      2.745090   1.000000   1.000000
   27        3.041994      3.041986   1.000000   1.000000
   28        3.585478      3.585477   1.000000   1.000000
   29       10.095131     10.095139   0.000000   0.000000
   30       10.809292     10.809307   0.000000   0.000000
   31       11.418987     11.418981   0.000000   0.000000
   32       12.507112     12.507120   0.000000   0.000000
   33       12.779257     12.779419   0.000000   0.000000
   34       13.242757     13.242997   0.000000   0.000000
   35       13.928220     13.928217   0.000000   0.000000
   36       14.041543     14.041108   0.000000   0.000000
   37       14.278601     14.278626   0.000000   0.000000
   38       14.883557     14.883230   0.000000   0.000000
   39       15.084379     15.085506   0.000000   0.000000
   40       15.884668     15.947864   0.000000   0.000000
 
  0.2500000E+00  0.1428571E+00  0.0000000E+00  0.5102041E-02
    1      -39.360586    -39.360384   1.000000   1.000000
    2      -39.349909    -39.349707   1.000000   1.000000
    3      -39.156876    -39.156683   1.000000   1.000000
    4      -39.141069    -39.140877   1.000000   1.000000
    5      -17.213290    -17.213321   1.000000   1.000000
    6      -16.780318    -16.780354   1.000000   1.000000
    7      -14.588273    -14.588308   1.000000   1.000000
    8      -14.482826    -14.482862   1.000000   1.000000
    9      -12.213620    -12.213644   1.000000   1.000000
   10      -10.690105    -10.690125   1.000000   1.000000
   11       -6.254472     -6.254492   1.000000   1.000000
   12       -3.379552     -3.379564   1.000000   1.000000
   13       -2.869723     -2.869738   1.000000   1.000000
   14       -2.443105     -2.443129   1.000000   1.000000
   15       -2.068426     -2.068445   1.000000   1.000000
   16       -1.381123     -1.381146   1.000000   1.000000
   17       -0.452213     -0.452228   1.000000   1.000000
   18        0.161895      0.161872   1.000000   1.000000
   19        0.438654      0.438638   1.000000   1.000000
   20        0.685832      0.685819   1.000000   1.000000
   21        0.940131      0.940117   1.000000   1.000000
   22        1.128569      1.128554   1.000000   1.000000
   23        1.482798      1.482786   1.000000   1.000000
   24        1.835036      1.835018   1.000000   1.000000
   25        1.907662      1.907636   1.000000   1.000000
   26        2.635121      2.635121   1.000000   1.000000
   27        3.169543      3.169527   1.000000   1.000000
   28        3.593040      3.593037   1.000000   1.000000
   29       10.098560     10.098565   0.000000   0.000000
   30       11.094228     11.094239   0.000000   0.000000
   31       11.711545     11.711597   0.000000   0.000000
   32       12.445465     12.445650   0.000000   0.000000
   33       12.648824     12.648760   0.000000   0.000000
   34       12.857541     12.857798   0.000000   0.000000
   35       13.565297     13.565367   0.000000   0.000000
   36       13.863821     13.863860   0.000000   0.000000
   37       14.163087     14.162212   0.000000   0.000000
   38       14.759118     14.758530   0.000000   0.000000
   39       15.008792     15.008259   0.000000   0.000000
   40       16.198586     15.978281   0.000000   0.000000
 
  0.3750000E+00  0.1428571E+00  0.0000000E+00  0.5102041E-02
    1      -39.360262    -39.360061   1.000000   1.000000
    2      -39.349852    -39.349650   1.000000   1.000000
    3      -39.157053    -39.156861   1.000000   1.000000
    4      -39.141117    -39.140925   1.000000   1.000000
    5      -17.169672    -17.169704   1.000000   1.000000
    6      -16.805477    -16.805512   1.000000   1.000000
    7      -14.617046    -14.617080   1.000000   1.000000
    8      -14.492341    -14.492377   1.000000   1.000000
    9      -12.229374    -12.229398   1.000000   1.000000
   10      -10.690094    -10.690114   1.000000   1.000000
   11       -6.266400     -6.266419   1.000000   1.000000
   12       -3.402996     -3.403008   1.000000   1.000000
   13       -2.821721     -2.821736   1.000000   1.000000
   14       -2.441597     -2.441625   1.000000   1.000000
   15       -1.798057     -1.798079   1.000000   1.000000
   16       -1.395462     -1.395484   1.000000   1.000000
   17       -0.329456     -0.329472   1.000000   1.000000
   18        0.180333      0.180315   1.000000   1.000000
   19        0.299171      0.299157   1.000000   1.000000
   20        0.651330      0.651322   1.000000   1.000000
   21        0.928667      0.928648   1.000000   1.000000
   22        1.036694      1.036679   1.000000   1.000000
   23        1.478928      1.478916   1.000000   1.000000
   24        1.752611      1.752595   1.000000   1.000000
   25        1.875178      1.875153   1.000000   1.000000
   26        2.580438      2.580439   1.000000   1.000000
   27        3.251887      3.251867   1.000000   1.000000
   28        3.602800      3.602796   1.000000   1.000000
   29       10.033873     10.033862   0.000000   0.000000
   30       11.364575     11.364583   0.000000   0.000000
   31       11.974406     11.974398   0.000000   0.000000
   32       12.210287     12.210395   0.000000   0.000000
   33       12.624658     12.624676   0.000000   0.000000
   34       12.980990     12.981057   0.000000   0.000000
   35       13.225384     13.225386   0.000000   0.000000
   36       13.527398     13.527445   0.000000   0.000000
   37       14.018586     14.018988   0.000000   0.000000
   38       14.928472     14.928445   0.000000   0.000000
   39       15.153817     15.153818   0.000000   0.000000
   40       16.124130     16.175347   0.000000   0.000000
 
  0.5000000E+00  0.1428571E+00  0.0000000E+00  0.5102041E-02
    1      -39.360396    -39.360195   1.000000   1.000000
    2      -39.349716    -39.349514   1.000000   1.000000
    3      -39.157039    -39.156847   1.000000   1.000000
    4      -39.141185    -39.140992   1.000000   1.000000
    5      -17.172123    -17.172155   1.000000   1.000000
    6      -16.793769    -16.793804   1.000000   1.000000
    7      -14.622579    -14.622613   1.000000   1.000000
    8      -14.498708    -14.498745   1.000000   1.000000
    9      -12.236315    -12.236339   1.000000   1.000000
   10      -10.689018    -10.689038   1.000000   1.000000
   11       -6.284592     -6.284611   1.000000   1.000000
   12       -3.380204     -3.380216   1.000000   1.000000
   13       -2.793505     -2.793520   1.000000   1.000000
   14       -2.479546     -2.479573   1.000000   1.000000
   15       -1.663776     -1.663801   1.000000   1.000000
   16       -1.427340     -1.427361   1.000000   1.000000
   17       -0.347896     -0.347911   1.000000   1.000000
   18        0.061163      0.061151   1.000000   1.000000
   19        0.278566      0.278552   1.000000   1.000000
   20        0.709095      0.709084   1.000000   1.000000
   21        0.877764      0.877741   1.000000   1.000000
   22        1.088585      1.088571   1.000000   1.000000
   23        1.491981      1.491966   1.000000   1.000000
   24        1.731950      1.731935   1.000000   1.000000
   25        1.887863      1.887838   1.000000   1.000000
   26        2.601977      2.601977   1.000000   1.000000
   27        3.226022      3.226003   1.000000   1.000000
   28        3.606577      3.606575   1.000000   1.000000
   29       10.050800     10.050799   0.000000   0.000000
   30       11.372203     11.372194   0.000000   0.000000
   31       11.952625     11.952657   0.000000   0.000000
   32       12.238939     12.238966   0.000000   0.000000
   33       12.751315     12.751331   0.000000   0.000000
   34       12.858753     12.858670   0.000000   0.000000
   35       13.367370     13.367210   0.000000   0.000000
   36       13.592195     13.592133   0.000000   0.000000
   37       14.086732     14.086696   0.000000   0.000000
   38       14.917316     14.917670   0.000000   0.000000
   39       15.377250     15.377410   0.000000   0.000000
   40       15.990844     15.994648   0.000000   0.000000
 
 -0.3750000E+00  0.1428571E+00  0.0000000E+00  0.5102041E-02
    1      -39.360805    -39.360603   1.000000   1.000000
    2      -39.349573    -39.349371   1.000000   1.000000
    3      -39.156814    -39.156622   1.000000   1.000000
    4      -39.141184    -39.140991   1.000000   1.000000
    5      -17.216599    -17.216630   1.000000   1.000000
    6      -16.754464    -16.754501   1.000000   1.000000
    7      -14.602270    -14.602304   1.000000   1.000000
    8      -14.497371    -14.497408   1.000000   1.000000
    9      -12.230379    -12.230403   1.000000   1.000000
   10      -10.687718    -10.687738   1.000000   1.000000
   11       -6.297294     -6.297314   1.000000   1.000000
   12       -3.326172     -3.326185   1.000000   1.000000
   13       -2.827799     -2.827815   1.000000   1.000000
   14       -2.506717     -2.506739   1.000000   1.000000
   15       -1.828526     -1.828548   1.000000   1.000000
   16       -1.379998     -1.380020   1.000000   1.000000
   17       -0.454741     -0.454752   1.000000   1.000000
   18       -0.097076     -0.097087   1.000000   1.000000
   19        0.284334      0.284318   1.000000   1.000000
   20        0.808650      0.808627   1.000000   1.000000
   21        0.905771      0.905758   1.000000   1.000000
   22        1.189336      1.189323   1.000000   1.000000
   23        1.542573      1.542556   1.000000   1.000000
   24        1.804820      1.804801   1.000000   1.000000
   25        1.933590      1.933566   1.000000   1.000000
   26        2.685559      2.685555   1.000000   1.000000
   27        3.107416      3.107403   1.000000   1.000000
   28        3.598662      3.598662   1.000000   1.000000
   29       10.129568     10.129562   0.000000   0.000000
   30       11.099432     11.099421   0.000000   0.000000
   31       11.833908     11.833925   0.000000   0.000000
   32       12.239074     12.239047   0.000000   0.000000
   33       12.874971     12.874933   0.000000   0.000000
   34       13.096384     13.096373   0.000000   0.000000
   35       13.560085     13.560042   0.000000   0.000000
   36       14.008327     14.008093   0.000000   0.000000
   37       14.249708     14.249883   0.000000   0.000000
   38       15.017038     15.016819   0.000000   0.000000
   39       15.351569     15.351536   0.000000   0.000000
   40       15.758611     15.762016   0.000000   0.000000
 
 -0.2500000E+00  0.1428571E+00  0.0000000E+00  0.5102041E-02
    1      -39.361291    -39.361090   1.000000   1.000000
    2      -39.349498    -39.349296   1.000000   1.000000
    3      -39.156500    -39.156307   1.000000   1.000000
    4      -39.141130    -39.140937   1.000000   1.000000
    5      -17.268098    -17.268127   1.000000   1.000000
    6      -16.719689    -16.719726   1.000000   1.000000
    7      -14.566543    -14.566578   1.000000   1.000000
    8      -14.490774    -14.490811   1.000000   1.000000
    9      -12.213776    -12.213801   1.000000   1.000000
   10      -10.688034    -10.688054   1.000000   1.000000
   11       -6.295126     -6.295146   1.000000   1.000000
   12       -3.277901     -3.277915   1.000000   1.000000
   13       -2.908979     -2.908995   1.000000   1.000000
   14       -2.492022     -2.492039   1.000000   1.000000
   15       -2.090598     -2.090617   1.000000   1.000000
   16       -1.306782     -1.306807   1.000000   1.000000
   17       -0.559089     -0.559097   1.000000   1.000000
   18       -0.302362     -0.302373   1.000000   1.000000
   19        0.273689      0.273673   1.000000   1.000000
   20        0.690896      0.690878   1.000000   1.000000
   21        1.018830      1.018811   1.000000   1.000000
   22        1.390086      1.390067   1.000000   1.000000
   23        1.762128      1.762105   1.000000   1.000000
   24        1.814313      1.814294   1.000000   1.000000
   25        2.039016      2.038991   1.000000   1.000000
   26        2.812719      2.812713   1.000000   1.000000
   27        2.967992      2.967986   1.000000   1.000000
   28        3.587147      3.587149   1.000000   1.000000
   29       10.091733     10.091742   0.000000   0.000000
   30       10.842546     10.842567   0.000000   0.000000
   31       11.505312     11.505319   0.000000   0.000000
   32       12.450733     12.450685   0.000000   0.000000
   33       13.102467     13.102453   0.000000   0.000000
   34       13.430479     13.430452   0.000000   0.000000
   35       13.569658     13.569501   0.000000   0.000000
   36       14.294695     14.294360   0.000000   0.000000
   37       14.455453     14.456489   0.000000   0.000000
   38       15.217232     15.213462   0.000000   0.000000
   39       15.405010     15.402119   0.000000   0.000000
   40       15.657459     15.651600   0.000000   0.000000
 
 -0.1250000E+00  0.1428571E+00  0.0000000E+00  0.5102041E-02
    1      -39.361550    -39.361349   1.000000   1.000000
    2      -39.349583    -39.349381   1.000000   1.000000
    3      -39.156304    -39.156111   1.000000   1.000000
    4      -39.141063    -39.140871   1.000000   1.000000
    5      -17.300071    -17.300100   1.000000   1.000000
    6      -16.706114    -16.706150   1.000000   1.000000
    7      -14.533231    -14.533268   1.000000   1.000000
    8      -14.486093    -14.486129   1.000000   1.000000
    9      -12.196283    -12.196308   1.000000   1.000000
   10      -10.689406    -10.689427   1.000000   1.000000
   11       -6.280537     -6.280558   1.000000   1.000000
   12       -3.262746     -3.262761   1.000000   1.000000
   13       -2.946722     -2.946736   1.000000   1.000000
   14       -2.494820     -2.494836   1.000000   1.000000
   15       -2.296748     -2.296765   1.000000   1.000000
   16       -1.272750     -1.272778   1.000000   1.000000
   17       -0.524316     -0.524324   1.000000   1.000000
   18       -0.510309     -0.510318   1.000000   1.000000
   19        0.304570      0.304555   1.000000   1.000000