Automatically generated mesh
     116
Reciprocal lattice
    0.00000000000000    0.00000000000000    0.00000000000000             1
    0.12500000000000    0.00000000000000    0.00000000000000             2
    0.25000000000000    0.00000000000000    0.00000000000000             2
    0.37500000000000   -0.00000000000000    0.00000000000000             2
    0.50000000000000    0.00000000000000    0.00000000000000             1
   -0.00000000000000    0.14285714285715    0.00000000000000             2
    0.12500000000000    0.14285714285715    0.00000000000000             2
    0.25000000000000    0.14285714285715    0.00000000000000             2
    0.37500000000000    0.14285714285715    0.00000000000000             2
    0.50000000000000    0.14285714285715    0.00000000000000             2
   -0.37500000000000    0.14285714285715    0.00000000000000             2
   -0.25000000000000    0.14285714285715    0.00000000000000             2
   -0.12500000000000    0.14285714285715    0.00000000000000             2
   -0.00000000000000    0.28571428571428    0.00000000000000             2
    0.12500000000000    0.28571428571428    0.00000000000000             2
    0.25000000000000    0.28571428571428    0.00000000000000             2
    0.37500000000000    0.28571428571428    0.00000000000000             2
    0.50000000000000    0.28571428571428    0.00000000000000             2
   -0.37500000000000    0.28571428571428    0.00000000000000             2
   -0.25000000000000    0.28571428571428    0.00000000000000             2
   -0.12500000000000    0.28571428571428    0.00000000000000             2
   -0.00000000000000    0.42857142857143    0.00000000000000             2
    0.12500000000000    0.42857142857143    0.00000000000000             2
    0.25000000000000    0.42857142857143    0.00000000000000             2
    0.37500000000000    0.42857142857143    0.00000000000000             2
    0.50000000000000    0.42857142857143    0.00000000000000             2
   -0.37500000000000    0.42857142857143    0.00000000000000             2
   -0.25000000000000    0.42857142857143    0.00000000000000             2
   -0.12500000000000    0.42857142857143    0.00000000000000             2
    0.00000000000000    0.00000000000000    0.14285714285714             2
    0.12500000000000    0.00000000000000    0.14285714285714             4
    0.25000000000000    0.00000000000000    0.14285714285714             4
    0.37500000000000   -0.00000000000000    0.14285714285714             4
    0.50000000000000    0.00000000000000    0.14285714285714             2
   -0.00000000000000    0.14285714285715    0.14285714285714             4
    0.12500000000000    0.14285714285715    0.14285714285714             4
    0.25000000000000    0.14285714285715    0.14285714285714             4
    0.37500000000000    0.14285714285715    0.14285714285714             4
    0.50000000000000    0.14285714285715    0.14285714285714             4
   -0.37500000000000    0.14285714285715    0.14285714285714             4
   -0.25000000000000    0.14285714285715    0.14285714285714             4
   -0.12500000000000    0.14285714285715    0.14285714285714             4
   -0.00000000000000    0.28571428571428    0.14285714285714             4
    0.12500000000000    0.28571428571428    0.14285714285714             4
    0.25000000000000    0.28571428571428    0.14285714285714             4
    0.37500000000000    0.28571428571428    0.14285714285714             4
    0.50000000000000    0.28571428571428    0.14285714285714             4
   -0.37500000000000    0.28571428571428    0.14285714285714             4
   -0.25000000000000    0.28571428571428    0.14285714285714             4
   -0.12500000000000    0.28571428571428    0.14285714285714             4
   -0.00000000000000    0.42857142857143    0.14285714285714             4
    0.12500000000000    0.42857142857143    0.14285714285714             4
    0.25000000000000    0.42857142857143    0.14285714285714             4
    0.37500000000000    0.42857142857143    0.14285714285714             4
    0.50000000000000    0.42857142857143    0.14285714285714             4
   -0.37500000000000    0.42857142857143    0.14285714285714             4
   -0.25000000000000    0.42857142857143    0.14285714285714             4
   -0.12500000000000    0.42857142857143    0.14285714285714             4
    0.00000000000000    0.00000000000000    0.28571428571429             2
    0.12500000000000    0.00000000000000    0.28571428571429             4
    0.25000000000000    0.00000000000000    0.28571428571429             4
    0.37500000000000   -0.00000000000000    0.28571428571429             4
    0.50000000000000    0.00000000000000    0.28571428571429             2
   -0.00000000000000    0.14285714285715    0.28571428571429             4
    0.12500000000000    0.14285714285715    0.28571428571429             4
    0.25000000000000    0.14285714285715    0.28571428571429             4
    0.37500000000000    0.14285714285715    0.28571428571429             4
    0.50000000000000    0.14285714285715    0.28571428571429             4
   -0.37500000000000    0.14285714285715    0.28571428571429             4
   -0.25000000000000    0.14285714285715    0.28571428571429             4
   -0.12500000000000    0.14285714285715    0.28571428571429             4
   -0.00000000000000    0.28571428571428    0.28571428571429             4
    0.12500000000000    0.28571428571428    0.28571428571429             4
    0.25000000000000    0.28571428571428    0.28571428571429             4
    0.37500000000000    0.28571428571428    0.28571428571429             4
    0.50000000000000    0.28571428571428    0.28571428571429             4
   -0.37500000000000    0.28571428571428    0.28571428571429             4
   -0.25000000000000    0.28571428571428    0.28571428571429             4
   -0.12500000000000    0.28571428571428    0.28571428571429             4
   -0.00000000000000    0.42857142857143    0.28571428571429             4
    0.12500000000000    0.42857142857143    0.28571428571429             4
    0.25000000000000    0.42857142857143    0.28571428571429             4
    0.37500000000000    0.42857142857143    0.28571428571429             4
    0.50000000000000    0.42857142857143    0.28571428571429             4
   -0.37500000000000    0.42857142857143    0.28571428571429             4
   -0.25000000000000    0.42857142857143    0.28571428571429             4
   -0.12500000000000    0.42857142857143    0.28571428571429             4
    0.00000000000000    0.00000000000000    0.42857142857143             2
    0.12500000000000    0.00000000000000    0.42857142857143             4
    0.25000000000000    0.00000000000000    0.42857142857143             4
    0.37500000000000   -0.00000000000000    0.42857142857143             4
    0.50000000000000    0.00000000000000    0.42857142857143             2
   -0.00000000000000    0.14285714285715    0.42857142857143             4
    0.12500000000000    0.14285714285715    0.42857142857143             4
    0.25000000000000    0.14285714285715    0.42857142857143             4
    0.37500000000000    0.14285714285715    0.42857142857143             4
    0.50000000000000    0.14285714285715    0.42857142857143             4
   -0.37500000000000    0.14285714285715    0.42857142857143             4
   -0.25000000000000    0.14285714285715    0.42857142857143             4
   -0.12500000000000    0.14285714285715    0.42857142857143             4
   -0.00000000000000    0.28571428571428    0.42857142857143             4
    0.12500000000000    0.28571428571428    0.42857142857143             4
    0.25000000000000    0.28571428571428    0.42857142857143             4
    0.37500000000000    0.28571428571428    0.42857142857143             4
    0.50000000000000    0.28571428571428    0.42857142857143             4
   -0.37500000000000    0.28571428571428    0.42857142857143             4
   -0.25000000000000    0.28571428571428    0.42857142857143             4
   -0.12500000000000    0.28571428571428    0.42857142857143             4
   -0.00000000000000    0.42857142857143    0.42857142857143             4
    0.12500000000000    0.42857142857143    0.42857142857143             4
    0.25000000000000    0.42857142857143    0.42857142857143             4
    0.37500000000000    0.42857142857143    0.42857142857143             4
    0.50000000000000    0.42857142857143    0.42857142857143             4
   -0.37500000000000    0.42857142857143    0.42857142857143             4
   -0.25000000000000    0.42857142857143    0.42857142857143             4
   -0.12500000000000    0.42857142857143    0.42857142857143             4
Tetrahedra
      1174    0.00042517006803
         2         1         2         6        31
         2         2         6         7        31
         2         6         7        31        36
         2         1         6        30        31
         2         6        30        31        35
         2         6        31        35        36
         2         2         3         7        32
         2         3         7         8        32
         2         7         8        32        37
         2         2         7        31        32
         2         7        31        32        36
         2         7        32        36        37
         2         3         4         8        33
         2         4         8         9        33
         2         8         9        33        38
         2         3         8        32        33
         2         8        32        33        37
         2         8        33        37        38
         2         4         5         9        34
         2         5         9        10        34
         2         9        10        34        39
         2         4         9        33        34
         2         9        33        34        38
         2         9        34        38        39
         2         4         5        10        33
         2         4        10        11        33
         2        10        11        33        40
         2         5        10        33        34
         2        10        33        34        39
         2        10        33        39        40
         2         3         4        11        32
         2         3        11        12        32
         2        11        12        32        41
         2         4        11        32        33
         2        11        32        33        40
         2        11        32        40        41
         2         2         3        12        31
         2         2        12        13        31
         2        12        13        31        42
         2         3        12        31        32
         2        12        31        32        41
         2        12        31        41        42
         2         1         2        13        30
         2         1         6        13        30
         2         6        13        30        35
         2         2        13        30        31
         2        13        30        31        42
         2        13        30        35        42
         2         6         7        14        36
         2         7        14        15        36
         2        14        15        36        44
         2         6        14        35        36
         2        14        35        36        43
         2        14        36        43        44
         2         7         8        15        37
         2         8        15        16        37
         2        15        16        37        45
         2         7        15        36        37
         2        15        36        37        44
         2        15        37        44        45
         2         8         9        16        38
         2         9        16        17        38
         2        16        17        38        46
         2         8        16        37        38
         2        16        37        38        45
         2        16        38        45        46
         2         9        10        17        39
         2        10        17        18        39
         2        17        18        39        47
         2         9        17        38        39
         2        17        38        39        46
         2        17        39        46        47
         2        10        11        18        40
         2        11        18        19        40
         2        18        19        40        48
         2        10        18        39        40
         2        18        39        40        47
         2        18        40        47        48
         2        11        12        19        41
         2        12        19        20        41
         2        19        20        41        49
         2        11        19        40        41
         2        19        40        41        48
         2        19        41        48        49
         2        12        13        20        42
         2        13        20        21        42
         2        20        21        42        50
         2        12        20        41        42
         2        20        41        42        49
         2        20        42        49        50
         2         6        13        21        35
         2         6        14        21        35
         2        14        21        35        43
         2        13        21        35        42
         2        21        35        42        50
         2        21        35        43        50
         2        14        15        22        44
         2        15        22        23        44
         2        22        23        44        52
         2        14        22        43        44
         2        22        43        44        51
         2        22        44        51        52
         2        15        16        23        45
         2        16        23        24        45
         2        23        24        45        53
         2        15        23        44        45
         2        23        44        45        52
         2        23        45        52        53
         2        16        17        24        46
         2        17        24        25        46
         2        24        25        46        54
         2        16        24        45        46
         2        24        45        46        53
         2        24        46        53        54
         2        17        18        25        47
         2        18        25        26        47
         2        25        26        47        55
         2        17        25        46        47
         2        25        46        47        54
         2        25        47        54        55
         2        18        19        26        48
         2        19        26        27        48
         2        26        27        48        56
         2        18        26        47        48
         2        26        47        48        55
         2        26        48        55        56
         2        19        20        27        49
         2        20        27        28        49
         2        27        28        49        57
         2        19        27        48        49
         2        27        48        49        56
         2        27        49        56        57
         2        20        21        28        50
         2        21        28        29        50
         2        28        29        50        58
         2        20        28        49        50
         2        28        49        50        57
         2        28        50        57        58
         2        14        21        29        43
         2        14        22        29        43
         2        22        29        43        51
         2        21        29        43        50
         2        29        43        50        58
         2        29        43        51        58
         2        22        22        23        52
         2        22        23        29        52
         2        22        29        52        58
         2        22        22        51        52
         2        22        51        51        52
         2        22        51        52        58
         2        23        24        29        53
         2        24        28        29        53
         2        28        29        53        57
         2        23        29        52        53
         2        29        52        53        58
         2        29        53        57        58
         2        24        25        28        54
         2        25        27        28        54
         2        27        28        54        56
         2        24        28        53        54
         2        28        53        54        57
         2        28        54        56        57
         2        25        26        27        55
         2        26        26        27        55
         2        26        27        55        55
         2        25        27        54        55
         2        27        54        55        56
         2        27        55        55        56
         2        26        26        27        56
         2        25        26        27        56
         2        25        26        54        56
         2        26        26        55        56
         2        26        55        55        56
         2        26        54        55        56
         2        25        27        28        57
         2        24        25        28        57
         2        24        25        53        57
         2        25        27        56        57
         2        25        54        56        57
         2        25        53        54        57
         2        24        28        29        58
         2        23        24        29        58
         2        23        24        52        58
         2        24        28        57        58
         2        24        53        57        58
         2        24        52        53        58
         2        22        23        29        51
         2        22        22        23        51
         2        22        23        51        51
         2        23        29        51        58
         2        23        51        52        58
         2        23        51        51        52
         2        14        22        29        58
         2        14        21        29        58
         2        14        21        50        58
         2        14        22        51        58
         2        14        43        51        58
         2        14        43        50        58
         2        21        28        29        57
         2        20        21        28        57
         2        20        21        49        57
         2        21        29        57        58
         2        21        50        57        58
         2        21        49        50        57
         2        20        27        28        56
         2        19        20        27        56
         2        19        20        48        56
         2        20        28        56        57
         2        20        49        56        57
         2        20        48        49        56
         2        19        26        27        55
         2        18        19        26        55
         2        18        19        47        55
         2        19        27        55        56
         2        19        48        55        56
         2        19        47        48        55
         2        18        25        26        54
         2        17        18        25        54
         2        17        18        46        54
         2        18        26        54        55
         2        18        47        54        55
         2        18        46        47        54
         2        17        24        25        53
         2        16        17        24        53
         2        16        17        45        53
         2        17        25        53        54
         2        17        46        53        54
         2        17        45        46        53
         2        16        23        24        52
         2        15        16        23        52
         2        15        16        44        52
         2        16        24        52        53
         2        16        45        52        53
         2        16        44        45        52
         2        15        22        23        51
         2        14        15        22        51
         2        14        15        43        51
         2        15        23        51        52
         2        15        44        51        52
         2        15        43        44        51
         2         6        14        21        50
         2         6        13        21        50
         2         6        13        42        50
         2         6        14        43        50
         2         6        35        43        50
         2         6        35        42        50
         2        13        20        21        49
         2        12        13        20        49
         2        12        13        41        49
         2        13        21        49        50
         2        13        42        49        50
         2        13        41        42        49
         2        12        19        20        48
         2        11        12        19        48
         2        11        12        40        48
         2        12        20        48        49
         2        12        41        48        49
         2        12        40        41        48
         2        11        18        19        47
         2        10        11        18        47
         2        10        11        39        47
         2        11        19        47        48
         2        11        40        47        48
         2        11        39        40        47
         2        10        17        18        46
         2         9        10        17        46
         2         9        10        38        46
         2        10        18        46        47
         2        10        39        46        47
         2        10        38        39        46
         2         9        16        17        45
         2         8         9        16        45
         2         8         9        37        45
         2         9        17        45        46
         2         9        38        45        46
         2         9        37        38        45
         2         8        15        16        44
         2         7         8        15        44
         2         7         8        36        44
         2         8        16        44        45
         2         8        37        44        45
         2         8        36        37        44
         2         7        14        15        43
         2         6         7        14        43
         2         6         7        35        43
         2         7        15        43        44
         2         7        36        43        44
         2         7        35        36        43
         2         1         6        13        42
         2         1         2        13        42
         2         1         2        31        42
         2         1         6        35        42
         2         1        30        35        42
         2         1        30        31        42
         2         2        12        13        41
         2         2         3        12        41
         2         2         3        32        41
         2         2        13        41        42
         2         2        31        41        42
         2         2        31        32        41
         2         3        11        12        40
         2         3         4        11        40
         2         3         4        33        40
         2         3        12        40        41
         2         3        32        40        41
         2         3        32        33        40
         2         4        10        11        39
         2         4         5        10        39
         2         4         5        34        39
         2         4        11        39        40
         2         4        33        39        40
         2         4        33        34        39
         2         5         9        10        38
         2         4         5         9        38
         2         4         5        33        38
         2         5        10        38        39
         2         5        34        38        39
         2         5        33        34        38
         2         4         8         9        37
         2         3         4         8        37
         2         3         4        32        37
         2         4         9        37        38
         2         4        33        37        38
         2         4        32        33        37
         2         3         7         8        36
         2         2         3         7        36
         2         2         3        31        36
         2         3         8        36        37
         2         3        32        36        37
         2         3        31        32        36
         2         2         6         7        35
         2         1         2         6        35
         2         1         2        30        35
         2         2         7        35        36
         2         2        31        35        36
         2         2        30        31        35
         2        30        31        35        60
         2        31        35        36        60
         2        35        36        60        65
         2        30        35        59        60
         2        35        59        60        64
         2        35        60        64        65
         2        31        32        36        61
         2        32        36        37        61
         2        36        37        61        66
         2        31        36        60        61
         2        36        60        61        65
         2        36        61        65        66
         2        32        33        37        62
         2        33        37        38        62
         2        37        38        62        67
         2        32        37        61        62
         2        37        61        62        66
         2        37        62        66        67
         2        33        34        38        63
         2        34        38        39        63
         2        38        39        63        68
         2        33        38        62        63
         2        38        62        63        67
         2        38        63        67        68
         2        33        34        39        62
         2        33        39        40        62
         2        39        40        62        69
         2        34        39        62        63
         2        39        62        63        68
         2        39        62        68        69
         2        32        33        40        61
         2        32        40        41        61
         2        40        41        61        70
         2        33        40        61        62
         2        40        61        62        69
         2        40        61        69        70
         2        31        32        41        60
         2        31        41        42        60
         2        41        42        60        71
         2        32        41        60        61
         2        41        60        61        70
         2        41        60        70        71
         2        30        31        42        59
         2        30        35        42        59
         2        35        42        59        64
         2        31        42        59        60
         2        42        59        60        71
         2        42        59        64        71
         2        35        36        43        65
         2        36        43        44        65
         2        43        44        65        73
         2        35        43        64        65
         2        43        64        65        72
         2        43        65        72        73
         2        36        37        44        66
         2        37        44        45        66
         2        44        45        66        74
         2        36        44        65        66
         2        44        65        66        73
         2        44        66        73        74
         2        37        38        45        67
         2        38        45        46        67
         2        45        46        67        75
         2        37        45        66        67
         2        45        66        67        74
         2        45        67        74        75
         2        38        39        46        68
         2        39        46        47        68
         2        46        47        68        76
         2        38        46        67        68
         2        46        67        68        75
         2        46        68        75        76
         2        39        40        47        69
         2        40        47        48        69
         2        47        48        69        77
         2        39        47        68        69
         2        47        68        69        76
         2        47        69        76        77
         2        40        41        48        70