 running on   12 total cores
 distrk:  each k-point on   12 cores,    1 groups
 distr:  one band on    6 cores,    2 groups
 using from now: INCAR     
 vasp.6.1.2 22Jul20 (build Mar 20 2021 11:25:07) complex                        
  
 POSCAR found type information on POSCAR LiP N O 
 POSCAR found :  4 types and      12 ions
 scaLAPACK will be used
 LDA part: xc-table for Pade appr. of Perdew
 generate k-points for:    8    7    7
 POSCAR, INCAR and KPOINTS ok, starting setup
 FFT: planning ...
 WAVECAR not read
 entering main loop
       N       E                     dE             d eps       ncg     rms          rms(c)
DAV:   1     0.424182040225E+03    0.42418E+03   -0.27875E+04 18568   0.148E+03
DAV:   2    -0.434872820083E+02   -0.46767E+03   -0.44855E+03 21608   0.381E+02
DAV:   3    -0.804966178182E+02   -0.37009E+02   -0.36837E+02 27208   0.993E+01
DAV:   4    -0.837404758648E+02   -0.32439E+01   -0.32310E+01 29336   0.238E+01
DAV:   5    -0.839429591823E+02   -0.20248E+00   -0.20247E+00 25816   0.467E+00    0.377E+01
RMM:   6    -0.751931897443E+02    0.87498E+01   -0.30266E+01 19819   0.237E+01    0.166E+01
RMM:   7    -0.755838119033E+02   -0.39062E+00   -0.53702E+00 27437   0.106E+01    0.807E+00
RMM:   8    -0.757832486406E+02   -0.19944E+00   -0.84693E-01 29996   0.495E+00    0.396E+00
RMM:   9    -0.758201105276E+02   -0.36862E-01   -0.31796E-01 30522   0.320E+00    0.111E+00
RMM:  10    -0.758494272641E+02   -0.29317E-01   -0.21335E-01 34583   0.197E+00    0.373E-01
RMM:  11    -0.758603893510E+02   -0.10962E-01   -0.91259E-02 35923   0.116E+00    0.301E-01
RMM:  12    -0.758648893111E+02   -0.45000E-02   -0.35436E-02 36155   0.714E-01    0.206E-01
RMM:  13    -0.758665916630E+02   -0.17024E-02   -0.13180E-02 35654   0.461E-01    0.768E-02
RMM:  14    -0.758673556247E+02   -0.76396E-03   -0.59180E-03 35898   0.316E-01    0.370E-02
RMM:  15    -0.758676344816E+02   -0.27886E-03   -0.24847E-03 35281   0.196E-01    0.309E-02
RMM:  16    -0.758677468306E+02   -0.11235E-03   -0.10931E-03 34504   0.125E-01    0.149E-02
RMM:  17    -0.758677863054E+02   -0.39475E-04   -0.39519E-04 34102   0.816E-02    0.530E-03
RMM:  18    -0.758678055051E+02   -0.19200E-04   -0.17419E-04 31324   0.546E-02    0.408E-03
RMM:  19    -0.758678102613E+02   -0.47562E-05   -0.44099E-05 24846   0.398E-02
   1 F= -.75867810E+02 E0= -.75867810E+02  d E =0.000000E+00  mag=    -0.0000
