 running on   24 total cores
 distrk:  each k-point on   24 cores,    1 groups
 distr:  one band on    6 cores,    4 groups
 using from now: INCAR     
 vasp.6.1.2 22Jul20 (build Mar 31 2021 18:09:49) complex                        
  
 POSCAR found type information on POSCAR LiP 
 POSCAR found :  2 types and       8 ions
 scaLAPACK will be used
 -----------------------------------------------------------------------------
|                                                                             |
|               ----> ADVICE to this user running VASP <----                  |
|                                                                             |
|     You have a (more or less) 'small supercell' and for smaller cells       |
|     it is recommended to use the reciprocal-space projection scheme!        |
|     The real-space optimization is not efficient for small cells and it     |
|     is also less accurate ...                                               |
|     Therefore, set LREAL=.FALSE. in the INCAR file.                         |
|                                                                             |
 -----------------------------------------------------------------------------

 LDA part: xc-table for Pade appr. of Perdew
 generate k-points for:    9    9    4
 POSCAR, INCAR and KPOINTS ok, starting setup
 FFT: planning ...
 WAVECAR not read
 entering main loop
       N       E                     dE             d eps       ncg     rms          rms(c)
DAV:   1     0.158785943837E+03    0.15879E+03   -0.11800E+04  9128   0.118E+03
DAV:   2     0.201757717116E+01   -0.15677E+03   -0.14794E+03  9944   0.300E+02
DAV:   3    -0.236447582072E+02   -0.25662E+02   -0.25426E+02 16480   0.701E+01
DAV:   4    -0.263562548946E+02   -0.27115E+01   -0.26915E+01 13528   0.309E+01
DAV:   5    -0.265564653052E+02   -0.20021E+00   -0.20020E+00 14560   0.659E+00    0.149E+01
RMM:   6    -0.270200217951E+02   -0.46356E+00   -0.16314E+00 11135   0.631E+00    0.755E+00
RMM:   7    -0.277244168022E+02   -0.70440E+00   -0.49748E-01 12623   0.427E+00    0.284E+00
RMM:   8    -0.277947080690E+02   -0.70291E-01   -0.38562E-01 14393   0.285E+00    0.118E+00
RMM:   9    -0.278035549592E+02   -0.88469E-02   -0.97204E-02 15186   0.169E+00    0.517E-01
RMM:  10    -0.278118693745E+02   -0.83144E-02   -0.43087E-02 15878   0.102E+00    0.266E-01
RMM:  11    -0.278140743204E+02   -0.22049E-02   -0.16075E-02 16225   0.592E-01    0.196E-01
RMM:  12    -0.278148624672E+02   -0.78815E-03   -0.61016E-03 15874   0.450E-01    0.519E-02
RMM:  13    -0.278154583456E+02   -0.59588E-03   -0.33973E-03 16295   0.276E-01    0.183E-02
WARNING in EDDRMM: call to ZHEGV failed, returncode =   6  3      6
RMM:  14    -0.278156759276E+02   -0.21758E-03   -0.17645E-03 15955   0.180E-01    0.222E-02
RMM:  15    -0.278157716857E+02   -0.95758E-04   -0.82338E-04 14315   0.121E-01    0.195E-02
RMM:  16    -0.278158216371E+02   -0.49951E-04   -0.43937E-04 14183   0.878E-02    0.268E-02
RMM:  17    -0.278158409299E+02   -0.19293E-04   -0.24675E-04 13804   0.729E-02    0.167E-02
RMM:  18    -0.278158575408E+02   -0.16611E-04   -0.15258E-04 13104   0.544E-02    0.151E-02
RMM:  19    -0.278158664497E+02   -0.89089E-05   -0.97891E-05 11832   0.447E-02
   1 F= -.27815866E+02 E0= -.27815866E+02  d E =0.000000E+00  mag=    -0.0001
