 running on   48 total cores
 distrk:  each k-point on   48 cores,    1 groups
 distr:  one band on    6 cores,    8 groups
 using from now: INCAR     
 vasp.6.1.2 22Jul20 (build Mar 31 2021 18:09:49) complex                        
  
 POSCAR found type information on POSCAR LiP 
 POSCAR found :  2 types and      64 ions
 scaLAPACK will be used
 LDA part: xc-table for Pade appr. of Perdew
 -----------------------------------------------------------------------------
|                                                                             |
|           W    W    AA    RRRRR   N    N  II  N    N   GGGG   !!!           |
|           W    W   A  A   R    R  NN   N  II  NN   N  G    G  !!!           |
|           W    W  A    A  R    R  N N  N  II  N N  N  G       !!!           |
|           W WW W  AAAAAA  RRRRR   N  N N  II  N  N N  G  GGG   !            |
|           WW  WW  A    A  R   R   N   NN  II  N   NN  G    G                |
|           W    W  A    A  R    R  N    N  II  N    N   GGGG   !!!           |
|                                                                             |
|     The determination of the symmetry of your systems shows a strong        |
|     dependence on the tolerance parameter SYMPREC. This is often the        |
|     result of "noise" in the structural parameters (lattice vectors         |
|     and/or ionic positions). Set NWRITE=3 for more details.                 |
|                                                                             |
 -----------------------------------------------------------------------------

 generate k-points for:    3    3    3
 POSCAR, INCAR and KPOINTS ok, starting setup
 FFT: planning ...
 WAVECAR not read
 entering main loop
       N       E                     dE             d eps       ncg     rms          rms(c)
DAV:   1     0.157798954694E+04    0.15780E+04   -0.12041E+05  8440   0.128E+03
DAV:   2    -0.123564110039E+03   -0.17016E+04   -0.15940E+04  9920   0.246E+02
DAV:   3    -0.307743084045E+03   -0.18418E+03   -0.18127E+03 10560   0.836E+01
DAV:   4    -0.321852025430E+03   -0.14109E+02   -0.14041E+02 13728   0.202E+01
DAV:   5    -0.324870326865E+03   -0.30183E+01   -0.30161E+01 14832   0.565E+00    0.423E+01
DAV:   6    -0.324711535784E+03    0.15879E+00   -0.11504E+01 10088   0.615E+00    0.243E+01
DAV:   7    -0.326857011990E+03   -0.21455E+01   -0.54657E+00 10056   0.412E+00    0.138E+01
DAV:   8    -0.327969200513E+03   -0.11122E+01   -0.19867E+00  9480   0.284E+00    0.285E+00
DAV:   9    -0.328039889300E+03   -0.70689E-01   -0.25708E-01 10960   0.108E+00    0.157E+00
DAV:  10    -0.328053933039E+03   -0.14044E-01   -0.63601E-02 10488   0.490E-01    0.612E-01
DAV:  11    -0.328060490833E+03   -0.65578E-02   -0.10004E-02 10032   0.249E-01    0.221E-01
DAV:  12    -0.328062835865E+03   -0.23450E-02   -0.27996E-03 10928   0.116E-01    0.117E-01
DAV:  13    -0.328063871783E+03   -0.10359E-02   -0.71583E-04 10432   0.564E-02    0.555E-02
DAV:  14    -0.328064360900E+03   -0.48912E-03   -0.40684E-04  9568   0.380E-02    0.326E-02
DAV:  15    -0.328064475980E+03   -0.11508E-03   -0.11359E-04  9536   0.205E-02    0.181E-02
DAV:  16    -0.328064506269E+03   -0.30289E-04   -0.27503E-05  7840   0.117E-02    0.862E-03
DAV:  17    -0.328064514561E+03   -0.82924E-05   -0.90404E-06  6728   0.719E-03
   1 F= -.32806451E+03 E0= -.32806451E+03  d E =0.000000E+00  mag=     0.0004
