 running on   12 total cores
 distrk:  each k-point on   12 cores,    1 groups
 distr:  one band on    6 cores,    2 groups
 using from now: INCAR     
 vasp.6.1.2 22Jul20 (build Mar 20 2021 11:25:07) complex                        
  
 POSCAR found type information on POSCAR LiO 
 POSCAR found :  2 types and       9 ions
 scaLAPACK will be used
 LDA part: xc-table for Pade appr. of Perdew
 generate k-points for:    8    7    7
 POSCAR, INCAR and KPOINTS ok, starting setup
 FFT: planning ...
 WAVECAR not read
 entering main loop
       N       E                     dE             d eps       ncg     rms          rms(c)
DAV:   1     0.362211967370E+03    0.36221E+03   -0.28062E+04 26792   0.147E+03
DAV:   2    -0.179110622180E+02   -0.38012E+03   -0.36654E+03 34926   0.350E+02
DAV:   3    -0.433193836322E+02   -0.25408E+02   -0.25102E+02 39700   0.910E+01
DAV:   4    -0.442271477385E+02   -0.90776E+00   -0.90370E+00 44400   0.127E+01
DAV:   5    -0.443001807564E+02   -0.73033E-01   -0.73027E-01 35848   0.175E+00    0.145E+01
RMM:   6    -0.445895320826E+02   -0.28935E+00   -0.29890E+00 30779   0.892E+00    0.101E+01
RMM:   7    -0.441823360925E+02    0.40720E+00   -0.10747E+00 29794   0.565E+00    0.561E+00
RMM:   8    -0.439637961707E+02    0.21854E+00   -0.47432E-01 30620   0.396E+00    0.355E+00
RMM:   9    -0.439380976385E+02    0.25699E-01   -0.17560E-01 31872   0.238E+00    0.258E+00
RMM:  10    -0.439151624562E+02    0.22935E-01   -0.62992E-02 32669   0.142E+00    0.107E+00
RMM:  11    -0.439124810409E+02    0.26814E-02   -0.14730E-02 35751   0.714E-01    0.655E-01
RMM:  12    -0.439115634364E+02    0.91760E-03   -0.60377E-03 36881   0.469E-01    0.319E-01
RMM:  13    -0.439114280582E+02    0.13538E-03   -0.29710E-03 38621   0.332E-01    0.966E-02
WARNING in EDDRMM: call to ZHEGV failed, returncode =   6  3     15
RMM:  14    -0.439117074260E+02   -0.27937E-03   -0.11249E-03 46122   0.172E-01    0.416E-02
WARNING in EDDRMM: call to ZHEGV failed, returncode =   6  3      2
RMM:  15    -0.439118239158E+02   -0.11649E-03   -0.51807E-04 45919   0.111E-01    0.221E-02
RMM:  16    -0.439118570123E+02   -0.33096E-04   -0.26037E-04 44729   0.736E-02    0.128E-02
RMM:  17    -0.439118707386E+02   -0.13726E-04   -0.11197E-04 36135   0.489E-02    0.853E-03
WARNING in EDDRMM: call to ZHEGV failed, returncode =   6  3      2
WARNING in EDDRMM: call to ZHEGV failed, returncode =   8  4     12
RMM:  18    -0.439118794871E+02   -0.87486E-05   -0.51676E-05 32977   0.411E-02
   1 F= -.43911879E+02 E0= -.43911879E+02  d E =0.000000E+00  mag=     0.0037
 -----------------------------------------------------------------------------
|                                                                             |
|           W    W    AA    RRRRR   N    N  II  N    N   GGGG   !!!           |
|           W    W   A  A   R    R  NN   N  II  NN   N  G    G  !!!           |
|           W    W  A    A  R    R  N N  N  II  N N  N  G       !!!           |
|           W WW W  AAAAAA  RRRRR   N  N N  II  N  N N  G  GGG   !            |
|           WW  WW  A    A  R   R   N   NN  II  N   NN  G    G                |
|           W    W  A    A  R    R  N    N  II  N    N   GGGG   !!!           |
|                                                                             |
|     Tetrahedron method does not include variations of the Fermi             |
|     occupations, so forces and stress will be inaccurate. We suggest        |
|     using a different smearing scheme ISMEAR = 1 or 2 for metals in         |
|     relaxations.                                                            |
|                                                                             |
 -----------------------------------------------------------------------------

