 running on   12 total cores
 distrk:  each k-point on   12 cores,    1 groups
 distr:  one band on    6 cores,    2 groups
 using from now: INCAR     
 vasp.6.1.2 22Jul20 (build Mar 20 2021 11:25:07) complex                        
  
 POSCAR found type information on POSCAR LiO 
 POSCAR found :  2 types and       3 ions
 scaLAPACK will be used
 -----------------------------------------------------------------------------
|                                                                             |
|               ----> ADVICE to this user running VASP <----                  |
|                                                                             |
|     You have a (more or less) 'small supercell' and for smaller cells       |
|     it is recommended to use the reciprocal-space projection scheme!        |
|     The real-space optimization is not efficient for small cells and it     |
|     is also less accurate ...                                               |
|     Therefore, set LREAL=.FALSE. in the INCAR file.                         |
|                                                                             |
 -----------------------------------------------------------------------------

 LDA part: xc-table for Pade appr. of Perdew
 generate k-points for:   12   12   12
 POSCAR, INCAR and KPOINTS ok, starting setup
 FFT: planning ...
 WAVECAR not read
 entering main loop
       N       E                     dE             d eps       ncg     rms          rms(c)
DAV:   1     0.445178154538E+02    0.44518E+02   -0.56428E+03 22888   0.103E+03
DAV:   2    -0.962725860595E+01   -0.54145E+02   -0.52198E+02 27604   0.227E+02
DAV:   3    -0.152756127059E+02   -0.56484E+01   -0.56044E+01 42952   0.536E+01
DAV:   4    -0.153268124526E+02   -0.51200E-01   -0.51187E-01 26316   0.653E+00
DAV:   5    -0.153271930518E+02   -0.38060E-03   -0.38059E-03 31884   0.447E-01    0.116E+01
RMM:   6    -0.142135898683E+02    0.11136E+01   -0.34905E+00 24889   0.124E+01    0.498E+00
RMM:   7    -0.143232686521E+02   -0.10968E+00   -0.11929E-01 28065   0.282E+00    0.209E+00
RMM:   8    -0.143283470429E+02   -0.50784E-02   -0.48235E-02 31555   0.216E+00    0.116E+00
RMM:   9    -0.143411464498E+02   -0.12799E-01   -0.30648E-02 31715   0.195E+00    0.247E-01
RMM:  10    -0.143421662939E+02   -0.10198E-02   -0.84561E-03 36769   0.695E-01    0.142E-01
RMM:  11    -0.143432089408E+02   -0.10426E-02   -0.58709E-03 34950   0.593E-01    0.185E-01
WARNING in EDDRMM: call to ZHEGV failed, returncode =   8  4      5
RMM:  12    -0.143429344047E+02    0.27454E-03   -0.14940E-03 35873   0.318E-01    0.813E-02
RMM:  13    -0.143429205434E+02    0.13861E-04   -0.75797E-04 36264   0.223E-01    0.202E-02
WARNING in EDDRMM: call to ZHEGV failed, returncode =   8  4      6
RMM:  14    -0.143429533525E+02   -0.32809E-04   -0.24276E-04 34738   0.113E-01    0.296E-02
RMM:  15    -0.143429652934E+02   -0.11941E-04   -0.92585E-05 31948   0.740E-02    0.277E-02
WARNING in EDDRMM: call to ZHEGV failed, returncode =   6  3      3
RMM:  16    -0.143429676071E+02   -0.23137E-05   -0.45937E-05 29123   0.533E-02
   1 F= -.14342968E+02 E0= -.14342968E+02  d E =0.000000E+00  mag=    -0.0000
