 running on    8 total cores
 distrk:  each k-point on    8 cores,    1 groups
 distr:  one band on    1 cores,    8 groups
 using from now: INCAR     
 vasp.6.1.2 22Jul20 (build Mar 20 2021 11:25:07) complex                        
  
 POSCAR found type information on POSCAR LiP 
 POSCAR found :  2 types and      40 ions
 scaLAPACK will be used
 -----------------------------------------------------------------------------
|                                                                             |
|           W    W    AA    RRRRR   N    N  II  N    N   GGGG   !!!           |
|           W    W   A  A   R    R  NN   N  II  NN   N  G    G  !!!           |
|           W    W  A    A  R    R  N N  N  II  N N  N  G       !!!           |
|           W WW W  AAAAAA  RRRRR   N  N N  II  N  N N  G  GGG   !            |
|           WW  WW  A    A  R   R   N   NN  II  N   NN  G    G                |
|           W    W  A    A  R    R  N    N  II  N    N   GGGG   !!!           |
|                                                                             |
|     The value NCORE = 6 specified in the INCAR file was overwritten,        |
|     because it was not compatible with the 8 processes available:           |
|     NCORE = 1                                                               |
|     was used instead, please check that this makes sense for your           |
|     machine.                                                                |
|                                                                             |
 -----------------------------------------------------------------------------

 -----------------------------------------------------------------------------
|                                                                             |
|           W    W    AA    RRRRR   N    N  II  N    N   GGGG   !!!           |
|           W    W   A  A   R    R  NN   N  II  NN   N  G    G  !!!           |
|           W    W  A    A  R    R  N N  N  II  N N  N  G       !!!           |
|           W WW W  AAAAAA  RRRRR   N  N N  II  N  N N  G  GGG   !            |
|           WW  WW  A    A  R   R   N   NN  II  N   NN  G    G                |
|           W    W  A    A  R    R  N    N  II  N    N   GGGG   !!!           |
|                                                                             |
|     For optimal performance we recommend to set                             |
|       NCORE = 4 - approx SQRT(number of cores).                             |
|     NCORE specifies how many cores store one orbital (NPAR=cpu/NCORE).      |
|     This setting can greatly improve the performance of VASP for DFT.       |
|     The default, NCORE=1 might be grossly inefficient on modern             |
|     multi-core architectures or massively parallel machines. Do your        |
|     own testing!!!!                                                         |
|     Unfortunately you need to use the default for GW and RPA                |
|     calculations (for HF NCORE is supported but not extensively tested      |
|     yet).                                                                   |
|                                                                             |
 -----------------------------------------------------------------------------

 LDA part: xc-table for Pade appr. of Perdew
 generate k-points for:    4    3    3
 POSCAR, INCAR and KPOINTS ok, starting setup
 FFT: planning ...
 WAVECAR not read
 entering main loop
       N       E                     dE             d eps       ncg     rms          rms(c)
DAV:   1     0.102286982429E+04    0.10229E+04   -0.67535E+04  6144   0.125E+03
DAV:   2    -0.321944594529E+02   -0.10551E+04   -0.97009E+03  7280   0.271E+02
DAV:   3    -0.165873770634E+03   -0.13368E+03   -0.13186E+03  8288   0.919E+01
DAV:   4    -0.181382197845E+03   -0.15508E+02   -0.15392E+02 10872   0.276E+01
DAV:   5    -0.184581215238E+03   -0.31990E+01   -0.31971E+01 10240   0.813E+00    0.319E+01
DAV:   6    -0.185156764579E+03   -0.57555E+00   -0.87538E+00  8032   0.668E+00    0.174E+01
DAV:   7    -0.187297453841E+03   -0.21407E+01   -0.28259E+00  7968   0.396E+00    0.103E+01
DAV:   8    -0.188219240103E+03   -0.92179E+00   -0.13110E+00  7488   0.284E+00    0.242E+00
DAV:   9    -0.188318031525E+03   -0.98791E-01   -0.19698E-01  8528   0.127E+00    0.990E-01
DAV:  10    -0.188336401230E+03   -0.18370E-01   -0.35716E-02  8376   0.488E-01    0.369E-01
DAV:  11    -0.188341304205E+03   -0.49030E-02   -0.57310E-03  7408   0.226E-01    0.201E-01
DAV:  12    -0.188343882512E+03   -0.25783E-02   -0.24271E-03  8256   0.129E-01    0.103E-01
DAV:  13    -0.188345010578E+03   -0.11281E-02   -0.86150E-04  7520   0.726E-02    0.413E-02
DAV:  14    -0.188345335198E+03   -0.32462E-03   -0.29384E-04  7288   0.409E-02    0.230E-02
DAV:  15    -0.188345425557E+03   -0.90359E-04   -0.95029E-05  6664   0.235E-02    0.113E-02
DAV:  16    -0.188345448161E+03   -0.22604E-04   -0.23326E-05  6144   0.128E-02    0.499E-03
DAV:  17    -0.188345453073E+03   -0.49120E-05   -0.54648E-06  5024   0.715E-03
   1 F= -.18834545E+03 E0= -.18834545E+03  d E =0.000000E+00  mag=    -0.0005
