 vasp.5.4.4.18Apr17-6-g9f103f2a35 (build Aug 12 2020 11:57:02) complex          
  
 executed on             LinuxIFC date 2021.01.31  03:17:50
 running on   24 total cores
 distrk:  each k-point on   24 cores,    1 groups
 distr:  one band on NCORES_PER_BAND=   6 cores,    4 groups


--------------------------------------------------------------------------------------------------------


 INCAR:
 POTCAR:    PAW_PBE P 06Sep2000                   
 POTCAR:    PAW_PBE O 08Apr2002                   
 POTCAR:    PAW_PBE P 06Sep2000                   
   VRHFIN =P : s2p3                                                             
   LEXCH  = PE                                                                  
   EATOM  =   176.0430 eV,   12.9388 Ry                                         
                                                                                
   TITEL  = PAW_PBE P 06Sep2000                                                 
   LULTRA =        F    use ultrasoft PP ?                                      
   IUNSCR =        1    unscreen: 0-lin 1-nonlin 2-no                           
   RPACOR =    1.500    partial core radius                                     
   POMASS =   30.974; ZVAL   =    5.000    mass and valenz                      
   RCORE  =    1.900    outmost cutoff radius                                   
   RWIGS  =    2.330; RWIGS  =    1.233    wigner-seitz radius (au A)           
   ENMAX  =  255.040; ENMIN  =  191.280 eV                                      
   ICORE  =        2    local potential                                         
   LCOR   =        T    correct aug charges                                     
   LPAW   =        T    paw PP                                                  
   EAUG   =  342.924                                                            
   DEXC   =    0.000                                                            
   RMAX   =    1.935    core radius for proj-oper                               
   RAUG   =    1.300    factor for augmentation sphere                          
   RDEP   =    1.931    radius for radial grids                                 
   RDEPT  =    1.794    core radius for aug-charge                              
                                                                                
   Atomic configuration                                                         
    6 entries                                                                   
     n  l   j            E        occ.                                          
     1  0  0.50     -2084.0982   2.0000                                         
     2  0  0.50      -173.9859   2.0000                                         
     2  1  1.50      -124.4865   6.0000                                         
     3  0  0.50       -13.9692   2.0000                                         
     3  1  0.50        -5.5067   3.0000                                         
     3  2  1.50        -5.4423   0.0000                                         
   Description                                                                  
     l       E           TYP  RCUT    TYP  RCUT                                 
     0    -13.9691527     23  1.900                                             
     0    -11.7794650     23  1.900                                             
     1     -5.5066937     23  1.900                                             
     1     -0.2556953     23  1.900                                             
     2     -5.4423304     23  1.900                                             
  local pseudopotential read in
  partial core-charges read in
  partial kinetic energy density read in
  atomic valenz-charges read in
  non local Contribution for L=           0  read in
    real space projection operators read in
  non local Contribution for L=           0  read in
    real space projection operators read in
  non local Contribution for L=           1  read in
    real space projection operators read in
  non local Contribution for L=           1  read in
    real space projection operators read in
    PAW grid and wavefunctions read in
 
   number of l-projection  operators is LMAX  =           4
   number of lm-projection operators is LMMAX =           8
 
 POTCAR:    PAW_PBE O 08Apr2002                   
   VRHFIN =O: s2p4                                                              
   LEXCH  = PE                                                                  
   EATOM  =   432.3788 eV,   31.7789 Ry                                         
                                                                                
   TITEL  = PAW_PBE O 08Apr2002                                                 
   LULTRA =        F    use ultrasoft PP ?                                      
   IUNSCR =        1    unscreen: 0-lin 1-nonlin 2-no                           
   RPACOR =    1.200    partial core radius                                     
   POMASS =   16.000; ZVAL   =    6.000    mass and valenz                      
   RCORE  =    1.520    outmost cutoff radius                                   
   RWIGS  =    1.550; RWIGS  =    0.820    wigner-seitz radius (au A)           
   ENMAX  =  400.000; ENMIN  =  300.000 eV                                      
   ICORE  =        2    local potential                                         
   LCOR   =        T    correct aug charges                                     
   LPAW   =        T    paw PP                                                  
   EAUG   =  605.392                                                            
   DEXC   =    0.000                                                            
   RMAX   =    1.553    core radius for proj-oper                               
   RAUG   =    1.300    factor for augmentation sphere                          
   RDEP   =    1.550    radius for radial grids                                 
   RDEPT  =    1.329    core radius for aug-charge                              
                                                                                
   Atomic configuration                                                         
    4 entries                                                                   
     n  l   j            E        occ.                                          
     1  0  0.50      -514.6923   2.0000                                         
     2  0  0.50       -23.9615   2.0000                                         
     2  1  0.50        -9.0305   4.0000                                         
     3  2  1.50        -9.5241   0.0000                                         
   Description                                                                  
     l       E           TYP  RCUT    TYP  RCUT                                 
     0    -23.9615318     23  1.200                                             
     0     -9.5240782     23  1.200                                             
     1     -9.0304911     23  1.520                                             
     1      8.1634956     23  1.520                                             
     2     -9.5240782      7  1.500                                             
  local pseudopotential read in
  partial core-charges read in
  partial kinetic energy density read in
  kinetic energy density of atom read in
  atomic valenz-charges read in
  non local Contribution for L=           0  read in
    real space projection operators read in
  non local Contribution for L=           0  read in
    real space projection operators read in
  non local Contribution for L=           1  read in
    real space projection operators read in
  non local Contribution for L=           1  read in
    real space projection operators read in
    PAW grid and wavefunctions read in
 
   number of l-projection  operators is LMAX  =           4
   number of lm-projection operators is LMMAX =           8
 
 Optimization of the real space projectors (new method)

 maximal supplied QI-value         = 19.84
 optimisation between [QCUT,QGAM] = [ 11.51, 23.22] = [ 37.09,150.92] Ry 
 Optimized for a Real-space Cutoff    1.21 Angstroem

   l    n(q)    QCUT    max X(q) W(low)/X(q) W(high)/X(q)  e(spline) 
   0      8    11.508   160.924    0.96E-04    0.17E-03    0.52E-07
   0      8    11.508   130.086    0.95E-04    0.17E-03    0.51E-07
   1      8    11.508    74.434    0.16E-03    0.74E-04    0.91E-07
   1      8    11.508    49.120    0.16E-03    0.71E-04    0.89E-07
 Optimization of the real space projectors (new method)

 maximal supplied QI-value         = 24.76
 optimisation between [QCUT,QGAM] = [ 11.64, 23.27] = [ 37.91,151.63] Ry 
 Optimized for a Real-space Cutoff    1.14 Angstroem

   l    n(q)    QCUT    max X(q) W(low)/X(q) W(high)/X(q)  e(spline) 
   0      8    11.635    20.381    0.10E-03    0.33E-03    0.24E-06
   0      8    11.635    15.268    0.11E-03    0.35E-03    0.26E-06
   1      7    11.635     5.964    0.24E-03    0.31E-03    0.30E-06
   1      7    11.635     5.382    0.22E-03    0.25E-03    0.26E-06
  PAW_PBE P 06Sep2000                   :
 energy of atom  1       EATOM= -176.0430
 kinetic energy error for atom=    0.0011 (will be added to EATOM!!)
  PAW_PBE O 08Apr2002                   :
 energy of atom  2       EATOM= -432.3788
 kinetic energy error for atom=    0.0208 (will be added to EATOM!!)
 
 
 POSCAR: P4 O10                                  
  positions in direct lattice
  No initial velocities read in
 exchange correlation table for  LEXCH =        8
   RHO(1)=    0.500       N(1)  =     2000
   RHO(2)=  100.500       N(2)  =     4000
 


--------------------------------------------------------------------------------------------------------


 ion  position               nearest neighbor table
   1  0.601  0.551  0.245-   5 1.46  14 1.59  10 1.61  11 1.61   2 2.82   4 2.95   4 2.95
   2  0.603  0.245  0.551-   6 1.46  13 1.59  10 1.61  12 1.61   1 2.82   3 2.95   3 2.95
   3  0.005  0.647  0.649-   7 1.46  12 1.59   9 1.61  13 1.61   4 2.82   2 2.95   2 2.95
   4  0.699  0.649  0.647-   8 1.46  11 1.59   9 1.61  14 1.61   3 2.82   1 2.95   1 2.95
   5  0.273  0.844  0.394-   1 1.46
   6  0.490  0.394  0.844-   2 1.46
   7  0.856  0.760  0.977-   3 1.46
   8  0.406  0.977  0.760-   4 1.46
   9  0.991  0.509  0.509-   3 1.61   4 1.61
  10  0.741  0.259  0.259-   2 1.61   1 1.61
  11  0.788  0.481  0.371-   4 1.59   1 1.61
  12  0.360  0.371  0.481-   3 1.59   2 1.61
  13  0.879  0.890  0.462-   2 1.59   3 1.61
  14  0.769  0.462  0.890-   1 1.59   4 1.61
 
  LATTYP: Found a face centered orthorhombic cell.
 ALAT       =     5.5496840000
 B/A-ratio  =     1.4715998244
 C/A-ratio  =     2.9889215314
  
  Lattice vectors:
  
 A1 = (   0.0000000000,   4.0834570000,   8.2937850000)
 A2 = (   2.7748420000,   0.0000000000,   8.2937850000)
 A3 = (   2.7748420000,   4.0834570000,   0.0000000000)


Analysis of symmetry for initial positions (statically):
=====================================================================
 Subroutine PRICEL returns:
 Original cell was already a primitive cell.
 

 Routine SETGRP: Setting up the symmetry group for a 
 face centered orthorhombic supercell.


 Subroutine GETGRP returns: Found  4 space group operations
 (whereof  2 operations were pure point group operations)
 out of a pool of  8 trial point group operations.


The static configuration has the point symmetry C_2 .
 The point group associated with its full space group is C_2v.


Analysis of symmetry for dynamics (positions and initial velocities):
=====================================================================
 Subroutine PRICEL returns:
 Original cell was already a primitive cell.
 

 Routine SETGRP: Setting up the symmetry group for a 
 face centered orthorhombic supercell.


 Subroutine GETGRP returns: Found  4 space group operations
 (whereof  2 operations were pure point group operations)
 out of a pool of  8 trial point group operations.


The dynamic configuration has the point symmetry C_2 .
 The point group associated with its full space group is C_2v.


Analysis of structural, dynamic, and magnetic symmetry:
=====================================================================
 Subroutine PRICEL returns:
 Original cell was already a primitive cell.
 

 Routine SETGRP: Setting up the symmetry group for a 
 face centered orthorhombic supercell.


 Subroutine GETGRP returns: Found  4 space group operations
 (whereof  2 operations were pure point group operations)
 out of a pool of  8 trial point group operations.


The magnetic configuration has the point symmetry C_2 .
 The point group associated with its full space group is C_2v.


 Subroutine INISYM returns: Found  4 space group operations
 (whereof  2 operations are pure point group operations),
 and found     1 'primitive' translations

 
 
 KPOINTS: Fully automatic kpoint scheme           

Automatic generation of k-mesh.
 generate k-points for:    7    7    7
Space group operators:
 irot       det(A)        alpha          n_x          n_y          n_z        tau_x        tau_y        tau_z
    1     1.000000     0.000001     1.000000     0.000000     0.000000     0.000000     0.000000     0.000000
    2     1.000000   180.000000     1.000000     0.000000     0.000000     0.000000     0.000000     0.000000
    3    -1.000000   180.000000     0.000000     0.000000     1.000000     0.250000     0.250000     0.249999
    4    -1.000000   180.000000     0.000000     1.000000     0.000000     0.250000     0.249999     0.250000
 
 Subroutine IBZKPT returns following result:
 ===========================================
 
 Found     64 irreducible k-points:
 
 Following reciprocal coordinates:
            Coordinates               Weight
  0.000000  0.000000  0.000000      1.000000
  0.142857  0.000000 -0.000000      8.000000
  0.285714 -0.000000  0.000000      8.000000
  0.428571  0.000000  0.000000      8.000000
  0.142857  0.142857  0.000000      2.000000
  0.285714  0.142857  0.000000      8.000000
  0.428571  0.142857  0.000000      8.000000
 -0.428571  0.142857 -0.000000      8.000000
 -0.285714  0.142857  0.000000      8.000000
 -0.142857  0.142857 -0.000000      4.000000
  0.285714  0.285714  0.000000      2.000000
  0.428571  0.285714  0.000000      8.000000
 -0.428571  0.285714 -0.000000      8.000000
 -0.285714  0.285714  0.000000      4.000000
  0.428571  0.428571  0.000000      2.000000
 -0.428571  0.428571  0.000000      4.000000
  0.142857  0.000000  0.142857      2.000000
  0.285714  0.000000  0.142857      8.000000
  0.428571  0.000000  0.142857      8.000000
 -0.428571 -0.000000  0.142857      8.000000
 -0.285714 -0.000000  0.142857      8.000000
 -0.142857 -0.000000  0.142857      4.000000
  0.000000  0.142857  0.142857      2.000000
  0.285714  0.142857  0.142857      4.000000
  0.428571  0.142857  0.142857      8.000000
 -0.428571  0.142857  0.142857      8.000000
 -0.285714  0.142857  0.142857      8.000000
 -0.142857  0.142857  0.142857      8.000000
  0.428571  0.285714  0.142857      4.000000
 -0.428571  0.285714  0.142857      8.000000
 -0.285714  0.285714  0.142857      8.000000
 -0.142857  0.285714  0.142857      4.000000
  0.285714  0.428571  0.142857      4.000000
 -0.428571  0.428571  0.142857      4.000000
 -0.285714  0.428571  0.142857      4.000000
  0.285714 -0.428571  0.142857      8.000000
  0.428571 -0.428571  0.142857      4.000000
  0.285714 -0.285714  0.142857      8.000000
  0.428571 -0.285714  0.142857      4.000000
  0.285714 -0.142857  0.142857      4.000000
  0.285714  0.000000  0.285714      2.000000
  0.428571  0.000000  0.285714      8.000000
 -0.428571 -0.000000  0.285714      8.000000
 -0.285714  0.000000  0.285714      4.000000
  0.428571  0.142857  0.285714      4.000000
 -0.428571  0.142857  0.285714      8.000000
 -0.285714  0.142857  0.285714      8.000000
 -0.142857  0.142857  0.285714      4.000000
  0.000000  0.285714  0.285714      2.000000
 -0.428571  0.285714  0.285714      4.000000
 -0.285714  0.285714  0.285714      8.000000
 -0.142857  0.285714  0.285714      8.000000
 -0.285714  0.428571  0.285714      4.000000
 -0.142857  0.428571  0.285714      4.000000
  0.428571 -0.285714  0.285714      4.000000
  0.428571 -0.142857  0.285714      4.000000
  0.428571  0.000000  0.428571      2.000000
 -0.428571 -0.000000  0.428571      4.000000
 -0.428571  0.142857  0.428571      4.000000
 -0.285714  0.142857  0.428571      4.000000
 -0.285714  0.285714  0.428571      4.000000
 -0.142857  0.285714  0.428571      4.000000
  0.000000  0.428571  0.428571      2.000000
 -0.142857  0.428571  0.428571      4.000000
 
 Following cartesian coordinates:
            Coordinates               Weight
  0.000000  0.000000  0.000000      1.000000
 -0.025741  0.017492  0.008612      8.000000
 -0.051483  0.034984  0.017225      8.000000
 -0.077224  0.052477  0.025837      8.000000
  0.000000  0.000000  0.017225      2.000000
 -0.025741  0.017492  0.025837      8.000000
 -0.051483  0.034984  0.034449      8.000000
  0.102966 -0.069969 -0.017225      8.000000
  0.077224 -0.052477 -0.008612      8.000000
  0.051483 -0.034984 -0.000000      4.000000
  0.000000  0.000000  0.034449      2.000000
 -0.025741  0.017492  0.043062      8.000000
  0.128707 -0.087461 -0.008612      8.000000
  0.102966 -0.069969  0.000000      4.000000
  0.000000  0.000000  0.051674      2.000000
  0.154449 -0.104953  0.000000      4.000000
  0.000000  0.034984  0.000000      2.000000
 -0.025741  0.052477  0.008612      8.000000
 -0.051483  0.069969  0.017225      8.000000
  0.102966 -0.034984 -0.034449      8.000000
  0.077224 -0.017492 -0.025837      8.000000
  0.051483 -0.000000 -0.017225      4.000000
  0.051483  0.000000  0.000000      2.000000
  0.000000  0.034984  0.017225      4.000000
 -0.025741  0.052477  0.025837      8.000000
  0.128707 -0.052477 -0.025837      8.000000
  0.102966 -0.034984 -0.017225      8.000000
  0.077224 -0.017492 -0.008612      8.000000
  0.000000  0.034984  0.034449      4.000000
  0.154449 -0.069969 -0.017225      8.000000
  0.128707 -0.052477 -0.008612      8.000000
  0.102966 -0.034984 -0.000000      4.000000
  0.051483 -0.000000  0.034449      4.000000
  0.180190 -0.087461 -0.008612      4.000000
  0.154449 -0.069969  0.000000      4.000000
 -0.102966  0.104953 -0.017225      8.000000
 -0.128707  0.122445 -0.008612      4.000000
 -0.077224  0.087461 -0.008612      8.000000
 -0.102966  0.104953  0.000000      4.000000
 -0.051483  0.069969 -0.000000      4.000000
  0.000000  0.069969  0.000000      2.000000
 -0.025741  0.087461  0.008612      8.000000
  0.128707 -0.017492 -0.043062      8.000000
  0.102966  0.000000 -0.034449      4.000000
  0.000000  0.069969  0.017225      4.000000
  0.154449 -0.034984 -0.034449      8.000000
  0.128707 -0.017492 -0.025837      8.000000
  0.102966 -0.000000 -0.017225      4.000000
  0.102966  0.000000  0.000000      2.000000
  0.180190 -0.052477 -0.025837      4.000000
  0.154449 -0.034984 -0.017225      8.000000
  0.128707 -0.017492 -0.008612      8.000000
  0.180190 -0.052477 -0.008612      4.000000
  0.154449 -0.034984  0.000000      4.000000
 -0.077224  0.122445 -0.008612      4.000000
 -0.051483  0.104953  0.000000      4.000000
  0.000000  0.104953  0.000000      2.000000
  0.154449 -0.000000 -0.051674      4.000000
  0.180190 -0.017492 -0.043062      4.000000
  0.154449  0.000000 -0.034449      4.000000
  0.180190 -0.017492 -0.025837      4.000000
  0.154449 -0.000000 -0.017225      4.000000
  0.154449  0.000000  0.000000      2.000000
  0.180190 -0.017492 -0.008612      4.000000
 
 TETIRR: Found    324 inequivalent tetrahedra from     2058


--------------------------------------------------------------------------------------------------------




 Dimension of arrays:
   k-points           NKPTS =     64   k-points in BZ     NKDIM =     64   number of bands    NBANDS=     48
   number of dos      NEDOS =    301   number of ions     NIONS =     14
   non local maximal  LDIM  =      4   non local SUM 2l+1 LMDIM =      8
   total plane-waves  NPLWV = 196000
   max r-space proj   IRMAX =   7803   max aug-charges    IRDMAX=  31931
   dimension x,y,z NGX =    70 NGY =   70 NGZ =   40
   dimension x,y,z NGXF=   140 NGYF=  140 NGZF=   80
   support grid    NGXF=   140 NGYF=  140 NGZF=   80
   ions per type =               4  10
   NGX,Y,Z   is equivalent  to a cutoff of  12.59, 13.31, 13.47 a.u.
   NGXF,Y,Z  is equivalent  to a cutoff of  25.18, 26.61, 26.94 a.u.

 SYSTEM =  unknown system                          
 POSCAR =  P4 O10                                  

 Startparameter for this run:
   NWRITE =      2    write-flag & timer
   PREC   = accura    normal or accurate (medium, high low for compatibility)
   ISTART =      0    job   : 0-new  1-cont  2-samecut
   ICHARG =      2    charge: 1-file 2-atom 10-const
   ISPIN  =      2    spin polarized calculation?
   LNONCOLLINEAR =      F non collinear calculations
   LSORBIT =      F    spin-orbit coupling
   INIWAV =      1    electr: 0-lowe 1-rand  2-diag
   LASPH  =      T    aspherical Exc in radial PAW
   METAGGA=      F    non-selfconsistent MetaGGA calc.

 Electronic Relaxation 1
   ENCUT  =  520.0 eV  38.22 Ry    6.18 a.u.  17.19 16.26  9.18*2*pi/ulx,y,z
   ENINI  =  520.0     initial cutoff
   ENAUG  =  605.4 eV  augmentation charge cutoff
   NELM   =    100;   NELMIN=  2; NELMDL= -5     # of ELM steps 
   EDIFF  = 0.1E-04   stopping-criterion for ELM
   LREAL  =      T    real-space projection
   NLSPLINE    = F    spline interpolate recip. space projectors
   LCOMPAT=      F    compatible to vasp.4.4
   GGA_COMPAT  = T    GGA compatible to vasp.4.4-vasp.4.6
   LMAXPAW     = -100 max onsite density
   LMAXMIX     =    2 max onsite mixed and CHGCAR
   VOSKOWN=      0    Vosko Wilk Nusair interpolation
   ROPT   =   -0.00025  -0.00025
 Ionic relaxation
   EDIFFG = 0.1E-03   stopping-criterion for IOM
   NSW    =     99    number of steps for IOM
   NBLOCK =      1;   KBLOCK =     99    inner block; outer block 
   IBRION =      2    ionic relax: 0-MD 1-quasi-New 2-CG
   NFREE  =      1    steps in history (QN), initial steepest desc. (CG)
   ISIF   =      3    stress and relaxation
   IWAVPR =     11    prediction:  0-non 1-charg 2-wave 3-comb
   ISYM   =      2    0-nonsym 1-usesym 2-fastsym
   LCORR  =      T    Harris-Foulkes like correction to forces

   POTIM  = 0.5000    time-step for ionic-motion
   TEIN   =    0.0    initial temperature
   TEBEG  =    0.0;   TEEND  =   0.0 temperature during run
   SMASS  =  -3.00    Nose mass-parameter (am)
   estimated Nose-frequenzy (Omega)   =  0.10E-29 period in steps =****** mass=  -0.195E-26a.u.
   SCALEE = 1.0000    scale energy and forces
   NPACO  =    256;   APACO  = 16.0  distance and # of slots for P.C.
   PSTRESS=    0.0 pullay stress

  Mass of Ions in am
   POMASS =  30.97 16.00
  Ionic Valenz
   ZVAL   =   5.00  6.00
  Atomic Wigner-Seitz radii
   RWIGS  =  -1.00 -1.00
  virtual crystal weights 
   VCA    =   1.00  1.00
   NELECT =      80.0000    total number of electrons
   NUPDOWN=      -1.0000    fix difference up-down

 DOS related values:
   EMIN   =  10.00;   EMAX   =-10.00  energy-range for DOS
   EFERMI =   0.00
   ISMEAR =    -5;   SIGMA  =   0.05  broadening in eV -4-tet -1-fermi 0-gaus

 Electronic relaxation 2 (details)
   IALGO  =     68    algorithm
   LDIAG  =      T    sub-space diagonalisation (order eigenvalues)
   LSUBROT=      F    optimize rotation matrix (better conditioning)
   TURBO    =      0    0=normal 1=particle mesh
   IRESTART =      0    0=no restart 2=restart with 2 vectors
   NREBOOT  =      0    no. of reboots
   NMIN     =      0    reboot dimension
   EREF     =   0.00    reference energy to select bands
   IMIX   =      4    mixing-type and parameters
     AMIX     =   0.40;   BMIX     =  1.00
     AMIX_MAG =   1.60;   BMIX_MAG =  1.00
     AMIN     =   0.10
     WC   =   100.;   INIMIX=   1;  MIXPRE=   1;  MAXMIX= -45

 Intra band minimization:
   WEIMIN = 0.0010     energy-eigenvalue tresh-hold
   EBREAK =  0.52E-07  absolut break condition
   DEPER  =   0.30     relativ break condition  

   TIME   =   0.40     timestep for ELM

  volume/ion in A,a.u.               =      13.43        90.60
  Fermi-wavevector in a.u.,A,eV,Ry     =   1.231464  2.327130 20.633294  1.516504
  Thomas-Fermi vector in A             =   2.366273
 
 Write flags
   LWAVE        =      F    write WAVECAR
   LDOWNSAMPLE  =      F    k-point downsampling of WAVECAR
   LCHARG       =      F    write CHGCAR
   LVTOT        =      F    write LOCPOT, total local potential
   LVHAR        =      F    write LOCPOT, Hartree potential only
   LELF         =      F    write electronic localiz. function (ELF)
   LORBIT       =     11    0 simple, 1 ext, 2 COOP (PROOUT), +10 PAW based schemes


 Dipole corrections
   LMONO  =      F    monopole corrections only (constant potential shift)
   LDIPOL =      F    correct potential (dipole corrections)
   IDIPOL =      0    1-x, 2-y, 3-z, 4-all directions 
   EPSILON=  1.0000000 bulk dielectric constant

 Exchange correlation treatment:
   GGA     =    --    GGA type
   LEXCH   =     8    internal setting for exchange type
   VOSKOWN=      0    Vosko Wilk Nusair interpolation
   LHFCALC =     F    Hartree Fock is set to
   LHFONE  =     F    Hartree Fock one center treatment
   AEXX    =    0.0000 exact exchange contribution

 Linear response parameters
   LEPSILON=     F    determine dielectric tensor
   LRPA    =     F    only Hartree local field effects (RPA)
   LNABLA  =     F    use nabla operator in PAW spheres
   LVEL    =     F    velocity operator in full k-point grid
   LINTERFAST=   F  fast interpolation
   KINTER  =     0    interpolate to denser k-point grid
   CSHIFT  =0.1000    complex shift for real part using Kramers Kronig
   OMEGAMAX=  -1.0    maximum frequency
   DEG_THRESHOLD= 0.2000000E-02 threshold for treating states as degnerate
   RTIME   =   -0.100 relaxation time in fs
  (WPLASMAI=    0.000 imaginary part of plasma frequency in eV, 0.658/RTIME)
   DFIELD  = 0.0000000 0.0000000 0.0000000 field for delta impulse in time
 
 Orbital magnetization related:
   ORBITALMAG=     F  switch on orbital magnetization
   LCHIMAG   =     F  perturbation theory with respect to B field
   DQ        =  0.001000  dq finite difference perturbation B field
   LLRAUG    =     F  two centre corrections for induced B field



--------------------------------------------------------------------------------------------------------


 conjugate gradient relaxation of ions
 charge density and potential will be updated during run
 spin polarized calculation
 RMM-DIIS sequential band-by-band and
  variant of blocked Davidson during initial phase
 perform sub-space diagonalisation
    before iterative eigenvector-optimisation
 modified Broyden-mixing scheme, WC =      100.0
 initial mixing is a Kerker type mixing with AMIX =  0.4000 and BMIX =      1.0000
 Hartree-type preconditioning will be used
 using additional bands            8
 real space projection scheme for non local part
 use partial core corrections
 calculate Harris-corrections to forces 
   (improved forces if not selfconsistent)
 use gradient corrections 
 use of overlap-Matrix (Vanderbilt PP)
 Fermi weights with tetrahedron method with Bloechl corrections


--------------------------------------------------------------------------------------------------------


  energy-cutoff  :      520.00
  volume of cell :      187.95
      direct lattice vectors                 reciprocal lattice vectors
     0.000000000  4.083457000  8.293785000    -0.180190440  0.122445271  0.060286106
     2.774842000  0.000000000  8.293785000     0.180190440 -0.122445271  0.060286106
     2.774842000  4.083457000  0.000000000     0.180190440  0.122445271 -0.060286106

  length of vectors
     9.244538425  8.745662797  4.937040530     0.226043920  0.226043920  0.226043920


 
 k-points in units of 2pi/SCALE and weight: Fully automatic kpoint scheme           
   0.00000000  0.00000000  0.00000000       0.003
  -0.02574149  0.01749218  0.00861230       0.023
  -0.05148298  0.03498436  0.01722460       0.023
  -0.07722447  0.05247654  0.02583690       0.023
   0.00000000  0.00000000  0.01722460       0.006
  -0.02574149  0.01749218  0.02583690       0.023
  -0.05148298  0.03498436  0.03444920       0.023
   0.10296597 -0.06996873 -0.01722460       0.023
   0.07722447 -0.05247654 -0.00861230       0.023
   0.05148298 -0.03498436 -0.00000000       0.012
   0.00000000  0.00000000  0.03444920       0.006
  -0.02574149  0.01749218  0.04306150       0.023
   0.12870746 -0.08746091 -0.00861230       0.023
   0.10296597 -0.06996873  0.00000000       0.012
   0.00000000  0.00000000  0.05167380       0.006
   0.15444895 -0.10495309  0.00000000       0.012
   0.00000000  0.03498436  0.00000000       0.006
  -0.02574149  0.05247654  0.00861230       0.023
  -0.05148298  0.06996873  0.01722460       0.023
   0.10296597 -0.03498436 -0.03444920       0.023
   0.07722447 -0.01749218 -0.02583690       0.023
   0.05148298 -0.00000000 -0.01722460       0.012
   0.05148298  0.00000000  0.00000000       0.006
   0.00000000  0.03498436  0.01722460       0.012
  -0.02574149  0.05247654  0.02583690       0.023
   0.12870746 -0.05247654 -0.02583690       0.023
   0.10296597 -0.03498436 -0.01722460       0.023
   0.07722447 -0.01749218 -0.00861230       0.023
   0.00000000  0.03498436  0.03444920       0.012
   0.15444895 -0.06996873 -0.01722460       0.023
   0.12870746 -0.05247654 -0.00861230       0.023
   0.10296597 -0.03498436 -0.00000000       0.012
   0.05148298 -0.00000000  0.03444920       0.012
   0.18019044 -0.08746091 -0.00861230       0.012
   0.15444895 -0.06996873  0.00000000       0.012
  -0.10296597  0.10495309 -0.01722460       0.023
  -0.12870746  0.12244527 -0.00861230       0.012
  -0.07722447  0.08746091 -0.00861230       0.023
  -0.10296597  0.10495309  0.00000000       0.012
  -0.05148298  0.06996873 -0.00000000       0.012
   0.00000000  0.06996873  0.00000000       0.006
  -0.02574149  0.08746091  0.00861230       0.023
   0.12870746 -0.01749218 -0.04306150       0.023
   0.10296597  0.00000000 -0.03444920       0.012
   0.00000000  0.06996873  0.01722460       0.012
   0.15444895 -0.03498436 -0.03444920       0.023
   0.12870746 -0.01749218 -0.02583690       0.023
   0.10296597 -0.00000000 -0.01722460       0.012
   0.10296597  0.00000000  0.00000000       0.006
   0.18019044 -0.05247654 -0.02583690       0.012
   0.15444895 -0.03498436 -0.01722460       0.023
   0.12870746 -0.01749218 -0.00861230       0.023
   0.18019044 -0.05247654 -0.00861230       0.012
   0.15444895 -0.03498436  0.00000000       0.012
  -0.07722447  0.12244527 -0.00861230       0.012
  -0.05148298  0.10495309  0.00000000       0.012
   0.00000000  0.10495309  0.00000000       0.006
   0.15444895 -0.00000000 -0.05167380       0.012
   0.18019044 -0.01749218 -0.04306150       0.012
   0.15444895  0.00000000 -0.03444920       0.012
   0.18019044 -0.01749218 -0.02583690       0.012
   0.15444895 -0.00000000 -0.01722460       0.012
   0.15444895  0.00000000  0.00000000       0.006
   0.18019044 -0.01749218 -0.00861230       0.012
 
 k-points in reciprocal lattice and weights: Fully automatic kpoint scheme           
   0.00000000  0.00000000  0.00000000       0.003
   0.14285714  0.00000000 -0.00000000       0.023
   0.28571429 -0.00000000  0.00000000       0.023
   0.42857143  0.00000000  0.00000000       0.023
   0.14285714  0.14285714  0.00000000       0.006
   0.28571429  0.14285714  0.00000000       0.023
   0.42857143  0.14285714  0.00000000       0.023
  -0.42857143  0.14285714 -0.00000000       0.023
  -0.28571429  0.14285714  0.00000000       0.023
  -0.14285714  0.14285714 -0.00000000       0.012
   0.28571429  0.28571429  0.00000000       0.006
   0.42857143  0.28571429  0.00000000       0.023
  -0.42857143  0.28571429 -0.00000000       0.023
  -0.28571429  0.28571429  0.00000000       0.012
   0.42857143  0.42857143  0.00000000       0.006
  -0.42857143  0.42857143  0.00000000       0.012
   0.14285714  0.00000000  0.14285714       0.006
   0.28571429  0.00000000  0.14285714       0.023
   0.42857143  0.00000000  0.14285714       0.023
  -0.42857143 -0.00000000  0.14285714       0.023
  -0.28571429 -0.00000000  0.14285714       0.023
  -0.14285714 -0.00000000  0.14285714       0.012
   0.00000000  0.14285714  0.14285714       0.006
   0.28571429  0.14285714  0.14285714       0.012
   0.42857143  0.14285714  0.14285714       0.023
  -0.42857143  0.14285714  0.14285714       0.023
  -0.28571429  0.14285714  0.14285714       0.023
  -0.14285714  0.14285714  0.14285714       0.023
   0.42857143  0.28571429  0.14285714       0.012
  -0.42857143  0.28571429  0.14285714       0.023
  -0.28571429  0.28571429  0.14285714       0.023
  -0.14285714  0.28571429  0.14285714       0.012
   0.28571429  0.42857143  0.14285714       0.012
  -0.42857143  0.42857143  0.14285714       0.012
  -0.28571429  0.42857143  0.14285714       0.012
   0.28571429 -0.42857143  0.14285714       0.023
   0.42857143 -0.42857143  0.14285714       0.012
   0.28571429 -0.28571429  0.14285714       0.023
   0.42857143 -0.28571429  0.14285714       0.012
   0.28571429 -0.14285714  0.14285714       0.012
   0.28571429  0.00000000  0.28571429       0.006
   0.42857143  0.00000000  0.28571429       0.023
  -0.42857143 -0.00000000  0.28571429       0.023
  -0.28571429  0.00000000  0.28571429       0.012
   0.42857143  0.14285714  0.28571429       0.012
  -0.42857143  0.14285714  0.28571429       0.023
  -0.28571429  0.14285714  0.28571429       0.023
  -0.14285714  0.14285714  0.28571429       0.012
   0.00000000  0.28571429  0.28571429       0.006
  -0.42857143  0.28571429  0.28571429       0.012
  -0.28571429  0.28571429  0.28571429       0.023
  -0.14285714  0.28571429  0.28571429       0.023
  -0.28571429  0.42857143  0.28571429       0.012
  -0.14285714  0.42857143  0.28571429       0.012
   0.42857143 -0.28571429  0.28571429       0.012
   0.42857143 -0.14285714  0.28571429       0.012
   0.42857143  0.00000000  0.42857143       0.006
  -0.42857143 -0.00000000  0.42857143       0.012
  -0.42857143  0.14285714  0.42857143       0.012
  -0.28571429  0.14285714  0.42857143       0.012
  -0.28571429  0.28571429  0.42857143       0.012
  -0.14285714  0.28571429  0.42857143       0.012
   0.00000000  0.42857143  0.42857143       0.006
  -0.14285714  0.42857143  0.42857143       0.012
 
 position of ions in fractional coordinates (direct lattice) 
   0.60148400  0.55065200  0.24482100
   0.60304400  0.24482100  0.55065200
   0.00517900  0.64695600  0.64851600
   0.69934800  0.64851600  0.64695600
   0.27314600  0.84360000  0.39369100
   0.48956300  0.39369100  0.84360000
   0.85630900  0.76043700  0.97685400
   0.40640000  0.97685400  0.76043700
   0.99074500  0.50925500  0.50925500
   0.74074500  0.25925500  0.25925500
   0.78773000  0.48129500  0.37068700
   0.36028800  0.37068700  0.48129500
   0.87931300  0.88971200  0.46227000
   0.76870500  0.46227000  0.88971200
 
 position of ions in cartesian coordinates  (Angst):
   2.20731189  3.45585008  9.55556827
   2.20731189  4.71106801  7.03201002
   3.59473012  2.66933542  5.40866748
   3.59473012  5.49757449 11.17889423
   3.43328703  2.72300022  9.26205122
   3.43328703  5.44391378  7.32551878
   4.82070803  7.48564228 13.40894372
   4.82070803  4.76472872 11.47241128
   2.82620433  6.12518550 12.44067750
   1.43878333  4.08345700  8.29378500
   2.36411544  4.73034601 10.52502051
   2.36411544  3.43656799  6.06254949
   3.75153644  5.47829649 14.67191301
   3.75153644  6.77207451 10.20944199
 


--------------------------------------------------------------------------------------------------------


 k-point  1 :   0.0000 0.0000 0.0000  plane waves:    5047
 k-point  2 :   0.1429 0.0000-0.0000  plane waves:    5049
 k-point  3 :   0.2857-0.0000 0.0000  plane waves:    5053
 k-point  4 :   0.4286 0.0000 0.0000  plane waves:    5056
 k-point  5 :   0.1429 0.1429 0.0000  plane waves:    5059
 k-point  6 :   0.2857 0.1429 0.0000  plane waves:    5057
 k-point  7 :   0.4286 0.1429 0.0000  plane waves:    5056
 k-point  8 :  -0.4286 0.1429-0.0000  plane waves:    5064
 k-point  9 :  -0.2857 0.1429 0.0000  plane waves:    5058
 k-point 10 :  -0.1429 0.1429-0.0000  plane waves:    5067
 k-point 11 :   0.2857 0.2857 0.0000  plane waves:    5063
 k-point 12 :   0.4286 0.2857 0.0000  plane waves:    5060
 k-point 13 :  -0.4286 0.2857-0.0000  plane waves:    5058
 k-point 14 :  -0.2857 0.2857 0.0000  plane waves:    5060
 k-point 15 :   0.4286 0.4286 0.0000  plane waves:    5038
 k-point 16 :  -0.4286 0.4286 0.0000  plane waves:    5060
 k-point 17 :   0.1429 0.0000 0.1429  plane waves:    5019
 k-point 18 :   0.2857 0.0000 0.1429  plane waves:    5060
 k-point 19 :   0.4286 0.0000 0.1429  plane waves:    5072
 k-point 20 :  -0.4286-0.0000 0.1429  plane waves:    5058
 k-point 21 :  -0.2857-0.0000 0.1429  plane waves:    5062
 k-point 22 :  -0.1429-0.0000 0.1429  plane waves:    5067
 k-point 23 :   0.0000 0.1429 0.1429  plane waves:    5065
 k-point 24 :   0.2857 0.1429 0.1429  plane waves:    5035
 k-point 25 :   0.4286 0.1429 0.1429  plane waves:    5062
 k-point 26 :  -0.4286 0.1429 0.1429  plane waves:    5062
 k-point 27 :  -0.2857 0.1429 0.1429  plane waves:    5061
 k-point 28 :  -0.1429 0.1429 0.1429  plane waves:    5055
 k-point 29 :   0.4286 0.2857 0.1429  plane waves:    5067
 k-point 30 :  -0.4286 0.2857 0.1429  plane waves:    5062
 k-point 31 :  -0.2857 0.2857 0.1429  plane waves:    5056
 k-point 32 :  -0.1429 0.2857 0.1429  plane waves:    5067
 k-point 33 :   0.2857 0.4286 0.1429  plane waves:    5050
 k-point 34 :  -0.4286 0.4286 0.1429  plane waves:    5072
 k-point 35 :  -0.2857 0.4286 0.1429  plane waves:    5062
 k-point 36 :   0.2857-0.4286 0.1429  plane waves:    5053
 k-point 37 :   0.4286-0.4286 0.1429  plane waves:    5052
 k-point 38 :   0.2857-0.2857 0.1429  plane waves:    5060
 k-point 39 :   0.4286-0.2857 0.1429  plane waves:    5046
 k-point 40 :   0.2857-0.1429 0.1429  plane waves:    5063
 k-point 41 :   0.2857 0.0000 0.2857  plane waves:    5093
 k-point 42 :   0.4286 0.0000 0.2857  plane waves:    5068
 k-point 43 :  -0.4286-0.0000 0.2857  plane waves:    5060
 k-point 44 :  -0.2857 0.0000 0.2857  plane waves:    5060
 k-point 45 :   0.4286 0.1429 0.2857  plane waves:    5059
 k-point 46 :  -0.4286 0.1429 0.2857  plane waves:    5070
 k-point 47 :  -0.2857 0.1429 0.2857  plane waves:    5062
 k-point 48 :  -0.1429 0.1429 0.2857  plane waves:    5063
 k-point 49 :   0.0000 0.2857 0.2857  plane waves:    5058
 k-point 50 :  -0.4286 0.2857 0.2857  plane waves:    5065
 k-point 51 :  -0.2857 0.2857 0.2857  plane waves:    5073
 k-point 52 :  -0.1429 0.2857 0.2857  plane waves:    5062
 k-point 53 :  -0.2857 0.4286 0.2857  plane waves:    5061
 k-point 54 :  -0.1429 0.4286 0.2857  plane waves:    5065
 k-point 55 :   0.4286-0.2857 0.2857  plane waves:    5061
 k-point 56 :   0.4286-0.1429 0.2857  plane waves:    5069
 k-point 57 :   0.4286 0.0000 0.4286  plane waves:    5080
 k-point 58 :  -0.4286-0.0000 0.4286  plane waves:    5081
 k-point 59 :  -0.4286 0.1429 0.4286  plane waves:    5073
 k-point 60 :  -0.2857 0.1429 0.4286  plane waves:    5070
 k-point 61 :  -0.2857 0.2857 0.4286  plane waves:    5074
 k-point 62 :  -0.1429 0.2857 0.4286  plane waves:    5058
 k-point 63 :   0.0000 0.4286 0.4286  plane waves:    5050
 k-point 64 :  -0.1429 0.4286 0.4286  plane waves:    5083

 maximum and minimum number of plane-waves per node :       858      817

 maximum number of plane-waves:      5093
 maximum index in each direction: 
   IXMAX=   17   IYMAX=   16   IZMAX=    9
   IXMIN=  -17   IYMIN=  -16   IZMIN=   -9


 real space projection operators:
  total allocation   :       5825.50 KBytes
  max/ min on nodes  :        996.81        923.00


 parallel 3D FFT for wavefunctions:
    minimum data exchange during FFTs selected (reduces bandwidth)
 parallel 3D FFT for charge:
    minimum data exchange during FFTs selected (reduces bandwidth)


 total amount of memory used by VASP MPI-rank0    66112. kBytes
=======================================================================

   base      :      30000. kBytes
   nonlr-proj:       3080. kBytes
   fftplans  :       3288. kBytes
   grid      :       8198. kBytes
   one-center:         18. kBytes
   wavefun   :      21528. kBytes
 
     INWAV:  cpu time    0.0000: real time    0.0001
 Broyden mixing: mesh for mixing (old mesh)
   NGX = 35   NGY = 33   NGZ = 19
  (NGX  =140   NGY  =140   NGZ  = 80)
  gives a total of  21945 points

 initial charge density was supplied:
 charge density of overlapping atoms calculated
 number of electron      80.0000000 magnetization       0.0000000
 keeping initial charge density in first step


--------------------------------------------------------------------------------------------------------


 Maximum index for non-local projection operator         1356
 Maximum index for augmentation-charges         1478 (set IRDMAX)


--------------------------------------------------------------------------------------------------------


 First call to EWALD:  gamma=   0.309
 Maximum number of real-space cells 3x 3x 3
 Maximum number of reciprocal cells 4x 4x 2

    FEWALD:  cpu time    0.0054: real time    0.0080


--------------------------------------- Iteration      1(   1)  ---------------------------------------


    POTLOK:  cpu time    0.1071: real time    0.1443
    SETDIJ:  cpu time    0.2349: real time    0.2435
     EDDAV:  cpu time   10.3384: real time   10.4695
 BZINTS: Fermi energy: 16.971054; 80.000000 electrons
         Band energy: -66.413626;  BLOECHL correction: -0.086268
       DOS:  cpu time    0.0568: real time    0.0579
    --------------------------------------------
      LOOP:  cpu time   10.7372: real time   10.9153

 eigenvalue-minimisations  : 12336
 total energy-change (2. order) : 0.5761599E+03  (-0.4331090E+04)
 number of electron      80.0000000 magnetization       0.0000000
 augmentation part       80.0000000 magnetization       0.0000000

 Free energy of the ion-electron system (eV)
  ---------------------------------------------------
  alpha Z        PSCENC =       132.71359951
  Ewald energy   TEWEN  =     -2992.92161006
  -Hartree energ DENC   =     -1835.44489587
  -exchange      EXHF   =         0.00000000
  -V(xc)+E(xc)   XCENC  =       295.81973727
  PAW double counting   =      4024.53487429    -4009.87578179
  entropy T*S    EENTRO =         0.00000000
  eigenvalues    EBANDS =       -66.41362557
  atomic energy  EATOM  =      5027.74765089
  Solvation  Ediel_sol  =         0.00000000
  ---------------------------------------------------
  free energy    TOTEN  =       576.15994869 eV

  energy without entropy =      576.15994869  energy(sigma->0) =      576.15994869


--------------------------------------------------------------------------------------------------------




--------------------------------------- Iteration      1(   2)  ---------------------------------------


     EDDAV:  cpu time   12.0684: real time   12.0765
 BZINTS: Fermi energy: -0.553746; 80.000000 electrons
         Band energy:-714.880988;  BLOECHL correction:  0.000000
       DOS:  cpu time    0.0136: real time    0.0136
    --------------------------------------------
      LOOP:  cpu time   12.0820: real time   12.0900

 eigenvalue-minimisations  : 15376
 total energy-change (2. order) :-0.6484674E+03  (-0.6354889E+03)
 number of electron      80.0000000 magnetization       0.0000000
 augmentation part       80.0000000 magnetization       0.0000000

 Free energy of the ion-electron system (eV)
  ---------------------------------------------------
  alpha Z        PSCENC =       132.71359951
  Ewald energy   TEWEN  =     -2992.92161006
  -Hartree energ DENC   =     -1835.44489587
  -exchange      EXHF   =         0.00000000
  -V(xc)+E(xc)   XCENC  =       295.81973727
  PAW double counting   =      4024.53487429    -4009.87578179
  entropy T*S    EENTRO =         0.00000000
  eigenvalues    EBANDS =      -714.88098831
  atomic energy  EATOM  =      5027.74765089
  Solvation  Ediel_sol  =         0.00000000
  ---------------------------------------------------
  free energy    TOTEN  =       -72.30741406 eV

  energy without entropy =      -72.30741406  energy(sigma->0) =      -72.30741406


--------------------------------------------------------------------------------------------------------




--------------------------------------- Iteration      1(   3)  ---------------------------------------


     EDDAV:  cpu time   11.4440: real time   11.4506
 BZINTS: Fermi energy: -2.549109; 80.000000 electrons
         Band energy:-754.368314;  BLOECHL correction:  0.000000
       DOS:  cpu time    0.0099: real time    0.0099
    --------------------------------------------
      LOOP:  cpu time   11.4539: real time   11.4605

 eigenvalue-minimisations  : 14328
 total energy-change (2. order) :-0.3948733E+02  (-0.3929402E+02)
 number of electron      80.0000000 magnetization       0.0000000
 augmentation part       80.0000000 magnetization       0.0000000

 Free energy of the ion-electron system (eV)
  ---------------------------------------------------
  alpha Z        PSCENC =       132.71359951
  Ewald energy   TEWEN  =     -2992.92161006
  -Hartree energ DENC   =     -1835.44489587
  -exchange      EXHF   =         0.00000000
  -V(xc)+E(xc)   XCENC  =       295.81973727
  PAW double counting   =      4024.53487429    -4009.87578179
  entropy T*S    EENTRO =         0.00000000
  eigenvalues    EBANDS =      -754.36831354
  atomic energy  EATOM  =      5027.74765089
  Solvation  Ediel_sol  =         0.00000000
  ---------------------------------------------------
  free energy    TOTEN  =      -111.79473928 eV

  energy without entropy =     -111.79473928  energy(sigma->0) =     -111.79473928


--------------------------------------------------------------------------------------------------------




--------------------------------------- Iteration      1(   4)  ---------------------------------------


     EDDAV:  cpu time   12.1690: real time   12.1764
 BZINTS: Fermi energy: -2.573763; 80.000000 electrons
         Band energy:-755.094602;  BLOECHL correction:  0.000000
       DOS:  cpu time    0.0082: real time    0.0082
    --------------------------------------------
      LOOP:  cpu time   12.1772: real time   12.1846

 eigenvalue-minimisations  : 15552
 total energy-change (2. order) :-0.7262887E+00  (-0.7237723E+00)
 number of electron      80.0000000 magnetization       0.0000000
 augmentation part       80.0000000 magnetization       0.0000000

 Free energy of the ion-electron system (eV)
  ---------------------------------------------------
  alpha Z        PSCENC =       132.71359951
  Ewald energy   TEWEN  =     -2992.92161006
  -Hartree energ DENC   =     -1835.44489587
  -exchange      EXHF   =         0.00000000
  -V(xc)+E(xc)   XCENC  =       295.81973727
  PAW double counting   =      4024.53487429    -4009.87578179
  entropy T*S    EENTRO =         0.00000000
  eigenvalues    EBANDS =      -755.09460228
  atomic energy  EATOM  =      5027.74765089
  Solvation  Ediel_sol  =         0.00000000
  ---------------------------------------------------
  free energy    TOTEN  =      -112.52102803 eV

  energy without entropy =     -112.52102803  energy(sigma->0) =     -112.52102803


--------------------------------------------------------------------------------------------------------




--------------------------------------- Iteration      1(   5)  ---------------------------------------


     EDDAV:  cpu time   13.3527: real time   20.4886
 BZINTS: Fermi energy: -2.542696; 80.000000 electrons
         Band energy:-755.109114;  BLOECHL correction:  0.000000
       DOS:  cpu time    0.0095: real time    0.0096
    CHARGE:  cpu time    0.5868: real time    1.1908
    MIXING:  cpu time    0.0080: real time    0.0157
    --------------------------------------------
      LOOP:  cpu time   13.9572: real time   21.7047

 eigenvalue-minimisations  : 14144
 total energy-change (2. order) :-0.1451143E-01  (-0.1450078E-01)
 number of electron      79.9999993 magnetization       0.0000000
 augmentation part        6.3261021 magnetization       0.0000306

 Broyden mixing:
  rms(total) = 0.41560E+01    rms(broyden)= 0.41556E+01
  rms(prec ) = 0.47840E+01
  weight for this iteration     100.00

 Free energy of the ion-electron system (eV)
  ---------------------------------------------------
  alpha Z        PSCENC =       132.71359951
  Ewald energy   TEWEN  =     -2992.92161006
  -Hartree energ DENC   =     -1835.44489587
  -exchange      EXHF   =         0.00000000
  -V(xc)+E(xc)   XCENC  =       295.81973727
  PAW double counting   =      4024.53487429    -4009.87578179
  entropy T*S    EENTRO =         0.00000000
  eigenvalues    EBANDS =      -755.10911371
  atomic energy  EATOM  =      5027.74765089
  Solvation  Ediel_sol  =         0.00000000
  ---------------------------------------------------
  free energy    TOTEN  =      -112.53553945 eV

  energy without entropy =     -112.53553945  energy(sigma->0) =     -112.53553945


--------------------------------------------------------------------------------------------------------




--------------------------------------- Iteration      1(   6)  ---------------------------------------


    POTLOK:  cpu time    0.0864: real time    0.1641
    SETDIJ:  cpu time    0.2430: real time    0.4949
    EDDIAG:  cpu time    1.8641: real time    3.7276
  RMM-DIIS:  cpu time    7.2253: real time   14.4549
    ORTHCH:  cpu time    0.0966: real time    0.1933
 BZINTS: Fermi energy: -0.233510; 80.000000 electrons
         Band energy:-618.553485;  BLOECHL correction:  0.000000
       DOS:  cpu time    0.0084: real time    0.0085
    CHARGE:  cpu time    0.5807: real time    1.1696
    MIXING:  cpu time    0.0047: real time    0.0172
    --------------------------------------------
      LOOP:  cpu time   10.1092: real time   20.2303

 eigenvalue-minimisations  : 12288
 total energy-change (2. order) : 0.1390404E+02  (-0.6215164E+01)
 number of electron      79.9999994 magnetization      -0.0000000
 augmentation part        4.8903005 magnetization       0.0000760

 Broyden mixing:
  rms(total) = 0.17607E+01    rms(broyden)= 0.17605E+01
  rms(prec ) = 0.18359E+01
  weight for this iteration     100.00

 eigenvalues of (default mixing * dielectric matrix)
  average eigenvalue GAMMA=   1.3574
  1.3574

 Free energy of the ion-electron system (eV)
  ---------------------------------------------------
  alpha Z        PSCENC =       132.71359951
  Ewald energy   TEWEN  =     -2992.92161006
  -Hartree energ DENC   =     -1965.28261225
  -exchange      EXHF   =         0.00000000
  -V(xc)+E(xc)   XCENC  =       305.70941181
  PAW double counting   =      7338.23013905    -7326.27459555
  entropy T*S    EENTRO =         0.00000000
  eigenvalues    EBANDS =      -618.55348481
  atomic energy  EATOM  =      5027.74765089
  Solvation  Ediel_sol  =         0.00000000
  ---------------------------------------------------
  free energy    TOTEN  =       -98.63150141 eV

  energy without entropy =      -98.63150141  energy(sigma->0) =      -98.63150141


--------------------------------------------------------------------------------------------------------




--------------------------------------- Iteration      1(   7)  ---------------------------------------


    POTLOK:  cpu time    0.0866: real time    0.1654
    SETDIJ:  cpu time    0.2439: real time    0.4968
    EDDIAG:  cpu time    1.8877: real time    3.7731
  RMM-DIIS:  cpu time    7.9021: real time   17.6158
    ORTHCH:  cpu time    0.1264: real time    0.3780
 BZINTS: Fermi energy: -0.061856; 80.000000 electrons
         Band energy:-607.840433;  BLOECHL correction:  0.000000
       DOS:  cpu time    0.0083: real time    0.0088
    CHARGE:  cpu time    0.6091: real time    1.8392
    MIXING:  cpu time    0.0031: real time    0.0165
    --------------------------------------------
      LOOP:  cpu time   10.8672: real time   24.2935

 eigenvalue-minimisations  : 13304
 total energy-change (2. order) : 0.1383404E+00  (-0.3484696E+00)
 number of electron      79.9999994 magnetization      -0.0000000
 augmentation part        4.6937959 magnetization       0.0000048

 Broyden mixing:
  rms(total) = 0.76422E+00    rms(broyden)= 0.76418E+00
  rms(prec ) = 0.81019E+00
  weight for this iteration     100.00

 eigenvalues of (default mixing * dielectric matrix)
  average eigenvalue GAMMA=   1.6358
  1.1243  2.1473

 Free energy of the ion-electron system (eV)
  ---------------------------------------------------
  alpha Z        PSCENC =       132.71359951
  Ewald energy   TEWEN  =     -2992.92161006
  -Hartree energ DENC   =     -1977.12925828
  -exchange      EXHF   =         0.00000000
  -V(xc)+E(xc)   XCENC  =       306.86569193
  PAW double counting   =     10478.86588991   -10466.79469208
  entropy T*S    EENTRO =         0.00000000
  eigenvalues    EBANDS =      -607.84043280
  atomic energy  EATOM  =      5027.74765089
  Solvation  Ediel_sol  =         0.00000000
  ---------------------------------------------------
  free energy    TOTEN  =       -98.49316098 eV

  energy without entropy =      -98.49316098  energy(sigma->0) =      -98.49316098


--------------------------------------------------------------------------------------------------------




--------------------------------------- Iteration      1(   8)  ---------------------------------------


    POTLOK:  cpu time    0.0867: real time    0.2576
    SETDIJ:  cpu time    0.2460: real time    0.7420
    EDDIAG:  cpu time    2.7079: real time    8.1286
  RMM-DIIS:  cpu time    7.4152: real time   22.2550
    ORTHCH:  cpu time    0.1202: real time    0.3629
 BZINTS: Fermi energy: -0.223610; 80.000000 electrons
         Band energy:-615.204545;  BLOECHL correction:  0.000000
       DOS:  cpu time    0.0097: real time    0.0236
    CHARGE:  cpu time    0.6166: real time    1.8485
    MIXING:  cpu time    0.0027: real time    0.0172
    --------------------------------------------
      LOOP:  cpu time   11.2050: real time   33.6355

 eigenvalue-minimisations  : 12288
 total energy-change (2. order) : 0.6440456E-01  (-0.9260835E-01)
 number of electron      79.9999994 magnetization      -0.0000000
 augmentation part        4.8117108 magnetization      -0.0000062

 Broyden mixing:
  rms(total) = 0.12930E+00    rms(broyden)= 0.12927E+00
  rms(prec ) = 0.17724E+00
  weight for this iteration     100.00

 eigenvalues of (default mixing * dielectric matrix)
  average eigenvalue GAMMA=   1.5733
  2.2953  1.2122  1.2122

 Free energy of the ion-electron system (eV)
  ---------------------------------------------------
  alpha Z        PSCENC =       132.71359951
  Ewald energy   TEWEN  =     -2992.92161006
  -Hartree energ DENC   =     -1969.84136655
  -exchange      EXHF   =         0.00000000
  -V(xc)+E(xc)   XCENC  =       306.60043851
  PAW double counting   =     13254.17310966   -13241.69603347
  entropy T*S    EENTRO =         0.00000000
  eigenvalues    EBANDS =      -615.20454492
  atomic energy  EATOM  =      5027.74765089
  Solvation  Ediel_sol  =         0.00000000
  ---------------------------------------------------
  free energy    TOTEN  =       -98.42875642 eV

  energy without entropy =      -98.42875642  energy(sigma->0) =      -98.42875642


--------------------------------------------------------------------------------------------------------




--------------------------------------- Iteration      1(   9)  ---------------------------------------


    POTLOK:  cpu time    0.0860: real time    0.2555
    SETDIJ:  cpu time    0.2468: real time    0.7453
    EDDIAG:  cpu time    2.4912: real time    7.4754
  RMM-DIIS:  cpu time    7.4576: real time   22.3852
    ORTHCH:  cpu time    0.1197: real time    0.3596
 BZINTS: Fermi energy:  0.024572; 80.000000 electrons
         Band energy:-608.094591;  BLOECHL correction:  0.000000
       DOS:  cpu time    0.0097: real time    0.0261
    CHARGE:  cpu time    0.6203: real time    1.8610
    MIXING:  cpu time    0.0035: real time    0.0140
    --------------------------------------------
      LOOP:  cpu time   11.0347: real time   33.1220

 eigenvalue-minimisations  : 12288
 total energy-change (2. order) : 0.2440630E-01  (-0.2740764E-01)
 number of electron      79.9999994 magnetization      -0.0000000
 augmentation part        4.7407198 magnetization       0.0000027

 Broyden mixing:
  rms(total) = 0.58588E-01    rms(broyden)= 0.58560E-01
  rms(prec ) = 0.76608E-01
  weight for this iteration     100.00

 eigenvalues of (default mixing * dielectric matrix)
  average eigenvalue GAMMA=   1.3682
  2.2807  1.0008  1.0008  1.1904

 Free energy of the ion-electron system (eV)
  ---------------------------------------------------
  alpha Z        PSCENC =       132.71359951
  Ewald energy   TEWEN  =     -2992.92161006
  -Hartree energ DENC   =     -1977.37262064
  -exchange      EXHF   =         0.00000000
  -V(xc)+E(xc)   XCENC  =       307.21138748
  PAW double counting   =     13549.41571010   -13537.10387685
  entropy T*S    EENTRO =         0.00000000
  eigenvalues    EBANDS =      -608.09459055
  atomic energy  EATOM  =      5027.74765089
  Solvation  Ediel_sol  =         0.00000000
  ---------------------------------------------------
  free energy    TOTEN  =       -98.40435012 eV

  energy without entropy =      -98.40435012  energy(sigma->0) =      -98.40435012


--------------------------------------------------------------------------------------------------------




--------------------------------------- Iteration      1(  10)  ---------------------------------------


    POTLOK:  cpu time    0.0855: real time    0.2550
    SETDIJ:  cpu time    0.2469: real time    0.7457
    EDDIAG:  cpu time    2.4356: real time    7.3089
  RMM-DIIS:  cpu time    7.4762: real time   22.4383
    ORTHCH:  cpu time    0.1219: real time    0.3687
 BZINTS: Fermi energy: -0.069322; 80.000000 electrons
         Band energy:-609.759358;  BLOECHL correction:  0.000000
       DOS:  cpu time    0.0083: real time    0.0090
    CHARGE:  cpu time    0.6194: real time    1.8710
    MIXING:  cpu time    0.0033: real time    0.0131
    --------------------------------------------
      LOOP:  cpu time   10.9972: real time   33.0096

 eigenvalue-minimisations  : 12288
 total energy-change (2. order) : 0.5469665E-02  (-0.1578479E-02)
 number of electron      79.9999994 magnetization       0.0000000
 augmentation part        4.7551601 magnetization      -0.0000005

 Broyden mixing:
  rms(total) = 0.22824E-01    rms(broyden)= 0.22822E-01
  rms(prec ) = 0.26592E-01
  weight for this iteration     100.00

 eigenvalues of (default mixing * dielectric matrix)
  average eigenvalue GAMMA=   1.5183
  2.2799  2.2799  1.0507  1.0507  0.9305

 Free energy of the ion-electron system (eV)
  ---------------------------------------------------
  alpha Z        PSCENC =       132.71359951
  Ewald energy   TEWEN  =     -2992.92161006
  -Hartree energ DENC   =     -1975.60235545
  -exchange      EXHF   =         0.00000000
  -V(xc)+E(xc)   XCENC  =       307.07622236
  PAW double counting   =     13521.48322206   -13509.13625169
  entropy T*S    EENTRO =         0.00000000
  eigenvalues    EBANDS =      -609.75935809
  atomic energy  EATOM  =      5027.74765089
  Solvation  Ediel_sol  =         0.00000000
  ---------------------------------------------------
  free energy    TOTEN  =       -98.39888046 eV

  energy without entropy =      -98.39888046  energy(sigma->0) =      -98.39888046


--------------------------------------------------------------------------------------------------------




--------------------------------------- Iteration      1(  11)  ---------------------------------------


    POTLOK:  cpu time    0.0864: real time    0.2565
    SETDIJ:  cpu time    0.2457: real time    0.7438
    EDDIAG:  cpu time    2.4143: real time    7.2461
  RMM-DIIS:  cpu time    7.4642: real time   22.4025
    ORTHCH:  cpu time    0.1224: real time    0.3687
 BZINTS: Fermi energy: -0.095957; 80.000000 electrons
         Band energy:-609.688700;  BLOECHL correction:  0.000000
       DOS:  cpu time    0.0097: real time    0.0245
    CHARGE:  cpu time    0.6196: real time    1.8631
    MIXING:  cpu time    0.0033: real time    0.0107
    --------------------------------------------
      LOOP:  cpu time   10.9656: real time   32.9158

 eigenvalue-minimisations  : 12300
 total energy-change (2. order) :-0.1440670E-02  (-0.4389431E-03)
 number of electron      79.9999994 magnetization      -0.0000000
 augmentation part        4.7609550 magnetization       0.0000103

 Broyden mixing:
  rms(total) = 0.12323E-01    rms(broyden)= 0.12320E-01
  rms(prec ) = 0.15874E-01
  weight for this iteration     100.00

 eigenvalues of (default mixing * dielectric matrix)
  average eigenvalue GAMMA=   1.4377
  2.6311  2.3103  1.0523  0.9670  0.9670  0.6985

 Free energy of the ion-electron system (eV)
  ---------------------------------------------------
  alpha Z        PSCENC =       132.71359951
  Ewald energy   TEWEN  =     -2992.92161006
  -Hartree energ DENC   =     -1975.66792207
  -exchange      EXHF   =         0.00000000
  -V(xc)+E(xc)   XCENC  =       307.08249397
  PAW double counting   =     13481.73690695   -13469.40273990
  entropy T*S    EENTRO =         0.00000000
  eigenvalues    EBANDS =      -609.68870042
  atomic energy  EATOM  =      5027.74765089
  Solvation  Ediel_sol  =         0.00000000
  ---------------------------------------------------
  free energy    TOTEN  =       -98.40032113 eV

  energy without entropy =      -98.40032113  energy(sigma->0) =      -98.40032113


--------------------------------------------------------------------------------------------------------




--------------------------------------- Iteration      1(  12)  ---------------------------------------


    POTLOK:  cpu time    0.0862: real time    0.2549
    SETDIJ:  cpu time    0.2457: real time    0.7441
    EDDIAG:  cpu time    2.4223: real time    7.2689
  RMM-DIIS:  cpu time    7.2835: real time   21.8711
    ORTHCH:  cpu time    0.1236: real time    0.3630
 BZINTS: Fermi energy: -0.071333; 80.000000 electrons
         Band energy:-609.358547;  BLOECHL correction:  0.000000
       DOS:  cpu time    0.0083: real time    0.0084
    CHARGE:  cpu time    0.6192: real time    1.8729
    MIXING:  cpu time    0.0038: real time    0.0115
    --------------------------------------------
      LOOP:  cpu time   10.7925: real time   32.3947

 eigenvalue-minimisations  : 11793
 total energy-change (2. order) : 0.2513003E-03  (-0.5628346E-04)
 number of electron      79.9999994 magnetization      -0.0000000
 augmentation part        4.7580757 magnetization      -0.0000001

 Broyden mixing:
  rms(total) = 0.33655E-02    rms(broyden)= 0.33650E-02
  rms(prec ) = 0.39877E-02
  weight for this iteration     100.00

 eigenvalues of (default mixing * dielectric matrix)
  average eigenvalue GAMMA=   1.4158
  2.6709  1.9932  1.5133  1.0401  1.0401  1.0194  0.6337

 Free energy of the ion-electron system (eV)
  ---------------------------------------------------
  alpha Z        PSCENC =       132.71359951
  Ewald energy   TEWEN  =     -2992.92161006
  -Hartree energ DENC   =     -1976.02292916
  -exchange      EXHF   =         0.00000000
  -V(xc)+E(xc)   XCENC  =       307.11261715
  PAW double counting   =     13505.48352848   -13493.15438001
  entropy T*S    EENTRO =         0.00000000
  eigenvalues    EBANDS =      -609.35854662
  atomic energy  EATOM  =      5027.74765089
  Solvation  Ediel_sol  =         0.00000000
  ---------------------------------------------------
  free energy    TOTEN  =       -98.40006983 eV

  energy without entropy =      -98.40006983  energy(sigma->0) =      -98.40006983


--------------------------------------------------------------------------------------------------------




--------------------------------------- Iteration      1(  13)  ---------------------------------------


    POTLOK:  cpu time    0.0869: real time    0.2588
    SETDIJ:  cpu time    0.2463: real time    0.7451
    EDDIAG:  cpu time    2.4044: real time    7.2185
  RMM-DIIS:  cpu time    7.2864: real time   21.8765
    ORTHCH:  cpu time    0.1690: real time    0.5074
 BZINTS: Fermi energy: -0.075315; 80.000000 electrons
         Band energy:-609.250297;  BLOECHL correction:  0.000000
       DOS:  cpu time    0.0084: real time    0.0085
    CHARGE:  cpu time    0.6807: real time    2.0483
    MIXING:  cpu time    0.0044: real time    0.0209
    --------------------------------------------
      LOOP:  cpu time   10.8866: real time   32.6840

 eigenvalue-minimisations  : 10951
 total energy-change (2. order) :-0.3362403E-04  (-0.3719836E-04)
 number of electron      79.9999994 magnetization      -0.0000000
 augmentation part        4.7562307 magnetization      -0.0000024

 Broyden mixing:
  rms(total) = 0.33502E-02    rms(broyden)= 0.33492E-02
  rms(prec ) = 0.45566E-02
  weight for this iteration     100.00

 eigenvalues of (default mixing * dielectric matrix)
  average eigenvalue GAMMA=   1.4531
  2.6792  2.1563  2.1563  1.0512  1.0512  0.9511  0.9511  0.6282

 Free energy of the ion-electron system (eV)
  ---------------------------------------------------
  alpha Z        PSCENC =       132.71359951
  Ewald energy   TEWEN  =     -2992.92161006
  -Hartree energ DENC   =     -1976.14150546
  -exchange      EXHF   =         0.00000000
  -V(xc)+E(xc)   XCENC  =       307.12292260
  PAW double counting   =     13516.45282979   -13504.12369383
  entropy T*S    EENTRO =         0.00000000
  eigenvalues    EBANDS =      -609.25029690
  atomic energy  EATOM  =      5027.74765089
  Solvation  Ediel_sol  =         0.00000000
  ---------------------------------------------------
  free energy    TOTEN  =       -98.40010345 eV

  energy without entropy =      -98.40010345  energy(sigma->0) =      -98.40010345


--------------------------------------------------------------------------------------------------------




--------------------------------------- Iteration      1(  14)  ---------------------------------------


    POTLOK:  cpu time    0.0889: real time    0.2585
    SETDIJ:  cpu time    0.2559: real time    0.7732
    EDDIAG:  cpu time    3.2303: real time    9.6952
  RMM-DIIS:  cpu time    6.7985: real time   20.4166
    ORTHCH:  cpu time    0.1698: real time    0.5098
 BZINTS: Fermi energy: -0.078865; 80.000000 electrons
         Band energy:-609.349897;  BLOECHL correction:  0.000000
       DOS:  cpu time    0.0085: real time    0.0089
    CHARGE:  cpu time    0.6769: real time    2.0407
    MIXING:  cpu time    0.0049: real time    0.0182
    --------------------------------------------
      LOOP:  cpu time   11.2338: real time   33.7211

 eigenvalue-minimisations  : 10207
 total energy-change (2. order) : 0.1615327E-04  (-0.8295833E-05)
 number of electron      79.9999994 magnetization      -0.0000000
 augmentation part        4.7573611 magnetization       0.0000000

 Broyden mixing:
  rms(total) = 0.31385E-03    rms(broyden)= 0.31267E-03
  rms(prec ) = 0.39508E-03
  weight for this iteration     100.00

 eigenvalues of (default mixing * dielectric matrix)
  average eigenvalue GAMMA=   1.4213
  2.7442  2.3995  2.0206  0.9704  0.9704  1.1109  1.1109  0.8376  0.6271

 Free energy of the ion-electron system (eV)
  ---------------------------------------------------
  alpha Z        PSCENC =       132.71359951
  Ewald energy   TEWEN  =     -2992.92161006
  -Hartree energ DENC   =     -1976.03602348
  -exchange      EXHF   =         0.00000000
  -V(xc)+E(xc)   XCENC  =       307.11403116
  PAW double counting   =     13510.61886393   -13498.28670266
  entropy T*S    EENTRO =         0.00000000
  eigenvalues    EBANDS =      -609.34989660
  atomic energy  EATOM  =      5027.74765089
  Solvation  Ediel_sol  =         0.00000000
  ---------------------------------------------------
  free energy    TOTEN  =       -98.40008730 eV

  energy without entropy =      -98.40008730  energy(sigma->0) =      -98.40008730


--------------------------------------------------------------------------------------------------------




--------------------------------------- Iteration      1(  15)  ---------------------------------------


    POTLOK:  cpu time    0.0900: real time    0.2648
    SETDIJ:  cpu time    0.2528: real time    0.7609
    EDDIAG:  cpu time    3.4305: real time   10.2972
  RMM-DIIS:  cpu time    4.9777: real time   14.9502
    ORTHCH:  cpu time    0.2127: real time    0.6379
 BZINTS: Fermi energy: -0.079758; 80.000000 electrons
         Band energy:-609.344589;  BLOECHL correction:  0.000000
       DOS:  cpu time    0.0083: real time    0.0085
    --------------------------------------------
      LOOP:  cpu time    8.9720: real time   26.9193

 eigenvalue-minimisations  :  7093
 total energy-change (2. order) :-0.1066910E-05  (-0.5497102E-06)
 number of electron      79.9999994 magnetization      -0.0000000
 augmentation part        4.7573611 magnetization       0.0000000

 Free energy of the ion-electron system (eV)
  ---------------------------------------------------
  alpha Z        PSCENC =       132.71359951
  Ewald energy   TEWEN  =     -2992.92161006
  -Hartree energ DENC   =     -1976.04138688
  -exchange      EXHF   =         0.00000000
  -V(xc)+E(xc)   XCENC  =       307.11422526
  PAW double counting   =     13509.47207187   -13497.14004991
  entropy T*S    EENTRO =         0.00000000
  eigenvalues    EBANDS =      -609.34458906
  atomic energy  EATOM  =      5027.74765089
  Solvation  Ediel_sol  =         0.00000000
  ---------------------------------------------------
  free energy    TOTEN  =       -98.40008836 eV

  energy without entropy =      -98.40008836  energy(sigma->0) =      -98.40008836


--------------------------------------------------------------------------------------------------------




 average (electrostatic) potential at core
  the test charge radii are     0.9587  0.7215
  (the norm of the test charge is              1.0000)
       1 -89.4211       2 -89.4207       3 -89.4210       4 -89.4210       5 -72.6402
       6 -72.6403       7 -72.6401       8 -72.6401       9 -75.2145      10 -75.2146
      11 -75.3351      12 -75.3348      13 -75.3347      14 -75.3350
 
 
 
 E-fermi :  -0.0798     XC(G=0):  -8.8595     alpha+bet : -8.6833


 spin component 1

 k-point     1 :       0.0000    0.0000    0.0000
  band No.  band energies     occupation 
      1     -22.1609      1.00000
      2     -21.4496      1.00000
      3     -20.7124      1.00000
      4     -19.3931      1.00000
      5     -19.3844      1.00000
      6     -19.3131      1.00000
      7     -17.8177      1.00000
      8     -17.4214      1.00000
      9     -17.3613      1.00000
     10     -17.3477      1.00000
     11     -12.6451      1.00000
     12     -11.0249      1.00000
     13      -8.9625      1.00000
     14      -7.7223      1.00000
     15      -7.5567      1.00000
     16      -7.2860      1.00000
     17      -5.6052      1.00000
     18      -5.4481      1.00000
     19      -4.9911      1.00000
     20      -4.0119      1.00000
     21      -4.0000      1.00000
     22      -3.9036      1.00000
     23      -3.7428      1.00000
     24      -3.7288      1.00000
     25      -3.2979      1.00000
     26      -3.1184      1.00000
     27      -2.3819      1.00000
     28      -2.0844      1.00000
     29      -1.8851      1.00000
     30      -1.7919      1.00000
     31      -1.7011      1.00000
     32      -1.3010      1.00000
     33      -0.6468      1.00000
     34      -0.6352      1.00000
     35      -0.5391      1.00000
     36      -0.4387      1.00000
     37      -0.3955      1.00000
     38      -0.2425      1.00000
     39      -0.2385      1.00000
     40      -0.1070      1.00000
     41       5.0967      0.00000
     42       7.0539      0.00000
     43       7.1159      0.00000
     44       7.5218      0.00000
     45       7.9372      0.00000
     46       8.4521      0.00000
     47       8.8567      0.00000
     48       9.0267      0.00000

 k-point     2 :       0.1429    0.0000   -0.0000
  band No.  band energies     occupation 
      1     -22.1244      1.00000
      2     -21.4343      1.00000
      3     -20.7276      1.00000
      4     -19.4884      1.00000
      5     -19.3876      1.00000
      6     -19.3225      1.00000
      7     -17.7716      1.00000
      8     -17.4249      1.00000
      9     -17.3730      1.00000
     10     -17.3526      1.00000
     11     -12.5472      1.00000
     12     -10.9608      1.00000
     13      -9.0748      1.00000
     14      -7.7943      1.00000
     15      -7.4778      1.00000
     16      -7.2659      1.00000
     17      -5.5324      1.00000
     18      -5.3857      1.00000
     19      -4.9832      1.00000
     20      -4.1775      1.00000
     21      -3.9960      1.00000
     22      -3.9220      1.00000
     23      -3.7017      1.00000
     24      -3.6440      1.00000
     25      -3.2525      1.00000
     26      -3.1814      1.00000
     27      -2.3898      1.00000
     28      -2.1257      1.00000
     29      -1.9931      1.00000
     30      -1.8687      1.00000
     31      -1.7574      1.00000
     32      -1.3460      1.00000
     33      -0.6227      1.00000
     34      -0.6053      1.00000
     35      -0.5140      1.00000
     36      -0.4414      1.00000
     37      -0.3796      1.00000
     38      -0.2798      1.00000
     39      -0.2299      1.00000
     40      -0.1360      1.00000
     41       5.3124      0.00000
     42       7.0480      0.00000
     43       7.3711      0.00000
     44       7.6345      0.00000
     45       8.0117      0.00000
     46       8.4339      0.00000
     47       8.7951      0.00000
     48       9.0878      0.00000

 k-point     3 :       0.2857   -0.0000    0.0000
  band No.  band energies     occupation 
      1     -22.0363      1.00000
      2     -21.3842      1.00000
      3     -20.7883      1.00000
      4     -19.6925      1.00000
      5     -19.3883      1.00000
      6     -19.3315      1.00000
      7     -17.6952      1.00000
      8     -17.4307      1.00000
      9     -17.3991      1.00000
     10     -17.3613      1.00000
     11     -12.3249      1.00000
     12     -10.7665      1.00000
     13      -9.3735      1.00000
     14      -7.8971      1.00000
     15      -7.3823      1.00000
     16      -7.1920      1.00000
     17      -5.3553      1.00000
     18      -5.2242      1.00000
     19      -4.9575      1.00000
     20      -4.3548      1.00000
     21      -4.1718      1.00000
     22      -3.9662      1.00000
     23      -3.6373      1.00000
     24      -3.5113      1.00000
     25      -3.3510      1.00000
     26      -3.0748      1.00000
     27      -2.4618      1.00000
     28      -2.2946      1.00000
     29      -2.1486      1.00000
     30      -2.0342      1.00000
     31      -1.8532      1.00000
     32      -1.4314      1.00000
     33      -0.5941      1.00000
     34      -0.5570      1.00000
     35      -0.4760      1.00000
     36      -0.4436      1.00000
     37      -0.3864      1.00000
     38      -0.2761      1.00000
     39      -0.2170      1.00000
     40      -0.1740      1.00000
     41       5.7415      0.00000
     42       7.2650      0.00000
     43       7.7586      0.00000
     44       7.8712      0.00000
     45       8.1765      0.00000
     46       8.4403      0.00000
     47       8.8138      0.00000
     48       8.9667      0.00000

 k-point     4 :       0.4286    0.0000    0.0000
  band No.  band energies     occupation 
      1     -21.9599      1.00000
      2     -21.3067      1.00000
      3     -20.8899      1.00000
      4     -19.8314      1.00000
      5     -19.3888      1.00000
      6     -19.3374      1.00000
      7     -17.6563      1.00000
      8     -17.4435      1.00000
      9     -17.3989      1.00000
     10     -17.3744      1.00000
     11     -12.1467      1.00000
     12     -10.4832      1.00000
     13      -9.7347      1.00000
     14      -7.9619      1.00000
     15      -7.3357      1.00000
     16      -7.1150      1.00000
     17      -5.1663      1.00000
     18      -5.0993      1.00000
     19      -4.8767      1.00000
     20      -4.5464      1.00000
     21      -4.2928      1.00000
     22      -4.0378      1.00000
     23      -3.7015      1.00000
     24      -3.5114      1.00000
     25      -3.2856      1.00000
     26      -2.9162      1.00000
     27      -2.5995      1.00000
     28      -2.4213      1.00000
     29      -2.2829      1.00000
     30      -2.0743      1.00000
     31      -1.9719      1.00000
     32      -1.4802      1.00000
     33      -0.6481      1.00000
     34      -0.5191      1.00000
     35      -0.4794      1.00000
     36      -0.4389      1.00000
     37      -0.3350      1.00000
     38      -0.2849      1.00000
     39      -0.1963      1.00000
     40      -0.1543      1.00000
     41       6.0233      0.00000
     42       7.5802      0.00000
     43       7.8761      0.00000
     44       8.0592      0.00000
     45       8.2782      0.00000
     46       8.5796      0.00000
     47       8.8284      0.00000
     48       9.1708      0.00000

 k-point     5 :       0.1429    0.1429    0.0000
  band No.  band energies     occupation 
      1     -22.1401      1.00000
      2     -21.5265      1.00000
      3     -20.6099      1.00000
      4     -19.4022      1.00000
      5     -19.3847      1.00000
      6     -19.3730      1.00000
      7     -17.7855      1.00000
      8     -17.4372      1.00000
      9     -17.3572      1.00000
     10     -17.3475      1.00000
     11     -12.5848      1.00000
     12     -11.1501      1.00000
     13      -8.8481      1.00000
     14      -7.7493      1.00000
     15      -7.5477      1.00000
     16      -7.3111      1.00000
     17      -5.6091      1.00000
     18      -5.4781      1.00000
     19      -4.9440      1.00000
     20      -4.0258      1.00000
     21      -3.9813      1.00000
     22      -3.9718      1.00000
     23      -3.7236      1.00000
     24      -3.7118      1.00000
     25      -3.2501      1.00000
     26      -3.1266      1.00000
     27      -2.3881      1.00000
     28      -2.1483      1.00000
     29      -1.8346      1.00000
     30      -1.7785      1.00000
     31      -1.6998      1.00000
     32      -1.3165      1.00000
     33      -0.6603      1.00000
     34      -0.6338      1.00000
     35      -0.5511      1.00000
     36      -0.4854      1.00000
     37      -0.3644      1.00000
     38      -0.2455      1.00000
     39      -0.2232      1.00000
     40      -0.1096      1.00000
     41       5.1955      0.00000
     42       7.0090      0.00000
     43       7.0883      0.00000
     44       7.5450      0.00000
     45       7.9936      0.00000
     46       8.3950      0.00000
     47       8.7348      0.00000
     48       8.9482      0.00000

 k-point     6 :       0.2857    0.1429    0.0000
  band No.  band energies     occupation 
      1     -22.0837      1.00000
      2     -21.5685      1.00000
      3     -20.5468      1.00000
      4     -19.5739      1.00000
      5     -19.3877      1.00000
      6     -19.3561      1.00000
      7     -17.7219      1.00000
      8     -17.4535      1.00000
      9     -17.3667      1.00000
     10     -17.3514      1.00000
     11     -12.4314      1.00000
     12     -11.1963      1.00000
[...]
     39      -0.1754      1.00000
     40      -0.1393      1.00000
     41       7.0740      0.00000
     42       7.3836      0.00000
     43       8.0267      0.00000
     44       8.2961      0.00000
     45       8.4800      0.00000
     46       8.6208      0.00000
     47       9.0407      0.00000
     48       9.2298      0.00000

 k-point    62 :      -0.1429    0.2857    0.4286
  band No.  band energies     occupation 
      1     -21.6279      1.00000
      2     -21.3552      1.00000
      3     -20.8112      1.00000
      4     -20.4570      1.00000
      5     -19.3630      1.00000
      6     -19.3464      1.00000
      7     -17.5057      1.00000
      8     -17.4780      1.00000
      9     -17.4070      1.00000
     10     -17.3992      1.00000
     11     -11.2982      1.00000
     12     -10.6203      1.00000
     13      -9.5944      1.00000
     14      -8.9443      1.00000
     15      -6.9680      1.00000
     16      -6.9552      1.00000
     17      -5.0777      1.00000
     18      -5.0361      1.00000
     19      -4.7146      1.00000
     20      -4.4775      1.00000
     21      -4.3251      1.00000
     22      -4.3196      1.00000
     23      -4.0433      1.00000
     24      -3.8518      1.00000
     25      -3.1651      1.00000
     26      -2.9052      1.00000
     27      -2.5172      1.00000
     28      -2.4452      1.00000
     29      -2.3031      1.00000
     30      -2.0827      1.00000
     31      -2.0789      1.00000
     32      -1.9286      1.00000
     33      -0.7332      1.00000
     34      -0.6326      1.00000
     35      -0.3755      1.00000
     36      -0.2973      1.00000
     37      -0.2750      1.00000
     38      -0.2488      1.00000
     39      -0.1818      1.00000
     40      -0.1443      1.00000
     41       6.9184      0.00000
     42       7.4690      0.00000
     43       8.2379      0.00000
     44       8.2699      0.00000
     45       8.4549      0.00000
     46       8.6178      0.00000
     47       9.1332      0.00000
     48       9.2583      0.00000

 k-point    63 :       0.0000    0.4286    0.4286
  band No.  band energies     occupation 
      1     -21.6381      1.00000
      2     -21.3288      1.00000
      3     -20.8423      1.00000
      4     -20.4427      1.00000
      5     -19.3633      1.00000
      6     -19.3447      1.00000
      7     -17.5062      1.00000
      8     -17.4754      1.00000
      9     -17.4085      1.00000
     10     -17.4000      1.00000
     11     -11.3282      1.00000
     12     -10.5665      1.00000
     13      -9.6418      1.00000
     14      -8.9101      1.00000
     15      -6.9745      1.00000
     16      -6.9596      1.00000
     17      -5.0823      1.00000
     18      -5.0366      1.00000
     19      -4.7199      1.00000
     20      -4.4631      1.00000
     21      -4.3150      1.00000
     22      -4.2624      1.00000
     23      -4.1302      1.00000
     24      -3.8622      1.00000
     25      -3.1850      1.00000
     26      -2.8925      1.00000
     27      -2.5111      1.00000
     28      -2.4585      1.00000
     29      -2.2657      1.00000
     30      -2.0968      1.00000
     31      -2.0566      1.00000
     32      -1.9116      1.00000
     33      -0.7470      1.00000
     34      -0.6357      1.00000
     35      -0.3803      1.00000
     36      -0.3016      1.00000
     37      -0.2789      1.00000
     38      -0.2472      1.00000
     39      -0.1760      1.00000
     40      -0.1381      1.00000
     41       6.8535      0.00000
     42       7.4301      0.00000
     43       8.3158      0.00000
     44       8.3217      0.00000
     45       8.4013      0.00000
     46       8.5586      0.00000
     47       9.1765      0.00000
     48       9.2754      0.00000

 k-point    64 :      -0.1429    0.4286    0.4286
  band No.  band energies     occupation 
      1     -21.5522      1.00000
      2     -21.4867      1.00000
      3     -20.6502      1.00000
      4     -20.5634      1.00000
      5     -19.3575      1.00000
      6     -19.3529      1.00000
      7     -17.5001      1.00000
      8     -17.4851      1.00000
      9     -17.4016      1.00000
     10     -17.3962      1.00000
     11     -11.0969      1.00000
     12     -10.9448      1.00000
     13      -9.2778      1.00000
     14      -9.1432      1.00000
     15      -6.9673      1.00000
     16      -6.9521      1.00000
     17      -5.1018      1.00000
     18      -5.0775      1.00000
     19      -4.6419      1.00000
     20      -4.5960      1.00000
     21      -4.3456      1.00000
     22      -4.2860      1.00000
     23      -3.9733      1.00000
     24      -3.9145      1.00000
     25      -3.0313      1.00000
     26      -2.9937      1.00000
     27      -2.5464      1.00000
     28      -2.5010      1.00000
     29      -2.1233      1.00000
     30      -2.1012      1.00000
     31      -2.0256      1.00000
     32      -1.9883      1.00000
     33      -0.6991      1.00000
     34      -0.6854      1.00000
     35      -0.3363      1.00000
     36      -0.3239      1.00000
     37      -0.2790      1.00000
     38      -0.2703      1.00000
     39      -0.1535      1.00000
     40      -0.1413      1.00000
     41       7.0847      0.00000
     42       7.1893      0.00000
     43       8.1565      0.00000
     44       8.2781      0.00000
     45       8.4624      0.00000
     46       8.5319      0.00000
     47       9.1622      0.00000
     48       9.2613      0.00000


--------------------------------------------------------------------------------------------------------


 soft charge-density along one line, spin component           1
         0         1         2         3         4         5         6         7         8         9
 total charge-density along one line
 
 soft charge-density along one line, spin component           2
         0         1         2         3         4         5         6         7         8         9
 total charge-density along one line
 
 pseudopotential strength for first ion, spin component:           1
 29.809  37.187   0.036   0.017  -0.061   0.056   0.026  -0.095
 37.187  46.394   0.045   0.021  -0.076   0.070   0.032  -0.118
  0.036   0.045   6.558   0.000  -0.001  10.142   0.001  -0.002
  0.017   0.021   0.000   6.557  -0.001   0.001  10.141  -0.002
 -0.061  -0.076  -0.001  -0.001   6.561  -0.002  -0.002  10.147
  0.056   0.070  10.142   0.001  -0.002  15.703   0.001  -0.003
  0.026   0.032   0.001  10.141  -0.002   0.001  15.703  -0.003
 -0.095  -0.118  -0.002  -0.002  10.147  -0.003  -0.003  15.711
 pseudopotential strength for first ion, spin component:           2
 29.809  37.187   0.036   0.017  -0.061   0.056   0.026  -0.095
 37.187  46.394   0.045   0.021  -0.076   0.070   0.032  -0.118
  0.036   0.045   6.558   0.000  -0.001  10.142   0.001  -0.002
  0.017   0.021   0.000   6.557  -0.001   0.001  10.141  -0.002
 -0.061  -0.076  -0.001  -0.001   6.561  -0.002  -0.002  10.147
  0.056   0.070  10.142   0.001  -0.002  15.703   0.001  -0.003
  0.026   0.032   0.001  10.141  -0.002   0.001  15.703  -0.003
 -0.095  -0.118  -0.002  -0.002  10.147  -0.003  -0.003  15.711
 total augmentation occupancy for first ion, spin component:           1
 23.511 -15.604  -0.484  -0.269   0.554   0.388   0.201  -0.515
-15.604  10.827   0.237   0.142  -0.201  -0.256  -0.134   0.329
 -0.484   0.237   7.334   0.344  -1.267  -3.054  -0.179   0.620
 -0.269   0.142   0.344   6.685  -0.596  -0.179  -2.736   0.293
  0.554  -0.201  -1.267  -0.596   9.174   0.620   0.293  -3.974
  0.388  -0.256  -3.054  -0.179   0.620   1.338   0.089  -0.312
  0.201  -0.134  -0.179  -2.736   0.293   0.089   1.179  -0.147
 -0.515   0.329   0.620   0.293  -3.974  -0.312  -0.147   1.801
 total augmentation occupancy for first ion, spin component:           2
  0.000  -0.000  -0.000  -0.000  -0.000   0.000   0.000   0.000
 -0.000   0.000   0.000   0.000  -0.000  -0.000  -0.000  -0.000
 -0.000   0.000   0.000   0.000  -0.000  -0.000  -0.000  -0.000
 -0.000   0.000   0.000  -0.000  -0.000  -0.000   0.000   0.000
 -0.000  -0.000  -0.000  -0.000   0.000  -0.000   0.000  -0.000
  0.000  -0.000  -0.000  -0.000  -0.000   0.000   0.000   0.000
  0.000  -0.000  -0.000   0.000   0.000   0.000   0.000  -0.000
  0.000  -0.000  -0.000   0.000  -0.000   0.000  -0.000   0.000


------------------------ aborting loop because EDIFF is reached ----------------------------------------


 


 total charge     
 
# of ion       s       p       d       tot
------------------------------------------
    1        0.904   1.466   0.000   2.370
    2        0.910   1.472   0.000   2.382
    3        0.910   1.472   0.000   2.382
    4        0.904   1.466   0.000   2.370
    5        1.595   3.528   0.000   5.123
    6        1.592   3.526   0.000   5.119
    7        1.592   3.527   0.000   5.119
    8        1.595   3.528   0.000   5.123
    9        1.566   3.647   0.000   5.213
   10        1.566   3.647   0.000   5.213
   11        1.554   3.691   0.000   5.245
   12        1.561   3.649   0.000   5.210
   13        1.561   3.650   0.000   5.211
   14        1.554   3.692   0.000   5.245
--------------------------------------------------
tot         19.364  41.961   0.000  61.325
 


 magnetization (x)
 
# of ion       s       p       d       tot
------------------------------------------
    1        0.000   0.000   0.000   0.000
    2       -0.000   0.000   0.000   0.000
    3       -0.000   0.000   0.000   0.000
    4       -0.000  -0.000   0.000  -0.000
    5        0.000  -0.000   0.000  -0.000
    6        0.000  -0.000   0.000  -0.000
    7       -0.000   0.000   0.000   0.000
    8        0.000   0.000   0.000   0.000
    9       -0.000   0.000   0.000   0.000
   10        0.000  -0.000   0.000  -0.000
   11       -0.000   0.000   0.000   0.000
   12       -0.000   0.000   0.000   0.000
   13       -0.000  -0.000   0.000  -0.000
   14        0.000   0.000   0.000   0.000
--------------------------------------------------
tot         -0.000   0.000   0.000   0.000
 
    CHARGE:  cpu time    0.6076: real time    1.8206
    FORLOC:  cpu time    0.0066: real time    0.0224
    FORNL :  cpu time    3.1719: real time    9.5207
    STRESS:  cpu time    9.5539: real time   28.6678
    FORCOR:  cpu time    0.0889: real time    0.2669
    FORHAR:  cpu time    0.0130: real time    0.0402
    MIXING:  cpu time    0.0032: real time    0.0109
    OFIELD:  cpu time    0.0001: real time    0.0001

  FORCE on cell =-STRESS in cart. coord.  units (eV):
  Direction    XX          YY          ZZ          XY          YZ          ZX
  --------------------------------------------------------------------------------------
  Alpha Z   132.66140   132.66140   132.66140
  Ewald   -1137.06816  -961.13907  -894.51633     0.00451     0.00151     0.00222
  Hartree   475.53671   716.76819   783.77333    -0.00026    -0.00015    -0.00024
  E(xc)    -375.59411  -375.60209  -375.60673     0.00002    -0.00002    -0.00001
  Local    -613.53694 -1048.64989 -1180.27479    -0.00307    -0.00138    -0.00220
  n-local   -39.21452   -53.89588   -59.29362    -0.34823     0.01911    -0.02393
  augment    29.91315    31.62007    31.76375    -0.00026    -0.00025    -0.00004
  Kinetic  1527.28672  1558.20816  1561.47315     2.29145    -0.13153     0.04259
  Fock        0.00000     0.00000     0.00000     0.00000     0.00000     0.00000
  -------------------------------------------------------------------------------------
  Total      -0.01575    -0.02912    -0.01983     0.00000     0.00000     0.00000
  in kB      -0.13417    -0.24810    -0.16901     0.00000     0.00000     0.00000
  external pressure =       -0.18 kB  Pullay stress =        0.00 kB


 VOLUME and BASIS-vectors are now :
 -----------------------------------------------------------------------------
  energy-cutoff  :      520.00
  volume of cell :      188.03
      direct lattice vectors                 reciprocal lattice vectors
     0.000000000  4.083854313  8.294641290    -0.180155693  0.122433359  0.060279882
     2.775377185  0.000000000  8.294641290     0.180155693 -0.122433359  0.060279882
     2.775377185  4.083854313  0.000000000     0.180155693  0.122433359 -0.060279882

  length of vectors
     9.245482150  8.746644651  4.937669954     0.226008109  0.226008109  0.226008109


 FORCES acting on ions
    electron-ion (+dipol)            ewald-force                    non-local-force                 convergence-correction
 -----------------------------------------------------------------------------------------------
   -.603E+00 0.125E+02 -.117E+02   0.166E+02 -.220E+02 0.717E+01   -.160E+02 0.951E+01 0.450E+01   -.722E-03 0.101E-02 -.293E-03
   -.603E+00 -.125E+02 0.117E+02   0.166E+02 0.220E+02 -.717E+01   -.160E+02 -.951E+01 -.450E+01   -.722E-03 -.101E-02 0.301E-03
   -.603E+00 -.125E+02 -.117E+02   0.166E+02 0.220E+02 0.717E+01   -.160E+02 -.951E+01 0.450E+01   -.722E-03 -.101E-02 -.301E-03
   -.603E+00 0.125E+02 0.117E+02   0.166E+02 -.220E+02 -.717E+01   -.160E+02 0.951E+01 -.450E+01   -.722E-03 0.101E-02 0.293E-03
   -.159E+03 0.852E+02 0.265E+02   0.202E+03 -.111E+03 -.361E+02   -.427E+02 0.256E+02 0.954E+01   -.719E-02 0.549E-03 0.224E-03
   -.159E+03 -.852E+02 -.265E+02   0.202E+03 0.111E+03 0.361E+02   -.427E+02 -.256E+02 -.954E+01   -.719E-02 -.549E-03 -.209E-03
   -.159E+03 -.852E+02 0.265E+02   0.202E+03 0.111E+03 -.361E+02   -.427E+02 -.256E+02 0.954E+01   -.719E-02 -.549E-03 0.209E-03
   -.159E+03 0.852E+02 -.265E+02   0.202E+03 -.111E+03 0.361E+02   -.427E+02 0.256E+02 -.954E+01   -.719E-02 0.549E-03 -.224E-03
   0.163E+03 0.812E-03 0.942E-03   -.201E+03 -.585E-03 -.907E-03   0.381E+02 0.000E+00 0.000E+00   0.525E-02 -.732E-07 -.103E-04
   0.163E+03 -.403E-04 -.123E-03   -.201E+03 -.936E-03 0.158E-03   0.381E+02 0.000E+00 0.000E+00   0.525E-02 -.131E-07 0.105E-04
   0.887E+02 -.339E+02 -.398E+02   -.118E+03 0.457E+02 0.474E+02   0.290E+02 -.118E+02 -.758E+01   0.248E-02 -.451E-03 -.254E-02
   0.887E+02 0.339E+02 0.398E+02   -.118E+03 -.457E+02 -.474E+02   0.290E+02 0.118E+02 0.758E+01   0.248E-02 0.451E-03 0.254E-02
   0.887E+02 0.339E+02 -.398E+02   -.118E+03 -.457E+02 0.474E+02   0.290E+02 0.118E+02 -.758E+01   0.248E-02 0.450E-03 -.253E-02
   0.887E+02 -.339E+02 0.398E+02   -.118E+03 0.457E+02 -.474E+02   0.290E+02 -.118E+02 0.758E+01   0.248E-02 -.451E-03 0.254E-02
 -----------------------------------------------------------------------------------------------
   0.425E+02 0.306E-02 0.688E-02   -.426E-13 -.142E-13 -.142E-13   -.425E+02 0.888E-14 -.533E-14   -.112E-01 -.989E-07 0.254E-06
 
 
 POSITION                                       TOTAL-FORCE (eV/Angst)
 -----------------------------------------------------------------------------------
      2.20787      3.45612      9.55659         0.002638     -0.002383     -0.001705
      2.20787      4.71159      7.03270         0.002638      0.002383      0.001705
      3.59556      2.66966      5.40926         0.002638      0.002383     -0.001705
      3.59556      5.49804     11.18001         0.002638     -0.002383      0.001705
      3.43396      2.72310      9.26301        -0.009329     -0.000607      0.003079
      3.43396      5.44461      7.32627        -0.009329      0.000607     -0.003079
      4.82165      7.48653     13.41033        -0.009329      0.000607      0.003079
      4.82165      4.76503     11.47360        -0.009329     -0.000607     -0.003079
      2.82665      6.12578     12.44196         0.006205      0.000000      0.000000
      1.43896      4.08385      8.29464         0.006205     -0.000000      0.000000
      2.36448      4.73093     10.52609         0.003588      0.002492     -0.001436
      2.36448      3.43677      6.06320         0.003588     -0.002492      0.001436
      3.75217      5.47870     14.67341         0.003588     -0.002492     -0.001436
      3.75217      6.77286     10.21052         0.003588      0.002492      0.001436
 -----------------------------------------------------------------------------------
    total drift:                                0.003507      0.003060      0.006884


--------------------------------------------------------------------------------------------------------



  FREE ENERGIE OF THE ION-ELECTRON SYSTEM (eV)
  ---------------------------------------------------
  free  energy   TOTEN  =       -98.40011001 eV

  energy  without entropy=      -98.40011001  energy(sigma->0) =      -98.40011001
 
 d Force = 0.5938902E-05[-0.634E-06, 0.125E-04]  d Energy = 0.2878070E-04-0.228E-04
 d Force =-0.2083780E+00[-0.208E+00,-0.208E+00]  d Ewald  = 0.2153631E+00-0.424E+00


--------------------------------------------------------------------------------------------------------


    POTLOK:  cpu time    0.3288: real time    0.9894


--------------------------------------------------------------------------------------------------------




--------------------------------------------------------------------------------------------------------


  
 reached required accuracy - stopping structural energy minimisation
     LOOP+:  cpu time   54.3190: real time  163.0561
    4ORBIT:  cpu time    0.0000: real time    0.0000
 


 total charge     
 
# of ion       s       p       d       tot
------------------------------------------
    1        0.904   1.466   0.000   2.370
    2        0.910   1.472   0.000   2.382
    3        0.910   1.472   0.000   2.382
    4        0.904   1.466   0.000   2.370
    5        1.595   3.528   0.000   5.123
    6        1.592   3.526   0.000   5.119
    7        1.592   3.527   0.000   5.119
    8        1.595   3.528   0.000   5.123
    9        1.566   3.647   0.000   5.213
   10        1.566   3.647   0.000   5.213
   11        1.554   3.691   0.000   5.245
   12        1.561   3.649   0.000   5.210
   13        1.561   3.650   0.000   5.211
   14        1.554   3.692   0.000   5.245
--------------------------------------------------
tot         19.364  41.961   0.000  61.325
 


 magnetization (x)
 
# of ion       s       p       d       tot
------------------------------------------
    1        0.000   0.000   0.000   0.000
    2       -0.000   0.000   0.000   0.000
    3       -0.000   0.000   0.000   0.000
    4       -0.000  -0.000   0.000  -0.000
    5        0.000  -0.000   0.000  -0.000
    6        0.000  -0.000   0.000  -0.000
    7       -0.000   0.000   0.000   0.000
    8        0.000   0.000   0.000   0.000
    9       -0.000   0.000   0.000   0.000
   10        0.000  -0.000   0.000  -0.000
   11       -0.000   0.000   0.000   0.000
   12       -0.000   0.000   0.000   0.000
   13       -0.000  -0.000   0.000  -0.000
   14        0.000   0.000   0.000   0.000
--------------------------------------------------
tot         -0.000   0.000   0.000   0.000
 
 BZINTS: Fermi energy: -0.069470; 80.000000 electrons
         Band energy:-609.430278;  BLOECHL correction:  0.000000

 total amount of memory used by VASP MPI-rank0    66112. kBytes
=======================================================================

   base      :      30000. kBytes
   nonlr-proj:       3080. kBytes
   fftplans  :       3288. kBytes
   grid      :       8198. kBytes
   one-center:         18. kBytes
   wavefun   :      21528. kBytes
 
  
  
 General timing and accounting informations for this job:
 ========================================================
  
                  Total CPU time used (sec):      311.317
                            User time (sec):      301.894
                          System time (sec):        9.423
                         Elapsed time (sec):      796.239
  
                   Maximum memory used (kb):      140288.
                   Average memory used (kb):           0.
  
                          Minor page faults:       111101
                          Major page faults:            0
                 Voluntary context switches:        44734
