    8    8    1    2
  0.1411666E+02  0.4066424E-09  0.4235858E-09  0.7570718E-09  0.5000000E-15
  1.000000000000000E-004
  CAR 
 unknown system                          
     28    123     22
 
  0.0000000E+00  0.0000000E+00  0.0000000E+00  0.3086420E-02
    1      -42.677837    -42.677490   1.000000   1.000000
    2      -42.651884    -42.651535   1.000000   1.000000
    3      -42.643251    -42.642902   1.000000   1.000000
    4      -42.617967    -42.617616   1.000000   1.000000
    5      -42.223678    -42.223145   1.000000   1.000000
    6      -42.223482    -42.222948   1.000000   1.000000
    7       -6.583730     -6.583889   1.000000   1.000000
    8       -6.204517     -6.204649   1.000000   1.000000
    9       -0.625652     -0.625727   1.000000   1.000000
   10        2.130790      2.130708   1.000000   1.000000
   11        2.355035      2.354923   1.000000   1.000000
   12        2.534378      2.534248   1.000000   1.000000
   13        2.757545      2.757491   1.000000   1.000000
   14        2.928675      2.928600   1.000000   1.000000
   15        5.175447      5.175306   0.000000   0.000000
   16        6.605653      6.605567   0.000000   0.000000
   17        6.631387      6.631084   0.000000   0.000000
   18        6.940663      6.940534   0.000000   0.000000
   19        7.104947      7.104873   0.000000   0.000000
   20        7.407223      7.407151   0.000000   0.000000
   21        7.557086      7.556752   0.000000   0.000000
   22        8.412884      8.416149   0.000000   0.000000
 
  0.1111111E+00 -0.9803313E-17  0.0000000E+00  0.6172840E-02
    1      -42.676619    -42.676271   1.000000   1.000000
    2      -42.650893    -42.650544   1.000000   1.000000
    3      -42.644076    -42.643727   1.000000   1.000000
    4      -42.618863    -42.618512   1.000000   1.000000
    5      -42.223796    -42.223263   1.000000   1.000000
    6      -42.223576    -42.223042   1.000000   1.000000
    7       -6.528213     -6.528372   1.000000   1.000000
    8       -6.163170     -6.163174   1.000000   1.000000
    9       -0.529733     -0.529809   1.000000   1.000000
   10        2.008901      2.008804   1.000000   1.000000
   11        2.089144      2.089061   1.000000   1.000000
   12        2.125459      2.125374   1.000000   1.000000
   13        2.452246      2.452150   1.000000   1.000000
   14        2.666903      2.666842   1.000000   1.000000
   15        5.290010      5.289867   0.000000   0.000000
   16        6.559281      6.559948   0.000000   0.000000
   17        6.853323      6.853110   0.000000   0.000000
   18        7.150376      7.150334   0.000000   0.000000
   19        7.550331      7.550696   0.000000   0.000000
   20        7.946120      7.932296   0.000000   0.000000
   21        8.049553      8.050949   0.000000   0.000000
   22        8.197376      8.107291   0.000000   0.000000
 
  0.2222222E+00 -0.3152839E-16  0.0000000E+00  0.6172840E-02
    1      -42.673312    -42.672965   1.000000   1.000000
    2      -42.648027    -42.647677   1.000000   1.000000
    3      -42.646426    -42.646077   1.000000   1.000000
    4      -42.621550    -42.621199   1.000000   1.000000
    5      -42.224118    -42.223584   1.000000   1.000000
    6      -42.223843    -42.223309   1.000000   1.000000
    7       -6.375050     -6.375213   1.000000   1.000000
    8       -6.055260     -6.055412   1.000000   1.000000
    9       -0.245770     -0.245851   1.000000   1.000000
   10        1.049600      1.049501   1.000000   1.000000
   11        1.564949      1.564868   1.000000   1.000000
   12        1.589987      1.589883   1.000000   1.000000
   13        2.076932      2.076841   1.000000   1.000000
   14        2.326585      2.326525   1.000000   1.000000
   15        5.378500      5.378332   0.000000   0.000000
   16        6.481636      6.477808   0.000000   0.000000
   17        6.731730      6.731479   0.000000   0.000000
   18        7.046135      7.045921   0.000000   0.000000
   19        7.364149      7.363889   0.000000   0.000000
   20        8.285440      8.285777   0.000000   0.000000
   21        8.659690      8.659740   0.000000   0.000000
   22        8.837255      9.059895   0.000000   0.000000
 
  0.3333333E+00 -0.2704477E-16  0.0000000E+00  0.6172840E-02
    1      -42.668507    -42.668160   1.000000   1.000000
    2      -42.650037    -42.649689   1.000000   1.000000
    3      -42.643792    -42.643442   1.000000   1.000000
    4      -42.625575    -42.625224   1.000000   1.000000
    5      -42.224452    -42.223918   1.000000   1.000000
    6      -42.224119    -42.223585   1.000000   1.000000
    7       -6.168948     -6.169118   1.000000   1.000000
    8       -5.931407     -5.931585   1.000000   1.000000
    9        0.182874      0.182786   1.000000   1.000000
   10        0.209169      0.209081   1.000000   1.000000
   11        0.791347      0.791230   1.000000   1.000000
   12        1.153207      1.153135   1.000000   1.000000
   13        1.884246      1.884145   1.000000   1.000000
   14        1.990283      1.990228   1.000000   1.000000
   15        5.380350      5.379937   0.000000   0.000000
   16        5.453145      5.452949   0.000000   0.000000
   17        6.833068      6.832898   0.000000   0.000000
   18        6.871856      6.871620   0.000000   0.000000
   19        7.428453      7.428249   0.000000   0.000000
   20        8.685801      8.685662   0.000000   0.000000
   21        9.748424      9.759954   0.000000   0.000000
   22        9.989043      9.973445   0.000000   0.000000
 
  0.4444444E+00 -0.6305679E-16  0.0000000E+00  0.6172840E-02
    1      -42.663692    -42.663344   1.000000   1.000000
    2      -42.654046    -42.653697   1.000000   1.000000
    3      -42.639361    -42.639011   1.000000   1.000000
    4      -42.629858    -42.629508   1.000000   1.000000
    5      -42.224665    -42.224131   1.000000   1.000000
    6      -42.224291    -42.223757   1.000000   1.000000
    7       -5.996506     -5.996682   1.000000   1.000000
    8       -5.864502     -5.864683   1.000000   1.000000
    9       -0.315018     -0.315098   1.000000   1.000000
   10        0.327278      0.327160   1.000000   1.000000
   11        0.773777      0.773677   1.000000   1.000000
   12        0.929837      0.929768   1.000000   1.000000
   13        1.464132      1.464034   1.000000   1.000000
   14        1.797697      1.797644   1.000000   1.000000
   15        4.835635      4.835500   0.000000   0.000000
   16        5.516649      5.516439   0.000000   0.000000
   17        6.558861      6.558695   0.000000   0.000000
   18        6.950892      6.950665   0.000000   0.000000
   19        7.812658      7.812436   0.000000   0.000000
   20        8.560552      8.560464   0.000000   0.000000
   21        9.294272      9.294142   0.000000   0.000000
   22       10.897085     10.898326   0.000000   0.000000
 
  0.1097278E-17  0.1111111E+00  0.0000000E+00  0.6172840E-02
    1      -42.676813    -42.676466   1.000000   1.000000
    2      -42.651047    -42.650698   1.000000   1.000000
    3      -42.643940    -42.643591   1.000000   1.000000
    4      -42.618781    -42.618430   1.000000   1.000000
    5      -42.223784    -42.223250   1.000000   1.000000
    6      -42.223592    -42.223058   1.000000   1.000000
    7       -6.535316     -6.535475   1.000000   1.000000
    8       -6.170582     -6.170707   1.000000   1.000000
    9       -0.537431     -0.537507   1.000000   1.000000
   10        1.837234      1.837124   1.000000   1.000000
   11        2.114976      2.114892   1.000000   1.000000
   12        2.284673      2.284567   1.000000   1.000000
   13        2.329566      2.329469   1.000000   1.000000
   14        2.836003      2.835922   1.000000   1.000000
   15        5.341083      5.340942   0.000000   0.000000
   16        6.683781      6.683635   0.000000   0.000000
   17        7.150279      7.150177   0.000000   0.000000
   18        7.314579      7.314646   0.000000   0.000000
   19        7.457161      7.456982   0.000000   0.000000
   20        7.509434      7.508415   0.000000   0.000000
   21        7.783438      7.783857   0.000000   0.000000
   22        7.930978      7.993226   0.000000   0.000000
 
  0.1111111E+00  0.1111111E+00  0.0000000E+00  0.6172840E-02
    1      -42.674665    -42.674317   1.000000   1.000000
    2      -42.649184    -42.648835   1.000000   1.000000
    3      -42.645417    -42.645068   1.000000   1.000000
    4      -42.620485    -42.620134   1.000000   1.000000
    5      -42.224002    -42.223468   1.000000   1.000000
    6      -42.223733    -42.223199   1.000000   1.000000
    7       -6.434333     -6.434494   1.000000   1.000000
    8       -6.099343     -6.099499   1.000000   1.000000
    9       -0.351286     -0.351365   1.000000   1.000000
   10        1.314782      1.314671   1.000000   1.000000
   11        1.530626      1.530533   1.000000   1.000000
   12        2.012005      2.011894   1.000000   1.000000
   13        2.084188      2.084099   1.000000   1.000000
   14        2.476028      2.475976   1.000000   1.000000
   15        5.506748      5.506599   0.000000   0.000000
   16        6.605437      6.603582   0.000000   0.000000
   17        7.009073      7.008826   0.000000   0.000000
   18        7.105406      7.105221   0.000000   0.000000
   19        7.747834      7.748384   0.000000   0.000000
   20        7.815055      7.814277   0.000000   0.000000
   21        8.036214      8.038031   0.000000   0.000000
   22        8.844536      8.875671   0.000000   0.000000
 
  0.2222222E+00  0.1111111E+00  0.0000000E+00  0.6172840E-02
    1      -42.670639    -42.670292   1.000000   1.000000
    2      -42.648373    -42.648024   1.000000   1.000000
    3      -42.645705    -42.645355   1.000000   1.000000
    4      -42.623786    -42.623435   1.000000   1.000000
    5      -42.224315    -42.223781   1.000000   1.000000
    6      -42.224035    -42.223501   1.000000   1.000000
    7       -6.254867     -6.255032   1.000000   1.000000
    8       -5.983250     -5.983425   1.000000   1.000000
    9        0.015810      0.015725   1.000000   1.000000
   10        0.610717      0.610619   1.000000   1.000000
   11        0.832179      0.832077   1.000000   1.000000
   12        1.363833      1.363728   1.000000   1.000000
   13        1.983514      1.983415   1.000000   1.000000
   14        2.029054      2.029003   1.000000   1.000000
   15        5.449787      5.449799   0.000000   0.000000
   16        5.733412      5.733235   0.000000   0.000000
   17        7.223281      7.223041   0.000000   0.000000
   18        7.336838      7.336684   0.000000   0.000000
   19        7.380482      7.380271   0.000000   0.000000
   20        8.793119      8.793163   0.000000   0.000000
   21        8.973610      8.973539   0.000000   0.000000
   22        9.127881      9.127423   0.000000   0.000000
 
  0.3333333E+00  0.1111111E+00  0.0000000E+00  0.6172840E-02
    1      -42.665615    -42.665267   1.000000   1.000000
    2      -42.652358    -42.652009   1.000000   1.000000
    3      -42.641172    -42.640822   1.000000   1.000000
    4      -42.628117    -42.627767   1.000000   1.000000
    5      -42.224591    -42.224057   1.000000   1.000000
    6      -42.224244    -42.223710   1.000000   1.000000
    7       -6.058056     -6.058229   1.000000   1.000000
    8       -5.884115     -5.884295   1.000000   1.000000
    9       -0.068930     -0.069015   1.000000   1.000000
   10        0.440544      0.440420   1.000000   1.000000
   11        0.531537      0.531443   1.000000   1.000000
   12        0.854165      0.854084   1.000000   1.000000
   13        1.712924      1.712821   1.000000   1.000000
   14        1.735184      1.735135   1.000000   1.000000
   15        4.610552      4.610516   0.000000   0.000000
   16        5.897006      5.896810   0.000000   0.000000
   17        7.103392      7.103243   0.000000   0.000000
   18        7.332687      7.332456   0.000000   0.000000
   19        7.737462      7.737247   0.000000   0.000000
   20        8.747436      8.747319   0.000000   0.000000
   21        9.566729      9.566814   0.000000   0.000000
   22       10.058317     10.064973   0.000000   0.000000
 
  0.4444444E+00  0.1111111E+00  0.0000000E+00  0.6172840E-02
    1      -42.661986    -42.661638   1.000000   1.000000
    2      -42.655539    -42.655190   1.000000   1.000000
    3      -42.637802    -42.637453   1.000000   1.000000
    4      -42.631424    -42.631074   1.000000   1.000000
    5      -42.224700    -42.224165   1.000000   1.000000
    6      -42.224338    -42.223803   1.000000   1.000000
    7       -5.951234     -5.951411   1.000000   1.000000
    8       -5.856365     -5.856545   1.000000   1.000000
    9       -0.330334     -0.330412   1.000000   1.000000
   10        0.257407      0.257283   1.000000   1.000000
   11        0.702751      0.702673   1.000000   1.000000
   12        1.008338      1.008229   1.000000   1.000000
   13        1.328551      1.328459   1.000000   1.000000
   14        1.634614      1.634564   1.000000   1.000000
   15        4.330230      4.330196   0.000000   0.000000
   16        5.955200      5.954994   0.000000   0.000000
   17        7.026166      7.026023   0.000000   0.000000
   18        7.354294      7.354065   0.000000   0.000000
   19        7.957404      7.957249   0.000000   0.000000
   20        8.584274      8.584190   0.000000   0.000000
   21        9.216817      9.216260   0.000000   0.000000
   22       10.505768     10.485240   0.000000   0.000000
 
 -0.4444444E+00  0.1111111E+00  0.0000000E+00  0.6172840E-02
    1      -42.665206    -42.664859   1.000000   1.000000
    2      -42.652710    -42.652361   1.000000   1.000000
    3      -42.640753    -42.640403   1.000000   1.000000
    4      -42.628460    -42.628109   1.000000   1.000000
    5      -42.224592    -42.224058   1.000000   1.000000
    6      -42.224227    -42.223693   1.000000   1.000000
    7       -6.046965     -6.047139   1.000000   1.000000
    8       -5.875763     -5.875943   1.000000   1.000000
    9       -0.095492     -0.095573   1.000000   1.000000
   10        0.414023      0.413914   1.000000   1.000000
   11        0.554517      0.554422   1.000000   1.000000
   12        0.876113      0.876023   1.000000   1.000000
   13        1.702170      1.702070   1.000000   1.000000
   14        1.735864      1.735812   1.000000   1.000000
   15        4.641130      4.641085   0.000000   0.000000
   16        5.879947      5.879748   0.000000   0.000000
   17        7.063390      7.063245   0.000000   0.000000
   18        7.277207      7.276974   0.000000   0.000000
   19        7.689407      7.689189   0.000000   0.000000
   20        8.703433      8.703290   0.000000   0.000000
   21        9.463376      9.471792   0.000000   0.000000
   22        9.888886      9.976736   0.000000   0.000000
 
 -0.3333333E+00  0.1111111E+00  0.0000000E+00  0.6172840E-02
    1      -42.670241    -42.669894   1.000000   1.000000
    2      -42.648662    -42.648313   1.000000   1.000000
    3      -42.645332    -42.644983   1.000000   1.000000
    4      -42.624099    -42.623748   1.000000   1.000000
    5      -42.224335    -42.223801   1.000000   1.000000
    6      -42.224019    -42.223485   1.000000   1.000000
    7       -6.240935     -6.241102   1.000000   1.000000
    8       -5.970230     -5.970407   1.000000   1.000000
    9        0.034436      0.034351   1.000000   1.000000
   10        0.569199      0.569108   1.000000   1.000000
   11        0.838724      0.838634   1.000000   1.000000
   12        1.362684      1.362575   1.000000   1.000000
   13        1.990439      1.990344   1.000000   1.000000
   14        2.015327      2.015270   1.000000   1.000000
   15        5.510103      5.510336   0.000000   0.000000
   16        5.704810      5.704633   0.000000   0.000000
   17        7.092044      7.091798   0.000000   0.000000
   18        7.209581      7.209366   0.000000   0.000000
   19        7.288283      7.288134   0.000000   0.000000
   20        8.630620      8.630504   0.000000   0.000000
   21        8.815698      8.815066   0.000000   0.000000
   22        8.948711      8.948595   0.000000   0.000000
 
 -0.2222222E+00  0.1111111E+00  0.0000000E+00  0.6172840E-02
    1      -42.674369    -42.674022   1.000000   1.000000
    2      -42.648950    -42.648601   1.000000   1.000000
    3      -42.645635    -42.645286   1.000000   1.000000
    4      -42.620672    -42.620321   1.000000   1.000000
    5      -42.224003    -42.223469   1.000000   1.000000
    6      -42.223760    -42.223227   1.000000   1.000000
    7       -6.423709     -6.423871   1.000000   1.000000
    8       -6.088519     -6.088679   1.000000   1.000000
    9       -0.339519     -0.339597   1.000000   1.000000
   10        1.374542      1.374439   1.000000   1.000000
   11        1.499218      1.499132   1.000000   1.000000
   12        1.995668      1.995558   1.000000   1.000000
   13        2.097794      2.097706   1.000000   1.000000
   14        2.404019      2.403951   1.000000   1.000000
   15        5.463341      5.463188   0.000000   0.000000
   16        6.744093      6.743386   0.000000   0.000000
   17        6.810080      6.809834   0.000000   0.000000
   18        6.824232      6.824030   0.000000   0.000000
   19        7.761279      7.760994   0.000000   0.000000
   20        7.779988      7.779888   0.000000   0.000000
   21        8.026407      8.026422   0.000000   0.000000
   22        8.684426      8.846667   0.000000   0.000000
 
 -0.1111111E+00  0.1111111E+00  0.0000000E+00  0.6172840E-02
    1      -42.676731    -42.676383   1.000000   1.000000
    2      -42.650936    -42.650587   1.000000   1.000000
    3      -42.643981    -42.643632   1.000000   1.000000
    4      -42.618816    -42.618465   1.000000   1.000000
    5      -42.223760    -42.223227   1.000000   1.000000
    6      -42.223578    -42.223044   1.000000   1.000000
    7       -6.531458     -6.531618   1.000000   1.000000
    8       -6.166465     -6.166502   1.000000   1.000000
    9       -0.533355     -0.533431   1.000000   1.000000
   10        1.931303      1.931207   1.000000   1.000000
   11        2.121296      2.121211   1.000000   1.000000
   12        2.171143      2.171042   1.000000   1.000000
   13        2.402654      2.402559   1.000000   1.000000
   14        2.742477      2.742403   1.000000   1.000000
   15        5.314149      5.314010   0.000000   0.000000
   16        6.597002      6.597857   0.000000   0.000000
   17        6.904198      6.904449   0.000000   0.000000
   18        7.262381      7.263464   0.000000   0.000000
   19        7.599540      7.598593   0.000000   0.000000
   20        7.719887      7.715938   0.000000   0.000000
   21        7.911001      7.909077   0.000000   0.000000
   22        8.115411      8.167831   0.000000   0.000000
 
  0.2166162E-17  0.2222222E+00  0.0000000E+00  0.6172840E-02
    1      -42.674038    -42.673690   1.000000   1.000000
    2      -42.648678    -42.648329   1.000000   1.000000
    3      -42.645880    -42.645531   1.000000   1.000000
    4      -42.621050    -42.620699   1.000000   1.000000
    5      -42.224068    -42.223535   1.000000   1.000000
    6      -42.223848    -42.223314   1.000000   1.000000
    7       -6.402240     -6.402402   1.000000   1.000000
    8       -6.083334     -6.083489   1.000000   1.000000
    9       -0.276380     -0.276460   1.000000   1.000000
   10        0.889937      0.889829   1.000000   1.000000
   11        1.480049      1.479932   1.000000   1.000000
   12        1.859992      1.859889   1.000000   1.000000
   13        2.031642      2.031550   1.000000   1.000000
   14        2.570269      2.570187   1.000000   1.000000
   15        5.523762      5.523597   0.000000   0.000000
   16        6.247779      6.248038   0.000000   0.000000
   17        7.119857      7.119725   0.000000   0.000000
   18        7.227400      7.227136   0.000000   0.000000
   19        7.770993      7.770346   0.000000   0.000000
   20        8.363615      8.363131   0.000000   0.000000
   21        8.574287      8.572064   0.000000   0.000000
   22        8.834160      8.828787   0.000000   0.000000
 
  0.1111111E+00  0.2222222E+00  0.0000000E+00  0.6172840E-02
    1      -42.671255    -42.670907   1.000000   1.000000
    2      -42.647912    -42.647564   1.000000   1.000000
    3      -42.646271    -42.645921   1.000000   1.000000
    4      -42.623321    -42.622970   1.000000   1.000000
    5      -42.224313    -42.223779   1.000000   1.000000
    6      -42.224017    -42.223483   1.000000   1.000000
    7       -6.275473     -6.275638   1.000000   1.000000
    8       -6.004766     -6.004940   1.000000   1.000000
    9       -0.007381     -0.007465   1.000000   1.000000
   10        0.452806      0.452701   1.000000   1.000000
   11        0.906987      0.906872   1.000000   1.000000
   12        1.485495      1.485390   1.000000   1.000000
   13        1.938130      1.938034   1.000000   1.000000
   14        2.200307      2.200238   1.000000   1.000000
   15        5.448728      5.448439   0.000000   0.000000
   16        5.872821      5.872667   0.000000   0.000000
   17        7.412622      7.412462   0.000000   0.000000
   18        7.526645      7.526483   0.000000   0.000000
   19        7.531414      7.531240   0.000000   0.000000
   20        8.530864      8.530720   0.000000   0.000000
   21        8.802752      8.802618   0.000000   0.000000
   22        8.959241      8.959789   0.000000   0.000000
 
  0.2222222E+00  0.2222222E+00  0.0000000E+00  0.6172840E-02
    1      -42.667029    -42.666682   1.000000   1.000000
    2      -42.651238    -42.650889   1.000000   1.000000
    3      -42.642471    -42.642121   1.000000   1.000000
    4      -42.626899    -42.626549   1.000000   1.000000
    5      -42.224552    -42.224018   1.000000   1.000000
    6      -42.224231    -42.223697   1.000000   1.000000
    7       -6.101419     -6.101589   1.000000   1.000000
    8       -5.911044     -5.911222   1.000000   1.000000
    9        0.176459      0.176370   1.000000   1.000000
   10        0.313201      0.313080   1.000000   1.000000
   11        0.424308      0.424216   1.000000   1.000000
   12        0.910535      0.910422   1.000000   1.000000
   13        1.714085      1.714038   1.000000   1.000000
   14        1.791137      1.791032   1.000000   1.000000
   15        4.452240      4.452191   0.000000   0.000000
   16        6.489790      6.489615   0.000000   0.000000
   17        7.567896      7.567759   0.000000   0.000000
   18        7.911374      7.911143   0.000000   0.000000
   19        8.133880      8.133595   0.000000   0.000000
   20        8.769379      8.769169   0.000000   0.000000
   21        9.176025      9.175016   0.000000   0.000000
   22        9.294177      9.296974   0.000000   0.000000
 
  0.3333333E+00  0.2222222E+00  0.0000000E+00  0.6172840E-02
    1      -42.662148    -42.661801   1.000000   1.000000
    2      -42.655457    -42.655109   1.000000   1.000000
    3      -42.637932    -42.637582   1.000000   1.000000
    4      -42.631337    -42.630986   1.000000   1.000000
    5      -42.224739    -42.224205   1.000000   1.000000
    6      -42.224372    -42.223837   1.000000   1.000000
    7       -5.949047     -5.949222   1.000000   1.000000
    8       -5.859876     -5.860056   1.000000   1.000000
    9       -0.117538     -0.117613   1.000000   1.000000
   10        0.174410      0.174277   1.000000   1.000000
   11        0.428725      0.428619   1.000000   1.000000
   12        0.946569      0.946468   1.000000   1.000000
   13        1.437706      1.437666   1.000000   1.000000
   14        1.526531      1.526424   1.000000   1.000000
   15        3.785796      3.785758   0.000000   0.000000
   16        6.933311      6.933115   0.000000   0.000000
   17        7.804698      7.804559   0.000000   0.000000
   18        8.118144      8.117866   0.000000   0.000000
   19        8.388933      8.388801   0.000000   0.000000
   20        8.855436      8.854538   0.000000   0.000000
   21        9.235458      9.241193   0.000000   0.000000
   22        9.521138      9.534989   0.000000   0.000000
 
  0.4444444E+00  0.2222222E+00  0.0000000E+00  0.6172840E-02
    1      -42.661283    -42.660935   1.000000   1.000000
    2      -42.656238    -42.655890   1.000000   1.000000
    3      -42.637078    -42.636728   1.000000   1.000000
    4      -42.632181    -42.631831   1.000000   1.000000
    5      -42.224756    -42.224222   1.000000   1.000000
    6      -42.224363    -42.223829   1.000000   1.000000
    7       -5.936155     -5.936332   1.000000   1.000000
    8       -5.852438     -5.852618   1.000000   1.000000
    9       -0.142054     -0.142124   1.000000   1.000000
   10        0.160590      0.160471   1.000000   1.000000
   11        0.433053      0.432937   1.000000   1.000000
   12        0.988218      0.988114   1.000000   1.000000
   13        1.429206      1.429163   1.000000   1.000000
   14        1.503113      1.503012   1.000000   1.000000
   15        3.789004      3.788962   0.000000   0.000000
   16        6.939547      6.939351   0.000000   0.000000
   17        7.785646      7.785505   0.000000   0.000000
   18        8.045788      8.045577   0.000000   0.000000
   19        8.330652      8.330338   0.000000   0.000000
   20        8.815157      8.820706   0.000000   0.000000
   21        9.191296      9.230102   0.000000   0.000000
   22        9.383905      9.470802   0.000000   0.000000
 
 -0.4444444E+00  0.2222222E+00  0.0000000E+00  0.6172840E-02
    1      -42.666127    -42.665780   1.000000   1.000000
    2      -42.651987    -42.651639   1.000000   1.000000
    3      -42.641619    -42.641270   1.000000   1.000000
    4      -42.627726    -42.627375   1.000000   1.000000
    5      -42.224618    -42.224084   1.000000   1.000000
    6      -42.224233    -42.223699   1.000000   1.000000
    7       -6.075593     -6.075766   1.000000   1.000000
    8       -5.888737     -5.888916   1.000000   1.000000
    9        0.172250      0.172182   1.000000   1.000000
   10        0.263998      0.263884   1.000000   1.000000
   11        0.466320      0.466228   1.000000   1.000000
   12        0.891540      0.891420   1.000000   1.000000
   13        1.671250      1.671197   1.000000   1.000000
   14        1.800754      1.800655   1.000000   1.000000
   15        4.466008      4.465950   0.000000   0.000000
   16        6.465147      6.464978   0.000000   0.000000
   17        7.503322      7.503188   0.000000   0.000000
   18        7.624832      7.624592   0.000000   0.000000
   19        7.901258      7.901020   0.000000   0.000000
   20        8.725085      8.725052   0.000000   0.000000
   21        9.044728      9.044559   0.000000   0.000000
   22        9.198175      9.203753   0.000000   0.000000
 
 -0.3333333E+00  0.2222222E+00  0.0000000E+00  0.6172840E-02
    1      -42.670535    -42.670187   1.000000   1.000000
    2      -42.648445    -42.648096   1.000000   1.000000
    3      -42.645597    -42.645247   1.000000   1.000000
    4      -42.623856    -42.623505   1.000000   1.000000
    5      -42.224315    -42.223781   1.000000   1.000000
    6      -42.224022    -42.223488   1.000000   1.000000
    7       -6.250357     -6.250524   1.000000   1.000000
    8       -5.979941     -5.980118   1.000000   1.000000
    9        0.023343      0.023260   1.000000   1.000000
   10        0.494143      0.494051   1.000000   1.000000
   11        0.882034      0.881937   1.000000   1.000000
   12        1.413410      1.413299   1.000000   1.000000
   13        1.970059      1.969968   1.000000   1.000000
   14        2.095269      2.095200   1.000000   1.000000
   15        5.507724      5.508568   0.000000   0.000000
   16        5.784354      5.784200   0.000000   0.000000
   17        7.179945      7.179742   0.000000   0.000000
   18        7.222417      7.222212   0.000000   0.000000
   19        7.387808      7.387650   0.000000   0.000000
   20        8.527416      8.527284   0.000000   0.000000
   21        8.807642      8.807479   0.000000   0.000000
   22        8.808062      8.807625   0.000000   0.000000
 
 -0.2222222E+00  0.2222222E+00  0.0000000E+00  0.6172840E-02
    1      -42.673629    -42.673281   1.000000   1.000000
    2      -42.648343    -42.647994   1.000000   1.000000
    3      -42.646126    -42.645777   1.000000   1.000000
    4      -42.621303    -42.620952   1.000000   1.000000
    5      -42.224091    -42.223557   1.000000   1.000000
    6      -42.223810    -42.223276   1.000000   1.000000
    7       -6.387428     -6.387591   1.000000   1.000000
    8       -6.067818     -6.067976   1.000000   1.000000
    9       -0.260433     -0.260512   1.000000   1.000000
   10        0.975412      0.975312   1.000000   1.000000
   11        1.538914      1.538800   1.000000   1.000000
   12        1.703570      1.703476   1.000000   1.000000
   13        2.057949      2.057864   1.000000   1.000000
   14        2.436827      2.436751   1.000000   1.000000
   15        5.454896      5.454761   0.000000   0.000000
   16        6.359851      6.358561   0.000000   0.000000
   17        6.894177      6.893997   0.000000   0.000000
   18        7.091993      7.091830   0.000000   0.000000
   19        7.555823      7.555873   0.000000   0.000000
   20        8.295231      8.300374   0.000000   0.000000
   21        8.588271      8.584170   0.000000   0.000000
   22        8.834889      8.976247   0.000000   0.000000
 
 -0.1111111E+00  0.2222222E+00  0.0000000E+00  0.6172840E-02
    1      -42.674884    -42.674537   1.000000   1.000000
    2      -42.649400    -42.649051   1.000000   1.000000
    3      -42.645273    -42.644923   1.000000   1.000000
    4      -42.620341    -42.619990   1.000000   1.000000