    8    8    1    2
  0.1400954E+02  0.4167744E-09  0.4167744E-09  0.7450429E-09  0.5000000E-15
  1.000000000000000E-004
  CAR 
 unknown system                          
     28     36     24
 
  0.0000000E+00  0.0000000E+00  0.0000000E+00  0.3086420E-02
    1      -42.596716    -42.596290   1.000000   1.000000
    2      -42.566524    -42.566096   1.000000   1.000000
    3      -42.561976    -42.561548   1.000000   1.000000
    4      -42.532509    -42.532078   1.000000   1.000000
    5      -42.227567    -42.226961   1.000000   1.000000
    6      -42.227378    -42.226772   1.000000   1.000000
    7       -6.557279     -6.557427   1.000000   1.000000
    8       -6.151338     -6.151438   1.000000   1.000000
    9       -0.578577     -0.578620   1.000000   1.000000
   10        2.250666      2.250569   1.000000   1.000000
   11        2.418410      2.418291   1.000000   1.000000
   12        2.418428      2.418309   1.000000   1.000000
   13        2.850958      2.850884   1.000000   1.000000
   14        2.850958      2.850885   1.000000   1.000000
   15        5.396906      5.396884   0.000000   0.000000
   16        6.793509      6.793431   0.000000   0.000000
   17        6.793514      6.793443   0.000000   0.000000
   18        6.808196      6.807855   0.000000   0.000000
   19        7.149633      7.149549   0.000000   0.000000
   20        7.149661      7.149590   0.000000   0.000000
   21        7.414815      7.414452   0.000000   0.000000
   22        8.657522      8.657289   0.000000   0.000000
   23        8.657543      8.657322   0.000000   0.000000
   24        8.904423      8.904454   0.000000   0.000000
 
  0.1111111E+00 -0.8817956E-17  0.0000000E+00  0.1851852E-01
    1      -42.595553    -42.595127   1.000000   1.000000
    2      -42.565542    -42.565114   1.000000   1.000000
    3      -42.562727    -42.562299   1.000000   1.000000
    4      -42.533364    -42.532934   1.000000   1.000000
    5      -42.227719    -42.227113   1.000000   1.000000
    6      -42.227516    -42.226910   1.000000   1.000000
    7       -6.506066     -6.506216   1.000000   1.000000
    8       -6.115532     -6.115670   1.000000   1.000000
    9       -0.487194     -0.487240   1.000000   1.000000
   10        1.915821      1.915714   1.000000   1.000000
   11        2.151317      2.151212   1.000000   1.000000
   12        2.233482      2.233384   1.000000   1.000000
   13        2.412929      2.412838   1.000000   1.000000
   14        2.759440      2.759359   1.000000   1.000000
   15        5.532035      5.531997   0.000000   0.000000
   16        6.673702      6.673519   0.000000   0.000000
   17        7.036218      7.036052   0.000000   0.000000
   18        7.168224      7.168151   0.000000   0.000000
   19        7.620879      7.620781   0.000000   0.000000
   20        7.746648      7.746468   0.000000   0.000000
   21        7.752492      7.751288   0.000000   0.000000
   22        7.985566      7.985269   0.000000   0.000000
   23        8.226045      8.225859   0.000000   0.000000
   24        8.814761      8.812971   0.000000   0.000000
 
  0.2222222E+00 -0.2144287E-16  0.0000000E+00  0.1851852E-01
    1      -42.592359    -42.591933   1.000000   1.000000
    2      -42.564793    -42.564365   1.000000   1.000000
    3      -42.562886    -42.562458   1.000000   1.000000
    4      -42.535800    -42.535370   1.000000   1.000000
    5      -42.228118    -42.227512   1.000000   1.000000
    6      -42.227807    -42.227201   1.000000   1.000000
    7       -6.364962     -6.365117   1.000000   1.000000
    8       -6.023352     -6.023521   1.000000   1.000000
    9       -0.216931     -0.216983   1.000000   1.000000
   10        0.968311      0.968221   1.000000   1.000000
   11        1.568596      1.568486   1.000000   1.000000
   12        1.683072      1.682979   1.000000   1.000000
   13        2.148545      2.148443   1.000000   1.000000
   14        2.472028      2.471945   1.000000   1.000000
   15        5.612374      5.612310   0.000000   0.000000
   16        6.401224      6.394148   0.000000   0.000000
   17        6.942097      6.941914   0.000000   0.000000
   18        7.193967      7.193797   0.000000   0.000000
   19        7.565089      7.564923   0.000000   0.000000
   20        8.261622      8.261544   0.000000   0.000000
   21        8.717281      8.717147   0.000000   0.000000
   22        8.877789      8.876767   0.000000   0.000000
   23        8.922380      8.922177   0.000000   0.000000
   24        9.364293      9.364015   0.000000   0.000000
 
  0.3333333E+00 -0.1521908E-16  0.0000000E+00  0.1851852E-01
    1      -42.587936    -42.587510   1.000000   1.000000
    2      -42.567974    -42.567546   1.000000   1.000000
    3      -42.559099    -42.558671   1.000000   1.000000
    4      -42.539447    -42.539017   1.000000   1.000000
    5      -42.228591    -42.227985   1.000000   1.000000
    6      -42.228227    -42.227621   1.000000   1.000000
    7       -6.175132     -6.175294   1.000000   1.000000
    8       -5.921103     -5.921277   1.000000   1.000000
    9        0.143617      0.143540   1.000000   1.000000
   10        0.216158      0.216093   1.000000   1.000000
   11        0.806451      0.806334   1.000000   1.000000
   12        1.296348      1.296261   1.000000   1.000000
   13        1.903232      1.903130   1.000000   1.000000
   14        2.172282      2.172201   1.000000   1.000000
   15        5.412771      5.412545   0.000000   0.000000
   16        5.677875      5.677800   0.000000   0.000000
   17        7.068342      7.068190   0.000000   0.000000
   18        7.092997      7.092819   0.000000   0.000000
   19        7.578471      7.578280   0.000000   0.000000
   20        8.825417      8.825267   0.000000   0.000000
   21        9.680817      9.680429   0.000000   0.000000
   22        9.865399      9.865300   0.000000   0.000000
   23       10.051247     10.051040   0.000000   0.000000
   24       10.943675     10.949341   0.000000   0.000000
 
  0.4444444E+00 -0.4288573E-16  0.0000000E+00  0.1851852E-01
    1      -42.583890    -42.583464   1.000000   1.000000
    2      -42.571195    -42.570769   1.000000   1.000000
    3      -42.555561    -42.555133   1.000000   1.000000
    4      -42.542919    -42.542489   1.000000   1.000000
    5      -42.228905    -42.228298   1.000000   1.000000
    6      -42.228502    -42.227896   1.000000   1.000000
    7       -6.015579     -6.015749   1.000000   1.000000
    8       -5.871064     -5.871240   1.000000   1.000000
    9       -0.323649     -0.323718   1.000000   1.000000
   10        0.366094      0.365976   1.000000   1.000000
   11        0.753482      0.753394   1.000000   1.000000
   12        1.087660      1.087575   1.000000   1.000000
   13        1.454367      1.454284   1.000000   1.000000
   14        1.997655      1.997577   1.000000   1.000000
   15        4.939797      4.939753   0.000000   0.000000
   16        5.734078      5.733999   0.000000   0.000000
   17        6.811315      6.811168   0.000000   0.000000
   18        7.176408      7.176233   0.000000   0.000000
   19        7.937861      7.937637   0.000000   0.000000
   20        8.700761      8.700648   0.000000   0.000000
   21        9.403066      9.402925   0.000000   0.000000
   22       11.086787     11.086485   0.000000   0.000000
   23       11.803084     11.816190   0.000000   0.000000
   24       11.833731     11.837282   0.000000   0.000000
 
  0.1111111E+00  0.1111111E+00  0.0000000E+00  0.1851852E-01
    1      -42.593369    -42.592943   1.000000   1.000000
    2      -42.564118    -42.563690   1.000000   1.000000
    3      -42.563741    -42.563314   1.000000   1.000000
    4      -42.535024    -42.534594   1.000000   1.000000
    5      -42.228016    -42.227410   1.000000   1.000000
    6      -42.227705    -42.227099   1.000000   1.000000
    7       -6.409706     -6.409859   1.000000   1.000000
    8       -6.051278     -6.051442   1.000000   1.000000
    9       -0.306296     -0.306346   1.000000   1.000000
   10        1.374049      1.373932   1.000000   1.000000
   11        1.476334      1.476265   1.000000   1.000000
   12        2.017228      2.017111   1.000000   1.000000
   13        2.185813      2.185712   1.000000   1.000000
   14        2.482219      2.482147   1.000000   1.000000
   15        5.708276      5.708220   0.000000   0.000000
   16        6.661224      6.659087   0.000000   0.000000
   17        7.040626      7.040425   0.000000   0.000000
   18        7.070060      7.069903   0.000000   0.000000
   19        7.774759      7.774652   0.000000   0.000000
   20        7.810989      7.810833   0.000000   0.000000
   21        8.051855      8.051737   0.000000   0.000000
   22        8.801362      8.801164   0.000000   0.000000
   23        8.958775      8.960856   0.000000   0.000000
   24        9.038314      9.038049   0.000000   0.000000
 
  0.2222222E+00  0.1111111E+00  0.0000000E+00  0.3703704E-01
    1      -42.589532    -42.589106   1.000000   1.000000
    2      -42.566815    -42.566388   1.000000   1.000000
    3      -42.560474    -42.560046   1.000000   1.000000
    4      -42.538121    -42.537691   1.000000   1.000000
    5      -42.228464    -42.227858   1.000000   1.000000
    6      -42.228080    -42.227473   1.000000   1.000000
    7       -6.242610     -6.242769   1.000000   1.000000
    8       -5.952501     -5.952674   1.000000   1.000000
    9        0.046496      0.046436   1.000000   1.000000
   10        0.539216      0.539131   1.000000   1.000000
   11        0.904425      0.904325   1.000000   1.000000
   12        1.409228      1.409121   1.000000   1.000000
   13        2.040916      2.040811   1.000000   1.000000
   14        2.141940      2.141867   1.000000   1.000000
   15        5.484660      5.485036   0.000000   0.000000
   16        5.961731      5.961662   0.000000   0.000000
   17        7.380769      7.380576   0.000000   0.000000
   18        7.430375      7.430195   0.000000   0.000000
   19        7.473456      7.473318   0.000000   0.000000
   20        8.654051      8.653944   0.000000   0.000000
   21        8.990002      8.989821   0.000000   0.000000
   22        9.042722      9.041774   0.000000   0.000000
   23        9.951057      9.951837   0.000000   0.000000
   24       10.719712     10.760550   0.000000   0.000000
 
  0.3333333E+00  0.1111111E+00  0.0000000E+00  0.3703704E-01
    1      -42.585020    -42.584595   1.000000   1.000000
    2      -42.570273    -42.569847   1.000000   1.000000
    3      -42.556547    -42.556119   1.000000   1.000000
    4      -42.541967    -42.541537   1.000000   1.000000
    5      -42.228859    -42.228252   1.000000   1.000000
    6      -42.228433    -42.227827   1.000000   1.000000
    7       -6.061788     -6.061955   1.000000   1.000000
    8       -5.875453     -5.875630   1.000000   1.000000
    9       -0.101535     -0.101607   1.000000   1.000000
   10        0.476286      0.476168   1.000000   1.000000
   11        0.540007      0.539931   1.000000   1.000000
   12        0.976270      0.976182   1.000000   1.000000
   13        1.716235      1.716136   1.000000   1.000000
   14        1.895306      1.895233   1.000000   1.000000
   15        4.705719      4.705741   0.000000   0.000000
   16        6.133932      6.133853   0.000000   0.000000
   17        7.301864      7.301736   0.000000   0.000000
   18        7.551136      7.550951   0.000000   0.000000
   19        7.847014      7.846802   0.000000   0.000000
   20        8.861211      8.861085   0.000000   0.000000
   21        9.526556      9.526419   0.000000   0.000000
   22       10.023764     10.023469   0.000000   0.000000
   23       10.593431     10.600175   0.000000   0.000000
   24       11.041345     11.045012   0.000000   0.000000
 
  0.4444444E+00  0.1111111E+00  0.0000000E+00  0.1851852E-01
    1      -42.582411    -42.581985   1.000000   1.000000
    2      -42.572429    -42.572002   1.000000   1.000000
    3      -42.554180    -42.553752   1.000000   1.000000
    4      -42.544228    -42.543798   1.000000   1.000000
    5      -42.228962    -42.228355   1.000000   1.000000
    6      -42.228561    -42.227954   1.000000   1.000000
    7       -5.967566     -5.967738   1.000000   1.000000
    8       -5.860378     -5.860554   1.000000   1.000000
    9       -0.335114     -0.335182   1.000000   1.000000
   10        0.301610      0.301487   1.000000   1.000000
   11        0.837390      0.837308   1.000000   1.000000
   12        0.977993      0.977887   1.000000   1.000000
   13        1.333062      1.332990   1.000000   1.000000
   14        1.806647      1.806575   1.000000   1.000000
   15        4.445202      4.445236   0.000000   0.000000
   16        6.198785      6.198703   0.000000   0.000000
   17        7.261630      7.261523   0.000000   0.000000
   18        7.607662      7.607481   0.000000   0.000000
   19        8.069632      8.069507   0.000000   0.000000
   20        8.722813      8.722693   0.000000   0.000000
   21        9.351662      9.351534   0.000000   0.000000
   22       10.686916     10.686568   0.000000   0.000000
   23       11.125254     11.125010   0.000000   0.000000
   24       11.596279     11.604126   0.000000   0.000000
 
  0.2222222E+00  0.2222222E+00  0.0000000E+00  0.1851852E-01
    1      -42.585477    -42.585052   1.000000   1.000000
    2      -42.569954    -42.569527   1.000000   1.000000
    3      -42.556879    -42.556451   1.000000   1.000000
    4      -42.541629    -42.541200   1.000000   1.000000
    5      -42.228851    -42.228244   1.000000   1.000000
    6      -42.228415    -42.227808   1.000000   1.000000
    7       -6.080321     -6.080487   1.000000   1.000000
    8       -5.876678     -5.876856   1.000000   1.000000
    9        0.220317      0.220266   1.000000   1.000000
   10        0.309402      0.309277   1.000000   1.000000
   11        0.463591      0.463517   1.000000   1.000000
   12        0.920330      0.920219   1.000000   1.000000
   13        1.752386      1.752323   1.000000   1.000000
   14        1.853546      1.853438   1.000000   1.000000
   15        4.483185      4.483212   0.000000   0.000000
   16        6.680602      6.680524   0.000000   0.000000
   17        7.668159      7.668031   0.000000   0.000000
   18        7.879509      7.879303   0.000000   0.000000
   19        8.173077      8.172868   0.000000   0.000000
   20        8.843631      8.843512   0.000000   0.000000
   21        9.253512      9.253409   0.000000   0.000000
   22        9.308127      9.307974   0.000000   0.000000
   23       10.185264     10.191636   0.000000   0.000000
   24       10.532026     10.519623   0.000000   0.000000
 
  0.3333333E+00  0.2222222E+00  0.0000000E+00  0.3703704E-01
    1      -42.581284    -42.580858   1.000000   1.000000
    2      -42.573486    -42.573059   1.000000   1.000000
    3      -42.553087    -42.552658   1.000000   1.000000
    4      -42.545341    -42.544912   1.000000   1.000000
    5      -42.229078    -42.228471   1.000000   1.000000
    6      -42.228603    -42.227997   1.000000   1.000000
    7       -5.943178     -5.943351   1.000000   1.000000
    8       -5.845769     -5.845946   1.000000   1.000000
    9       -0.138392     -0.138452   1.000000   1.000000
   10        0.232603      0.232482   1.000000   1.000000
   11        0.495382      0.495283   1.000000   1.000000
   12        0.962424      0.962328   1.000000   1.000000
   13        1.536806      1.536747   1.000000   1.000000
   14        1.542469      1.542367   1.000000   1.000000
   15        3.863977      3.864020   0.000000   0.000000
   16        7.216337      7.216252   0.000000   0.000000
   17        7.988990      7.988861   0.000000   0.000000
   18        8.223602      8.223394   0.000000   0.000000
   19        8.614475      8.614325   0.000000   0.000000
   20        8.957957      8.957816   0.000000   0.000000
   21        9.374874      9.374513   0.000000   0.000000
   22        9.520257      9.520383   0.000000   0.000000
   23        9.982822      9.980759   0.000000   0.000000
   24       10.663837     10.587773   0.000000   0.000000
 
  0.3333333E+00  0.3333333E+00  0.0000000E+00  0.6172840E-02
    1      -42.577278    -42.576852   1.000000   1.000000
    2      -42.577276    -42.576850   1.000000   1.000000
    3      -42.549181    -42.548752   1.000000   1.000000
    4      -42.549179    -42.548750   1.000000   1.000000
    5      -42.229109    -42.228503   1.000000   1.000000
    6      -42.228700    -42.228093   1.000000   1.000000
    7       -5.863965     -5.864141   1.000000   1.000000
    8       -5.863960     -5.864136   1.000000   1.000000
    9       -0.030022     -0.030032   1.000000   1.000000
   10        0.166200      0.166065   1.000000   1.000000
   11        0.166207      0.166071   1.000000   1.000000
   12        1.332707      1.332598   1.000000   1.000000
   13        1.332723      1.332613   1.000000   1.000000
   14        1.383546      1.383494   1.000000   1.000000
   15        3.480779      3.480842   0.000001   0.000001
   16        8.452985      8.452988   0.000000   0.000000
   17        8.464788      8.464515   0.000000   0.000000
   18        8.465759      8.468808   0.000000   0.000000
   19        8.748608      8.748462   0.000000   0.000000
   20        8.748626      8.748496   0.000000   0.000000
   21        9.365730      9.364709   0.000000   0.000000
   22        9.764116      9.763828   0.000000   0.000000
   23        9.778018      9.803298   0.000000   0.000000
   24       10.030450     10.030310   0.000000   0.000000
 
  0.0000000E+00  0.0000000E+00  0.2500000E+00  0.6172840E-02
    1      -42.594236    -42.593810   1.000000   1.000000
    2      -42.576741    -42.576314   1.000000   1.000000
    3      -42.551868    -42.551439   1.000000   1.000000
    4      -42.534831    -42.534401   1.000000   1.000000
    5      -42.227546    -42.226940   1.000000   1.000000
    6      -42.227393    -42.226787   1.000000   1.000000
    7       -6.505157     -6.505307   1.000000   1.000000
    8       -6.219562     -6.219690   1.000000   1.000000
    9       -0.288735     -0.288785   1.000000   1.000000
   10        1.573804      1.573734   1.000000   1.000000
   11        2.480225      2.480112   1.000000   1.000000
   12        2.480241      2.480129   1.000000   1.000000
   13        2.787326      2.787246   1.000000   1.000000
   14        2.787330      2.787254   1.000000   1.000000
   15        6.133018      6.132959   0.000000   0.000000
   16        6.694792      6.694711   0.000000   0.000000
   17        6.694803      6.694732   0.000000   0.000000
   18        6.971426      6.971347   0.000000   0.000000
   19        6.971452      6.971385   0.000000   0.000000
   20        7.045503      7.045180   0.000000   0.000000
   21        7.227879      7.227558   0.000000   0.000000
   22        8.827906      8.827615   0.000000   0.000000
   23        9.246350      9.246122   0.000000   0.000000
   24        9.246393      9.246345   0.000000   0.000000
 
  0.1111111E+00 -0.8817956E-17  0.2500000E+00  0.3703704E-01
    1      -42.593181    -42.592755   1.000000   1.000000
    2      -42.576149    -42.575722   1.000000   1.000000
    3      -42.552240    -42.551812   1.000000   1.000000
    4      -42.535689    -42.535259   1.000000   1.000000
    5      -42.227717    -42.227111   1.000000   1.000000
    6      -42.227552    -42.226946   1.000000   1.000000
    7       -6.455667     -6.455818   1.000000   1.000000
    8       -6.180762     -6.180904   1.000000   1.000000
    9       -0.208650     -0.208701   1.000000   1.000000
   10        1.552213      1.552134   1.000000   1.000000
   11        2.011343      2.011233   1.000000   1.000000
   12        2.229944      2.229842   1.000000   1.000000
   13        2.388104      2.388009   1.000000   1.000000
   14        2.658484      2.658398   1.000000   1.000000
   15        6.037119      6.037077   0.000000   0.000000
   16        6.703970      6.703790   0.000000   0.000000
   17        7.009522      7.009425   0.000000   0.000000
   18        7.057294      7.057211   0.000000   0.000000
   19        7.431418      7.431326   0.000000   0.000000
   20        7.457636      7.457437   0.000000   0.000000
   21        7.799521      7.799309   0.000000   0.000000
   22        8.522943      8.522756   0.000000   0.000000
   23        8.865086      8.864878   0.000000   0.000000
   24        9.162339      9.162155   0.000000   0.000000
 
  0.2222222E+00 -0.2144287E-16  0.2500000E+00  0.3703704E-01
    1      -42.590192    -42.589766   1.000000   1.000000
    2      -42.574734    -42.574306   1.000000   1.000000
    3      -42.553065    -42.552636   1.000000   1.000000
    4      -42.537967    -42.537537   1.000000   1.000000
    5      -42.228100    -42.227494   1.000000   1.000000
    6      -42.227893    -42.227287   1.000000   1.000000
    7       -6.320035     -6.320190   1.000000   1.000000
    8       -6.079277     -6.079439   1.000000   1.000000
    9        0.011665      0.011608   1.000000   1.000000
   10        1.006775      1.006695   1.000000   1.000000
   11        1.375311      1.375203   1.000000   1.000000
   12        1.777519      1.777427   1.000000   1.000000
   13        1.872403      1.872293   1.000000   1.000000
   14        2.328616      2.328531   1.000000   1.000000
   15        5.663330      5.663280   0.000000   0.000000
   16        6.336541      6.336379   0.000000   0.000000
   17        7.238457      7.238294   0.000000   0.000000
   18        7.475007      7.474894   0.000000   0.000000
   19        7.708211      7.708070   0.000000   0.000000
   20        8.491248      8.491122   0.000000   0.000000
   21        8.621273      8.621058   0.000000   0.000000
   22        8.687690      8.687586   0.000000   0.000000
   23        9.264724      9.264510   0.000000   0.000000
   24        9.717164      9.717021   0.000000   0.000000
 
  0.3333333E+00 -0.1521908E-16  0.2500000E+00  0.3703704E-01
    1      -42.586119    -42.585693   1.000000   1.000000
    2      -42.573715    -42.573288   1.000000   1.000000
    3      -42.553434    -42.553005   1.000000   1.000000
    4      -42.541231    -42.540801   1.000000   1.000000
    5      -42.228561    -42.227955   1.000000   1.000000
    6      -42.228282    -42.227675   1.000000   1.000000
    7       -6.140501     -6.140662   1.000000   1.000000
    8       -5.961159     -5.961331   1.000000   1.000000
    9        0.079952      0.079879   1.000000   1.000000
   10        0.393516      0.393446   1.000000   1.000000
   11        0.806801      0.806688   1.000000   1.000000
   12        1.398063      1.397976   1.000000   1.000000
   13        1.776388      1.776286   1.000000   1.000000
   14        2.007262      2.007180   1.000000   1.000000
   15        5.141694      5.141684   0.000000   0.000000
   16        5.749789      5.749742   0.000000   0.000000
   17        7.219868      7.219702   0.000000   0.000000
   18        7.488405      7.488251   0.000000   0.000000
   19        7.800867      7.800739   0.000000   0.000000
   20        8.596699      8.596653   0.000000   0.000000
   21        9.593943      9.593758   0.000000   0.000000
   22       10.032660     10.032571   0.000000   0.000000
   23       10.214465     10.212752   0.000000   0.000000
   24       11.200149     11.153576   0.000000   0.000000
 
  0.4444444E+00 -0.4288573E-16  0.2500000E+00  0.3703704E-01
    1      -42.582569    -42.582143   1.000000   1.000000
    2      -42.574018    -42.573591   1.000000   1.000000
    3      -42.552720    -42.552292   1.000000   1.000000
    4      -42.544245    -42.543815   1.000000   1.000000
    5      -42.228849    -42.228243   1.000000   1.000000
    6      -42.228555    -42.227948   1.000000   1.000000
    7       -5.994797     -5.994968   1.000000   1.000000
    8       -5.892595     -5.892770   1.000000   1.000000
    9       -0.308102     -0.308172   1.000000   1.000000
   10        0.121572      0.121479   1.000000   1.000000
   11        1.014630      1.014527   1.000000   1.000000
   12        1.192181      1.192097   1.000000   1.000000
   13        1.569663      1.569562   1.000000   1.000000
   14        1.823983      1.823903   1.000000   1.000000
   15        4.745607      4.745624   0.000000   0.000000
   16        5.477624      5.477568   0.000000   0.000000
   17        7.269160      7.269011   0.000000   0.000000
   18        7.269746      7.269578   0.000000   0.000000
   19        7.816051      7.815923   0.000000   0.000000
   20        8.516011      8.515803   0.000000   0.000000
   21        9.999071      9.998866   0.000000   0.000000
   22       10.763866     10.762996   0.000000   0.000000
   23       10.937608     10.937621   0.000000   0.000000
   24       11.955714     11.956579   0.000000   0.000000
 
  0.1111111E+00  0.1111111E+00  0.2500000E+00  0.3703704E-01
    1      -42.591109    -42.590683   1.000000   1.000000
    2      -42.575140    -42.574712   1.000000   1.000000
    3      -42.552821    -42.552392   1.000000   1.000000
    4      -42.537225    -42.536795   1.000000   1.000000
    5      -42.227973    -42.227367   1.000000   1.000000
    6      -42.227769    -42.227163   1.000000   1.000000
    7       -6.362866     -6.363020   1.000000   1.000000
    8       -6.110378     -6.110538   1.000000   1.000000
    9       -0.056515     -0.056570   1.000000   1.000000
   10        1.323913      1.323845   1.000000   1.000000
   11        1.455831      1.455713   1.000000   1.000000
   12        1.839851      1.839754   1.000000   1.000000
   13        2.030541      2.030425   1.000000   1.000000
   14        2.341396      2.341322   1.000000   1.000000
   15        5.980490      5.980442   0.000000   0.000000
   16        6.673523      6.673429   0.000000   0.000000
   17        7.020513      7.020313   0.000000   0.000000
   18        7.078778      7.078621   0.000000   0.000000
   19        7.874418      7.874293   0.000000   0.000000
   20        7.964818      7.964720   0.000000   0.000000
   21        8.516845      8.516703   0.000000   0.000000
   22        8.667390      8.667190   0.000000   0.000000
   23        9.138112      9.137896   0.000000   0.000000
   24        9.365501      9.365340   0.000000   0.000000
 
  0.2222222E+00  0.1111111E+00  0.2500000E+00  0.7407407E-01
    1      -42.587557    -42.587131   1.000000   1.000000
    2      -42.573909    -42.573482   1.000000   1.000000
    3      -42.553425    -42.552996   1.000000   1.000000
    4      -42.540041    -42.539611   1.000000   1.000000
    5      -42.228401    -42.227795   1.000000   1.000000
    6      -42.228140    -42.227533   1.000000   1.000000
    7       -6.203664     -6.203824   1.000000   1.000000
    8       -5.998979     -5.999149   1.000000   1.000000
    9        0.170662      0.170597   1.000000   1.000000
   10        0.613529      0.613456   1.000000   1.000000
   11        0.917727      0.917611   1.000000   1.000000
   12        1.420875      1.420783   1.000000   1.000000
   13        1.821740      1.821632   1.000000   1.000000
   14        1.961569      1.961494   1.000000   1.000000
   15        5.582513      5.582499   0.000000   0.000000
   16        6.015763      6.015721   0.000000   0.000000
   17        7.214806      7.214626   0.000000   0.000000
   18        7.434438      7.434251   0.000000   0.000000
   19        8.305810      8.305648   0.000000   0.000000
   20        8.487299      8.487172   0.000000   0.000000
   21        8.851151      8.851012   0.000000   0.000000
   22        9.100750      9.100839   0.000000   0.000000
   23        9.850013      9.849190   0.000000   0.000000
   24       10.808002     10.805108   0.000000   0.000000
 
  0.3333333E+00  0.1111111E+00  0.2500000E+00  0.7407407E-01
    1      -42.583535    -42.583109   1.000000   1.000000
    2      -42.573805    -42.573378   1.000000   1.000000
    3      -42.553034    -42.552606   1.000000   1.000000
    4      -42.543417    -42.542987   1.000000   1.000000
    5      -42.228790    -42.228184   1.000000   1.000000
    6      -42.228491    -42.227885   1.000000   1.000000
    7       -6.035614     -6.035782   1.000000   1.000000
    8       -5.903910     -5.904084   1.000000   1.000000
    9       -0.100502     -0.100577   1.000000   1.000000
   10        0.250879      0.250788   1.000000   1.000000
   11        0.874497      0.874397   1.000000   1.000000
   12        1.055326      1.055243   1.000000   1.000000
   13        1.681618      1.681535   1.000000   1.000000
   14        1.712322      1.712224   1.000000   1.000000
   15        4.861702      4.861710   0.000000   0.000000
   16        5.861187      5.861131   0.000000   0.000000
   17        7.168172      7.168004   0.000000   0.000000
   18        7.619136      7.618960   0.000000   0.000000
   19        8.144670      8.144526   0.000000   0.000000
   20        8.831091      8.830899   0.000000   0.000000
   21        9.172686      9.172524   0.000000   0.000000
   22       10.129977     10.129844   0.000000   0.000000
   23       10.738010     10.737958   0.000000   0.000000
   24       10.952126     10.953984   0.000000   0.000000
 
  0.4444444E+00  0.1111111E+00  0.2500000E+00  0.3703704E-01
    1      -42.581338    -42.580912   1.000000   1.000000
    2      -42.574475    -42.574049   1.000000   1.000000
    3      -42.552191    -42.551762   1.000000   1.000000
    4      -42.545353    -42.544924   1.000000   1.000000
    5      -42.228938    -42.228331   1.000000   1.000000
    6      -42.228646    -42.228039   1.000000   1.000000
    7       -5.951796     -5.951969   1.000000   1.000000
    8       -5.875962     -5.876138   1.000000   1.000000
    9       -0.314300     -0.314371   1.000000   1.000000
   10        0.093272      0.093171   1.000000   1.000000
   11        0.918266      0.918188   1.000000   1.000000