 running on    8 total cores
 distrk:  each k-point on    8 cores,    1 groups
 distr:  one band on    1 cores,    8 groups
 using from now: INCAR     
 vasp.6.1.2 22Jul20 (build Mar 20 2021 11:25:07) complex                        
  
 POSCAR found type information on POSCAR LiP 
 POSCAR found :  2 types and       8 ions
 scaLAPACK will be used
 -----------------------------------------------------------------------------
|                                                                             |
|           W    W    AA    RRRRR   N    N  II  N    N   GGGG   !!!           |
|           W    W   A  A   R    R  NN   N  II  NN   N  G    G  !!!           |
|           W    W  A    A  R    R  N N  N  II  N N  N  G       !!!           |
|           W WW W  AAAAAA  RRRRR   N  N N  II  N  N N  G  GGG   !            |
|           WW  WW  A    A  R   R   N   NN  II  N   NN  G    G                |
|           W    W  A    A  R    R  N    N  II  N    N   GGGG   !!!           |
|                                                                             |
|     The value NCORE = 6 specified in the INCAR file was overwritten,        |
|     because it was not compatible with the 8 processes available:           |
|     NCORE = 1                                                               |
|     was used instead, please check that this makes sense for your           |
|     machine.                                                                |
|                                                                             |
 -----------------------------------------------------------------------------

 -----------------------------------------------------------------------------
|                                                                             |
|           W    W    AA    RRRRR   N    N  II  N    N   GGGG   !!!           |
|           W    W   A  A   R    R  NN   N  II  NN   N  G    G  !!!           |
|           W    W  A    A  R    R  N N  N  II  N N  N  G       !!!           |
|           W WW W  AAAAAA  RRRRR   N  N N  II  N  N N  G  GGG   !            |
|           WW  WW  A    A  R   R   N   NN  II  N   NN  G    G                |
|           W    W  A    A  R    R  N    N  II  N    N   GGGG   !!!           |
|                                                                             |
|     For optimal performance we recommend to set                             |
|       NCORE = 4 - approx SQRT(number of cores).                             |
|     NCORE specifies how many cores store one orbital (NPAR=cpu/NCORE).      |
|     This setting can greatly improve the performance of VASP for DFT.       |
|     The default, NCORE=1 might be grossly inefficient on modern             |
|     multi-core architectures or massively parallel machines. Do your        |
|     own testing!!!!                                                         |
|     Unfortunately you need to use the default for GW and RPA                |
|     calculations (for HF NCORE is supported but not extensively tested      |
|     yet).                                                                   |
|                                                                             |
 -----------------------------------------------------------------------------

 -----------------------------------------------------------------------------
|                                                                             |
|               ----> ADVICE to this user running VASP <----                  |
|                                                                             |
|     You have a (more or less) 'small supercell' and for smaller cells       |
|     it is recommended to use the reciprocal-space projection scheme!        |
|     The real-space optimization is not efficient for small cells and it     |
|     is also less accurate ...                                               |
|     Therefore, set LREAL=.FALSE. in the INCAR file.                         |
|                                                                             |
 -----------------------------------------------------------------------------

 LDA part: xc-table for Pade appr. of Perdew
 -----------------------------------------------------------------------------
|                                                                             |
|           W    W    AA    RRRRR   N    N  II  N    N   GGGG   !!!           |
|           W    W   A  A   R    R  NN   N  II  NN   N  G    G  !!!           |
|           W    W  A    A  R    R  N N  N  II  N N  N  G       !!!           |
|           W WW W  AAAAAA  RRRRR   N  N N  II  N  N N  G  GGG   !            |
|           WW  WW  A    A  R   R   N   NN  II  N   NN  G    G                |
|           W    W  A    A  R    R  N    N  II  N    N   GGGG   !!!           |
|                                                                             |
|     The determination of the symmetry of your systems shows a strong        |
|     dependence on the tolerance parameter SYMPREC. This is often the        |
|     result of "noise" in the structural parameters (lattice vectors         |
|     and/or ionic positions). Set NWRITE=3 for more details.                 |
|                                                                             |
 -----------------------------------------------------------------------------

 generate k-points for:    9    9    4
 POSCAR, INCAR and KPOINTS ok, starting setup
 FFT: planning ...
 WAVECAR not read
 entering main loop
       N       E                     dE             d eps       ncg     rms          rms(c)
DAV:   1     0.160770199099E+03    0.16077E+03   -0.11788E+04  3456   0.119E+03
DAV:   2     0.196327000326E+01   -0.15881E+03   -0.14964E+03  3760   0.303E+02
DAV:   3    -0.238428582379E+02   -0.25806E+02   -0.25565E+02  6264   0.704E+01
DAV:   4    -0.264497742437E+02   -0.26069E+01   -0.25882E+01  4960   0.302E+01
DAV:   5    -0.266267088023E+02   -0.17693E+00   -0.17692E+00  5512   0.642E+00    0.149E+01
RMM:   6    -0.271225933795E+02   -0.49588E+00   -0.15919E+00  4192   0.625E+00    0.760E+00
RMM:   7    -0.278131184928E+02   -0.69053E+00   -0.48232E-01  4614   0.421E+00    0.293E+00
RMM:   8    -0.278786641421E+02   -0.65546E-01   -0.39941E-01  5353   0.288E+00    0.122E+00
RMM:   9    -0.278873243216E+02   -0.86602E-02   -0.93868E-02  5609   0.170E+00    0.534E-01
RMM:  10    -0.278957304985E+02   -0.84062E-02   -0.42464E-02  5922   0.996E-01    0.270E-01
RMM:  11    -0.278977539768E+02   -0.20235E-02   -0.14811E-02  6005   0.571E-01    0.201E-01
RMM:  12    -0.278984772403E+02   -0.72326E-03   -0.52478E-03  5846   0.431E-01    0.508E-02
RMM:  13    -0.278990226559E+02   -0.54542E-03   -0.30936E-03  6088   0.261E-01    0.176E-02
RMM:  14    -0.278992051627E+02   -0.18251E-03   -0.14566E-03  5973   0.165E-01    0.215E-02
RMM:  15    -0.278992816467E+02   -0.76484E-04   -0.66185E-04  5252   0.108E-01    0.186E-02
RMM:  16    -0.278993191468E+02   -0.37500E-04   -0.34220E-04  5167   0.772E-02    0.250E-02
RMM:  17    -0.278993353921E+02   -0.16245E-04   -0.18890E-04  5031   0.630E-02    0.165E-02
RMM:  18    -0.278993467452E+02   -0.11353E-04   -0.10612E-04  4476   0.463E-02    0.153E-02
RMM:  19    -0.278993531971E+02   -0.64519E-05   -0.73532E-05  4243   0.395E-02
   1 F= -.27899353E+02 E0= -.27899353E+02  d E =0.000000E+00  mag=    -0.0001
