       N       E                     dE             d eps       ncg     rms          rms(c)
DAV:   1     0.112650072019E+04    0.11265E+04   -0.62227E+04 24424   0.153E+03
DAV:   2    -0.638176067392E+02   -0.11903E+04   -0.11194E+04 29208   0.398E+02
DAV:   3    -0.174521733748E+03   -0.11070E+03   -0.11002E+03 31458   0.124E+02
DAV:   4    -0.184327018427E+03   -0.98053E+01   -0.97634E+01 46464   0.296E+01
DAV:   5    -0.185842430222E+03   -0.15154E+01   -0.15150E+01 33928   0.670E+00    0.525E+01
DAV:   6    -0.165507341870E+03    0.20335E+02   -0.89060E+01 30544   0.321E+01    0.267E+01
DAV:   7    -0.167520449912E+03   -0.20131E+01   -0.74524E+00 32128   0.900E+00    0.922E+00
DAV:   8    -0.167803928645E+03   -0.28348E+00   -0.80773E-01 32528   0.357E+00    0.459E+00
DAV:   9    -0.167938429745E+03   -0.13450E+00   -0.14523E-01 33360   0.162E+00    0.182E+00
DAV:  10    -0.167963148563E+03   -0.24719E-01   -0.51700E-02 30088   0.111E+00    0.547E-01
DAV:  11    -0.167973857485E+03   -0.10709E-01   -0.11949E-02 30576   0.454E-01    0.315E-01
DAV:  12    -0.167976507295E+03   -0.26498E-02   -0.18934E-03 31472   0.201E-01    0.160E-01
DAV:  13    -0.167977655404E+03   -0.11481E-02   -0.10607E-03 28992   0.127E-01    0.454E-02
DAV:  14    -0.167977807748E+03   -0.15234E-03   -0.14888E-04 33816   0.602E-02    0.236E-02
DAV:  15    -0.167977864050E+03   -0.56302E-04   -0.60689E-05 25672   0.343E-02    0.143E-02
DAV:  16    -0.167977871547E+03   -0.74966E-05   -0.80345E-06 20632   0.146E-02
   1 F= -.16797787E+03 E0= -.16797787E+03  d E =0.000000E+00  mag=    -0.0014
