       N       E                     dE             d eps       ncg     rms          rms(c)
DAV:   1     0.113551800065E+04    0.11355E+04   -0.62884E+04 24440   0.154E+03
DAV:   2    -0.643555221496E+02   -0.11999E+04   -0.11278E+04 29040   0.402E+02
DAV:   3    -0.173825001750E+03   -0.10947E+03   -0.10880E+03 31460   0.124E+02
DAV:   4    -0.183847063540E+03   -0.10022E+02   -0.99798E+01 46496   0.298E+01
DAV:   5    -0.185279408418E+03   -0.14323E+01   -0.14319E+01 33496   0.658E+00    0.559E+01
DAV:   6    -0.164061286879E+03    0.21218E+02   -0.88632E+01 30556   0.324E+01    0.294E+01
DAV:   7    -0.166012652894E+03   -0.19514E+01   -0.77653E+00 32416   0.915E+00    0.970E+00
DAV:   8    -0.166298898417E+03   -0.28625E+00   -0.87052E-01 32728   0.367E+00    0.482E+00
DAV:   9    -0.166426397269E+03   -0.12750E+00   -0.15606E-01 33192   0.168E+00    0.207E+00
DAV:  10    -0.166450171479E+03   -0.23774E-01   -0.55166E-02 30088   0.116E+00    0.613E-01
DAV:  11    -0.166460598066E+03   -0.10427E-01   -0.12317E-02 30600   0.470E-01    0.333E-01
DAV:  12    -0.166463253512E+03   -0.26554E-02   -0.19219E-03 30352   0.203E-01    0.165E-01
DAV:  13    -0.166464249428E+03   -0.99592E-03   -0.93981E-04 29112   0.124E-01    0.474E-02
DAV:  14    -0.166464393799E+03   -0.14437E-03   -0.15690E-04 35160   0.580E-02    0.270E-02
DAV:  15    -0.166464450447E+03   -0.56648E-04   -0.52721E-05 25632   0.315E-02    0.171E-02
DAV:  16    -0.166464459821E+03   -0.93743E-05   -0.78772E-06 20248   0.140E-02
   1 F= -.16646446E+03 E0= -.16646446E+03  d E =0.000000E+00  mag=    -0.0015
