    4    4    1    2
  0.1202873E+02  0.3364112E-09  0.3364112E-09  0.5086250E-09  0.5000000E-15
  1.000000000000000E-004
  CAR 
 unknown system                          
     18    234     16
 
  0.0000000E+00  0.0000000E+00  0.0000000E+00  0.1180638E-02
    1      -43.843506    -43.843064   1.000000   1.000000
    2      -21.634115    -21.634145   1.000000   1.000000
    3      -17.323770    -17.323812   1.000000   1.000000
    4       -7.072462     -7.072514   1.000000   1.000000
    5       -5.243259     -5.243287   1.000000   1.000000
    6       -5.184572     -5.184605   1.000000   1.000000
    7       -4.020094     -4.020154   1.000000   1.000000
    8        0.286083      0.285999   1.000000   1.000000
    9        0.348172      0.348094   1.000000   1.000000
   10        5.653056      5.653028   0.000000   0.000000
   11        5.781797      5.781804   0.000000   0.000000
   12        5.976511      5.976477   0.000000   0.000000
   13        9.507974      9.508110   0.000000   0.000000
   14       10.565020     10.565014   0.000000   0.000000
   15       13.219303     13.219416   0.000000   0.000000
   16       13.799570     13.799801   0.000000   0.000000
 
  0.9090909E-01  0.5438084E-17  0.9769905E-17  0.4722550E-02
    1      -43.843194    -43.842752   1.000000   1.000000
    2      -21.620051    -21.620081   1.000000   1.000000
    3      -17.315817    -17.315860   1.000000   1.000000
    4       -7.032913     -7.032966   1.000000   1.000000
    5       -5.335292     -5.335321   1.000000   1.000000
    6       -5.214033     -5.214066   1.000000   1.000000
    7       -4.026325     -4.026385   1.000000   1.000000
    8        0.181384      0.181306   1.000000   1.000000
    9        0.271307      0.271227   1.000000   1.000000
   10        5.551030      5.551024   0.000000   0.000000
   11        5.776139      5.776115   0.000000   0.000000
   12        6.197495      6.197472   0.000000   0.000000
   13        9.703429      9.703563   0.000000   0.000000
   14       10.623601     10.623596   0.000000   0.000000
   15       13.236807     13.236974   0.000000   0.000000
   16       13.619128     13.621519   0.000000   0.000000
 
  0.1818182E+00  0.1729097E-16 -0.4825316E-17  0.4722550E-02
    1      -43.842325    -43.841883   1.000000   1.000000
    2      -21.582160    -21.582189   1.000000   1.000000
    3      -17.294340    -17.294383   1.000000   1.000000
    4       -6.922742     -6.922794   1.000000   1.000000
    5       -5.594817     -5.594849   1.000000   1.000000
    6       -5.267519     -5.267551   1.000000   1.000000
    7       -4.044473     -4.044536   1.000000   1.000000
    8       -0.170410     -0.170476   1.000000   1.000000
    9        0.156812      0.156735   1.000000   1.000000
   10        5.294512      5.294518   0.000000   0.000000
   11        5.763200      5.763166   0.000000   0.000000
   12        6.757290      6.757276   0.000000   0.000000
   13       10.196459     10.196581   0.000000   0.000000
   14       10.804840     10.805031   0.000000   0.000000
   15       12.828657     12.825613   0.000000   0.000000
   16       13.319178     13.312608   0.000000   0.000000
 
  0.2727273E+00  0.1478271E-16 -0.6207023E-17  0.4722550E-02
    1      -43.841165    -43.840723   1.000000   1.000000
    2      -21.531586    -21.531617   1.000000   1.000000
    3      -17.266033    -17.266076   1.000000   1.000000
    4       -6.770081     -6.770132   1.000000   1.000000
    5       -5.912166     -5.912204   1.000000   1.000000
    6       -5.332271     -5.332304   1.000000   1.000000
    7       -4.075459     -4.075524   1.000000   1.000000
    8       -0.603319     -0.603374   1.000000   1.000000
    9        0.019171      0.019098   1.000000   1.000000
   10        4.930063      4.930076   0.000000   0.000000
   11        5.784502      5.784464   0.000000   0.000000
   12        7.434727      7.434703   0.000000   0.000000
   13       10.646352     10.646199   0.000000   0.000000
   14       11.176468     11.174505   0.000000   0.000000
   15       12.149403     12.148681   0.000000   0.000000
   16       13.228109     13.235253   0.000000   0.000000
 
  0.3636364E+00  0.4100021E-18 -0.3137850E-16  0.4722550E-02
    1      -43.840126    -43.839683   1.000000   1.000000
    2      -21.484456    -21.484487   1.000000   1.000000
    3      -17.239960    -17.240003   1.000000   1.000000
    4       -6.631061     -6.631106   1.000000   1.000000
    5       -6.167563     -6.167613   1.000000   1.000000
    6       -5.390358     -5.390391   1.000000   1.000000
    7       -4.116847     -4.116915   1.000000   1.000000
    8       -0.972316     -0.972363   1.000000   1.000000
    9       -0.101240     -0.101310   1.000000   1.000000
   10        4.591617      4.591637   0.000000   0.000000
   11        5.803861      5.803821   0.000000   0.000000
   12        7.954676      7.954613   0.000000   0.000000
   13       10.859435     10.859184   0.000000   0.000000
   14       11.331049     11.328227   0.000000   0.000000
   15       12.337807     12.337300   0.000000   0.000000
   16       13.118300     13.110306   0.000000   0.000000
 
  0.4545455E+00 -0.7545673E-17 -0.2639667E-16  0.4722550E-02
    1      -43.839493    -43.839051   1.000000   1.000000
    2      -21.456055    -21.456084   1.000000   1.000000
    3      -17.224383    -17.224426   1.000000   1.000000
    4       -6.579789     -6.579822   1.000000   1.000000
    5       -6.270558     -6.270624   1.000000   1.000000
    6       -5.424532     -5.424566   1.000000   1.000000
    7       -4.150580     -4.150649   1.000000   1.000000
    8       -1.179861     -1.179903   1.000000   1.000000
    9       -0.169947     -0.170014   1.000000   1.000000
   10        4.390655      4.390678   0.000000   0.000000
   11        5.813229      5.813187   0.000000   0.000000
   12        8.172743      8.172765   0.000000   0.000000
   13       10.886929     10.886988   0.000000   0.000000
   14       11.451456     11.451089   0.000000   0.000000
   15       12.760226     12.760642   0.000000   0.000000
   16       12.990605     12.990367   0.000000   0.000000
 
  0.9090909E-01  0.9090909E-01  0.2796525E-16  0.2361275E-02
    1      -43.843156    -43.842714   1.000000   1.000000
    2      -21.618213    -21.618242   1.000000   1.000000
    3      -17.317308    -17.317351   1.000000   1.000000
    4       -7.014203     -7.014257   1.000000   1.000000
    5       -5.288145     -5.288179   1.000000   1.000000
    6       -5.274305     -5.274333   1.000000   1.000000
    7       -4.050943     -4.051004   1.000000   1.000000
    8        0.125826      0.125748   1.000000   1.000000
    9        0.343840      0.343762   1.000000   1.000000
   10        5.509617      5.509614   0.000000   0.000000
   11        5.890256      5.890224   0.000000   0.000000
   12        6.170055      6.170036   0.000000   0.000000
   13        9.656858      9.656988   0.000000   0.000000
   14       10.580118     10.580138   0.000000   0.000000
   15       13.207870     13.207800   0.000000   0.000000
   16       13.834550     13.836293   0.000000   0.000000
 
  0.1818182E+00  0.9090909E-01  0.2218412E-17  0.4722550E-02
    1      -43.842515    -43.842073   1.000000   1.000000
    2      -21.590638    -21.590668   1.000000   1.000000
    3      -17.303934    -17.303977   1.000000   1.000000
    4       -6.920806     -6.920860   1.000000   1.000000
    5       -5.495022     -5.495055   1.000000   1.000000
    6       -5.295477     -5.295508   1.000000   1.000000
    7       -4.086463     -4.086525   1.000000   1.000000
    8       -0.107170     -0.107241   1.000000   1.000000
    9        0.269366      0.269290   1.000000   1.000000
   10        5.400973      5.400977   0.000000   0.000000
   11        5.785256      5.785223   0.000000   0.000000
   12        6.610775      6.610754   0.000000   0.000000
   13        9.963248      9.963354   0.000000   0.000000
   14       10.678080     10.678256   0.000000   0.000000
   15       13.177620     13.176118   0.000000   0.000000
   16       13.222786     13.222403   0.000000   0.000000
 
  0.2727273E+00  0.9090909E-01 -0.3137850E-16  0.4722550E-02
    1      -43.841505    -43.841063   1.000000   1.000000
    2      -21.545537    -21.545567   1.000000   1.000000
    3      -17.279864    -17.279907   1.000000   1.000000
    4       -6.772168     -6.772223   1.000000   1.000000
    5       -5.790228     -5.790265   1.000000   1.000000
    6       -5.355565     -5.355597   1.000000   1.000000
    7       -4.128517     -4.128581   1.000000   1.000000
    8       -0.454880     -0.454941   1.000000   1.000000
    9        0.110821      0.110749   1.000000   1.000000
   10        5.103623      5.103633   0.000000   0.000000
   11        5.755541      5.755508   0.000000   0.000000
   12        7.263756      7.263740   0.000000   0.000000
   13       10.379946     10.380086   0.000000   0.000000
   14       11.003429     11.003254   0.000000   0.000000
   15       12.322538     12.321857   0.000000   0.000000
   16       13.196097     13.194926   0.000000   0.000000
 
  0.3636364E+00  0.9090909E-01 -0.3518085E-17  0.4722550E-02
    1      -43.840430    -43.839988   1.000000   1.000000
    2      -21.496852    -21.496882   1.000000   1.000000
    3      -17.252679    -17.252723   1.000000   1.000000
    4       -6.611802     -6.611852   1.000000   1.000000
    5       -6.072853     -6.072897   1.000000   1.000000
    6       -5.426119     -5.426152   1.000000   1.000000
    7       -4.173569     -4.173635   1.000000   1.000000
    8       -0.809982     -0.810034   1.000000   1.000000
    9       -0.058897     -0.058965   1.000000   1.000000
   10        4.743741      4.743757   0.000000   0.000000
   11        5.745131      5.745097   0.000000   0.000000
   12        7.922544      7.922531   0.000000   0.000000
   13       10.681580     10.680896   0.000000   0.000000
   14       11.274655     11.272928   0.000000   0.000000
   15       12.131275     12.130718   0.000000   0.000000
   16       13.141138     13.140100   0.000000   0.000000
 
  0.4545455E+00  0.9090909E-01 -0.2926492E-16  0.4722550E-02
    1      -43.839618    -43.839175   1.000000   1.000000
    2      -21.460095    -21.460125   1.000000   1.000000
    3      -17.230903    -17.230947   1.000000   1.000000
    4       -6.525049     -6.525085   1.000000   1.000000
    5       -6.233107     -6.233170   1.000000   1.000000
    6       -5.478376     -5.478410   1.000000   1.000000
    7       -4.207047     -4.207116   1.000000   1.000000
    8       -1.066943     -1.066988   1.000000   1.000000
    9       -0.190130     -0.190195   1.000000   1.000000
   10        4.468521      4.468543   0.000000   0.000000
   11        5.725157      5.725123   0.000000   0.000000
   12        8.327330      8.327341   0.000000   0.000000
   13       10.910527     10.910349   0.000000   0.000000
   14       11.282586     11.282273   0.000000   0.000000
   15       12.479152     12.479386   0.000000   0.000000
   16       13.047145     13.046928   0.000000   0.000000
 
 -0.4545455E+00  0.9090909E-01  0.2650150E-16  0.4722550E-02
    1      -43.839325    -43.838883   1.000000   1.000000
    2      -21.447680    -21.447709   1.000000   1.000000
    3      -17.221583    -17.221627   1.000000   1.000000
    4       -6.553529     -6.553560   1.000000   1.000000
    5       -6.235390     -6.235458   1.000000   1.000000
    6       -5.496878     -5.496912   1.000000   1.000000
    7       -4.201139     -4.201208   1.000000   1.000000
    8       -1.160811     -1.160853   1.000000   1.000000
    9       -0.251088     -0.251153   1.000000   1.000000
   10        4.367131      4.367153   0.000000   0.000000
   11        5.703838      5.703805   0.000000   0.000000
   12        8.446336      8.446359   0.000000   0.000000
   13       10.953257     10.953327   0.000000   0.000000
   14       11.443850     11.443581   0.000000   0.000000
   15       12.580973     12.582011   0.000000   0.000000
   16       12.950754     12.950806   0.000000   0.000000
 
 -0.3636364E+00  0.9090909E-01  0.3233940E-17  0.4722550E-02
    1      -43.839653    -43.839211   1.000000   1.000000
    2      -21.463728    -21.463759   1.000000   1.000000
    3      -17.227764    -17.227808   1.000000   1.000000
    4       -6.609033     -6.609073   1.000000   1.000000
    5       -6.170289     -6.170347   1.000000   1.000000
    6       -5.479313     -5.479348   1.000000   1.000000
    7       -4.147883     -4.147951   1.000000   1.000000
    8       -1.070148     -1.070191   1.000000   1.000000
    9       -0.225589     -0.225656   1.000000   1.000000
   10        4.466489      4.466510   0.000000   0.000000
   11        5.688735      5.688703   0.000000   0.000000
   12        8.339270      8.339248   0.000000   0.000000
   13       10.981387     10.981481   0.000000   0.000000
   14       11.421572     11.420416   0.000000   0.000000
   15       12.398595     12.398716   0.000000   0.000000
   16       12.912819     12.911451   0.000000   0.000000
 
 -0.2727273E+00  0.9090909E-01 -0.2113578E-17  0.4722550E-02
    1      -43.840511    -43.840069   1.000000   1.000000
    2      -21.502851    -21.502882   1.000000   1.000000
    3      -17.247508    -17.247551   1.000000   1.000000
    4       -6.717170     -6.717217   1.000000   1.000000
    5       -5.999780     -5.999823   1.000000   1.000000
    6       -5.425088     -5.425122   1.000000   1.000000
    7       -4.080945     -4.081012   1.000000   1.000000
    8       -0.810263     -0.810312   1.000000   1.000000
    9       -0.119101     -0.119172   1.000000   1.000000
   10        4.731717      4.731733   0.000000   0.000000
   11        5.677745      5.677715   0.000000   0.000000
   12        7.930020      7.929918   0.000000   0.000000
   13       10.952673     10.952352   0.000000   0.000000
   14       11.380680     11.370410   0.000000   0.000000
   15       12.015913     12.015716   0.000000   0.000000
   16       13.023568     12.995566   0.000000   0.000000
 
 -0.1818182E+00  0.9090909E-01 -0.1638035E-16  0.4722550E-02
    1      -43.841619    -43.841177   1.000000   1.000000
    2      -21.551999    -21.552029   1.000000   1.000000
    3      -17.274440    -17.274483   1.000000   1.000000
    4       -6.857889     -6.857939   1.000000   1.000000
    5       -5.744576     -5.744611   1.000000   1.000000
    6       -5.342779     -5.342813   1.000000   1.000000
    7       -4.035313     -4.035378   1.000000   1.000000
    8       -0.438433     -0.438491   1.000000   1.000000
    9        0.033566      0.033490   1.000000   1.000000
   10        5.083169      5.083180   0.000000   0.000000
   11        5.663844      5.663815   0.000000   0.000000
   12        7.270530      7.270582   0.000000   0.000000
   13       10.626488     10.626503   0.000000   0.000000
   14       11.063314     11.062293   0.000000   0.000000
   15       12.386973     12.379568   0.000000   0.000000
   16       13.206271     13.141362   0.000000   0.000000
 
 -0.9090909E-01  0.9090909E-01 -0.2967587E-17  0.2361275E-02
    1      -43.842620    -43.842178   1.000000   1.000000
    2      -21.595527    -21.595556   1.000000   1.000000
    3      -17.299883    -17.299926   1.000000   1.000000
    4       -6.975456     -6.975509   1.000000   1.000000
    5       -5.495682     -5.495713   1.000000   1.000000
    6       -5.257109     -5.257143   1.000000   1.000000
    7       -4.019068     -4.019130   1.000000   1.000000
    8       -0.056274     -0.056341   1.000000   1.000000
    9        0.173550      0.173469   1.000000   1.000000
   10        5.421159      5.421163   0.000000   0.000000
   11        5.653018      5.652990   0.000000   0.000000
   12        6.619724      6.619704   0.000000   0.000000
   13       10.086199     10.086333   0.000000   0.000000
   14       10.785163     10.785152   0.000000   0.000000
   15       13.166391     13.166741   0.000000   0.000000
   16       13.532402     13.531330   0.000000   0.000000
 
  0.1818182E+00  0.1818182E+00  0.7200239E-17  0.2361275E-02
    1      -43.842169    -43.841727   1.000000   1.000000
    2      -21.575139    -21.575169   1.000000   1.000000
    3      -17.300283    -17.300326   1.000000   1.000000
    4       -6.847430     -6.847485   1.000000   1.000000
    5       -5.547360     -5.547396   1.000000   1.000000
    6       -5.356417     -5.356446   1.000000   1.000000
    7       -4.147724     -4.147786   1.000000   1.000000
    8       -0.275157     -0.275222   1.000000   1.000000
    9        0.334821      0.334744   1.000000   1.000000
   10        5.423586      5.423590   0.000000   0.000000
   11        5.660164      5.660137   0.000000   0.000000
   12        6.849646      6.849617   0.000000   0.000000
   13        9.992434      9.992469   0.000000   0.000000
   14       10.736507     10.737370   0.000000   0.000000
   15       13.064078     13.067261   0.000000   0.000000
   16       13.209115     13.208653   0.000000   0.000000
 
  0.2727273E+00  0.1818182E+00  0.7305074E-17  0.4722550E-02
    1      -43.841415    -43.840973   1.000000   1.000000
    2      -21.540383    -21.540413   1.000000   1.000000
    3      -17.284643    -17.284686   1.000000   1.000000
    4       -6.715956     -6.716010   1.000000   1.000000
    5       -5.742288     -5.742327   1.000000   1.000000
    6       -5.421427     -5.421457   1.000000   1.000000
    7       -4.217263     -4.217327   1.000000   1.000000
    8       -0.535737     -0.535796   1.000000   1.000000
    9        0.253648      0.253574   1.000000   1.000000
   10        5.232641      5.232646   0.000000   0.000000
   11        5.584689      5.584666   0.000000   0.000000
   12        7.374942      7.374912   0.000000   0.000000
   13       10.186943     10.187011   0.000000   0.000000
   14       11.036025     11.035312   0.000000   0.000000
   15       12.455546     12.459313   0.000000   0.000000
   16       13.035995     13.036086   0.000000   0.000000
 
  0.3636364E+00  0.1818182E+00 -0.5702049E-16  0.4722550E-02
    1      -43.840469    -43.840026   1.000000   1.000000
    2      -21.496822    -21.496852   1.000000   1.000000
    3      -17.261852    -17.261896   1.000000   1.000000
    4       -6.561224     -6.561275   1.000000   1.000000
    5       -5.954549     -5.954593   1.000000   1.000000
    6       -5.520537     -5.520568   1.000000   1.000000
    7       -4.287850     -4.287916   1.000000   1.000000
    8       -0.791777     -0.791829   1.000000   1.000000
    9        0.054438      0.054369   1.000000   1.000000
   10        4.898005      4.898015   0.000000   0.000000
   11        5.550678      5.550656   0.000000   0.000000
   12        8.086522      8.086477   0.000000   0.000000
   13       10.412697     10.412501   0.000000   0.000000
   14       11.348834     11.348477   0.000000   0.000000
   15       12.073190     12.073414   0.000000   0.000000
   16       12.936036     12.936273   0.000000   0.000000
 
  0.4545455E+00  0.1818182E+00 -0.5798483E-16  0.4722550E-02
    1      -43.839626    -43.839183   1.000000   1.000000
    2      -21.458319    -21.458349   1.000000   1.000000
    3      -17.239022    -17.239065   1.000000   1.000000
    4       -6.445552     -6.445592   1.000000   1.000000
    5       -6.112310     -6.112366   1.000000   1.000000
    6       -5.607923     -5.607958   1.000000   1.000000
    7       -4.343730     -4.343797   1.000000   1.000000
    8       -0.972521     -0.972568   1.000000   1.000000
    9       -0.183316     -0.183379   1.000000   1.000000
   10        4.590667      4.590683   0.000000   0.000000
   11        5.505941      5.505922   0.000000   0.000000
   12        8.728120      8.728122   0.000000   0.000000
   13       10.725661     10.725244   0.000000   0.000000
   14       11.250822     11.250764   0.000000   0.000000
   15       12.218910     12.219019   0.000000   0.000000
   16       12.846758     12.846856   0.000000   0.000000
 
 -0.4545455E+00  0.1818182E+00 -0.1064385E-16  0.4722550E-02
    1      -43.839135    -43.838693   1.000000   1.000000
    2      -21.437384    -21.437414   1.000000   1.000000
    3      -17.223376    -17.223419   1.000000   1.000000
    4       -6.441948     -6.441980   1.000000   1.000000
    5       -6.154540     -6.154606   1.000000   1.000000
    6       -5.652823     -5.652862   1.000000   1.000000
    7       -4.348333     -4.348400   1.000000   1.000000
    8       -1.042582     -1.042627   1.000000   1.000000
    9       -0.377014     -0.377073   1.000000   1.000000
   10        4.407488      4.407508   0.000000   0.000000
   11        5.476640      5.476622   0.000000   0.000000
   12        9.029580      9.029592   0.000000   0.000000
   13       11.066285     11.066144   0.000000   0.000000
   14       11.255422     11.255404   0.000000   0.000000
   15       12.190830     12.190982   0.000000   0.000000
   16       12.806630     12.806895   0.000000   0.000000
 
 -0.3636364E+00  0.1818182E+00  0.5736497E-17  0.4722550E-02
    1      -43.839182    -43.838740   1.000000   1.000000
    2      -21.441131    -21.441161   1.000000   1.000000
    3      -17.220030    -17.220074   1.000000   1.000000
    4       -6.522523     -6.522561   1.000000   1.000000
    5       -6.093469     -6.093529   1.000000   1.000000
    6       -5.669346     -5.669385   1.000000   1.000000
    7       -4.276033     -4.276101   1.000000   1.000000
    8       -1.012486     -1.012531   1.000000   1.000000
    9       -0.449473     -0.449533   1.000000   1.000000
   10        4.395467      4.395487   0.000000   0.000000
   11        5.483185      5.483167   0.000000   0.000000
   12        8.997485      8.997492   0.000000   0.000000
   13       11.072898     11.072878   0.000000   0.000000
   14       11.440935     11.440788   0.000000   0.000000
   15       12.124046     12.123964   0.000000   0.000000
   16       12.781970     12.782328   0.000000   0.000000
 
 -0.2727273E+00  0.1818182E+00 -0.3306331E-16  0.4722550E-02
    1      -43.839751    -43.839308   1.000000   1.000000
    2      -21.468238    -21.468269   1.000000   1.000000
    3      -17.230127    -17.230170   1.000000   1.000000
    4       -6.628351     -6.628393   1.000000   1.000000
    5       -5.995710     -5.995761   1.000000   1.000000
    6       -5.624931     -5.624966   1.000000   1.000000
    7       -4.163253     -4.163321   1.000000   1.000000
    8       -0.907528     -0.907574   1.000000   1.000000
    9       -0.358493     -0.358557   1.000000   1.000000
   10        4.545469      4.545487   0.000000   0.000000
   11        5.524062      5.524041   0.000000   0.000000
   12        8.628798      8.628789   0.000000   0.000000
   13       11.091529     11.091544   0.000000   0.000000
   14       11.525842     11.520695   0.000000   0.000000
   15       11.904456     11.901320   0.000000   0.000000
   16       12.790729     12.794958   0.000000   0.000000
 
 -0.1818182E+00  0.1818182E+00 -0.1040023E-16  0.2361275E-02
    1      -43.840668    -43.840226   1.000000   1.000000
    2      -21.509661    -21.509693   1.000000   1.000000
    3      -17.250458    -17.250501   1.000000   1.000000
    4       -6.748364     -6.748413   1.000000   1.000000
    5       -5.884892     -5.884934   1.000000   1.000000
    6       -5.490790     -5.490825   1.000000   1.000000
    7       -4.073224     -4.073292   1.000000   1.000000
    8       -0.714270     -0.714320   1.000000   1.000000
    9       -0.160788     -0.160859   1.000000   1.000000
   10        4.802202      4.802215   0.000000   0.000000
   11        5.585261      5.585237   0.000000   0.000000
   12        7.973261      7.972782   0.000000   0.000000
   13       11.055757     11.055893   0.000000   0.000000
   14       11.392883     11.377917   0.000000   0.000000
   15       11.848195     11.848228   0.000000   0.000000
   16       12.899961     12.873653   0.000000   0.000000
 
  0.2727273E+00  0.2727273E+00  0.4436825E-17  0.2361275E-02
    1      -43.840940    -43.840498   1.000000   1.000000
    2      -21.517731    -21.517761   1.000000   1.000000
    3      -17.278968    -17.279012   1.000000   1.000000
    4       -6.613755     -6.613807   1.000000   1.000000
    5       -5.827441     -5.827485   1.000000   1.000000
    6       -5.461516     -5.461545   1.000000   1.000000
    7       -4.322937     -4.323003   1.000000   1.000000
    8       -0.747259     -0.747310   1.000000   1.000000
    9        0.328745      0.328670   1.000000   1.000000
   10        5.269357      5.269364   0.000000   0.000000
   11        5.361278      5.361258   0.000000   0.000000
   12        7.707673      7.707628   0.000000   0.000000
   13       10.106975     10.106897   0.000000   0.000000
   14       11.272664     11.271905   0.000000   0.000000
   15       12.328380     12.320370   0.000000   0.000000
   16       12.862835     12.860949   0.000000   0.000000
 
  0.3636364E+00  0.2727273E+00 -0.1230921E-16  0.4722550E-02
    1      -43.840225    -43.839783   1.000000   1.000000
    2      -21.484493    -21.484523   1.000000   1.000000
    3      -17.264711    -17.264755   1.000000   1.000000
    4       -6.503047     -6.503093   1.000000   1.000000
    5       -5.915588     -5.915640   1.000000   1.000000
    6       -5.551032     -5.551062   1.000000   1.000000
    7       -4.431656     -4.431722   1.000000   1.000000
    8       -0.952448     -0.952494   1.000000   1.000000
    9        0.240961      0.240888   1.000000   1.000000
   10        5.020920      5.020924   0.000000   0.000000
   11        5.307932      5.307921   0.000000   0.000000
   12        8.284460      8.284433   0.000000   0.000000
   13       10.162328     10.162381   0.000000   0.000000
   14       11.495136     11.495279   0.000000   0.000000
   15       12.077777     12.074931   0.000000   0.000000
   16       12.702489     12.700908   0.000000   0.000000
 
  0.4545455E+00  0.2727273E+00 -0.7473087E-16  0.4722550E-02
    1      -43.839502    -43.839060   1.000000   1.000000
    2      -21.451143    -21.451172   1.000000   1.000000
    3      -17.246222    -17.246266   1.000000   1.000000
    4       -6.419448     -6.419487   1.000000   1.000000
    5       -5.946724     -5.946784   1.000000   1.000000
    6       -5.686180     -5.686215   1.000000   1.000000
    7       -4.523403     -4.523468   1.000000   1.000000
    8       -1.069390     -1.069433   1.000000   1.000000
    9        0.006540      0.006474   1.000000   1.000000
   10        4.738249      4.738258   0.000000   0.000000
   11        5.254363      5.254356   0.000000   0.000000
   12        9.053062      9.053057   0.000000   0.000000
   13       10.330173     10.330159   0.000000   0.000000
   14       11.426836     11.426954   0.000000   0.000000
   15       11.955241     11.955304   0.000000   0.000000
   16       12.683342     12.682906   0.000000   0.000000
 
 -0.4545455E+00  0.2727273E+00  0.2167619E-16  0.4722550E-02
    1      -43.838971    -43.838529   1.000000   1.000000
    2      -21.428454    -21.428484   1.000000   1.000000
    3      -17.229231    -17.229275   1.000000   1.000000
    4       -6.339709     -6.339743   1.000000   1.000000
    5       -6.055454     -6.055505   1.000000   1.000000
    6       -5.744187     -5.744240   1.000000   1.000000
    7       -4.551708     -4.551773   1.000000   1.000000
    8       -1.056852     -1.056896   1.000000   1.000000
    9       -0.302227     -0.302287   1.000000   1.000000
   10        4.516293      4.516306   0.000000   0.000000
   11        5.227616      5.227611   0.000000   0.000000
   12        9.678884      9.678888   0.000000   0.000000
   13       10.677884     10.677894   0.000000   0.000000
   14       11.372084     11.372158   0.000000   0.000000
   15       11.695502     11.695563   0.000000   0.000000
   16       12.708975     12.709158   0.000000   0.000000
 
 -0.3636364E+00  0.2727273E+00  0.7577330E-17  0.4722550E-02
    1      -43.838823    -43.838381   1.000000   1.000000
    2      -21.423759    -21.423789   1.000000   1.000000
    3      -17.219234    -17.219277   1.000000   1.000000
    4       -6.355876     -6.355911   1.000000   1.000000
    5       -6.076453     -6.076497   1.000000   1.000000
    6       -5.798368     -5.798428   1.000000   1.000000
    7       -4.470076     -4.470141   1.000000   1.000000
    8       -0.915287     -0.915335   1.000000   1.000000
    9       -0.598299     -0.598352   1.000000   1.000000
   10        4.405025      4.405042   0.000000   0.000000
   11        5.268297      5.268290   0.000000   0.000000
   12        9.741746      9.741746   0.000000   0.000000
   13       11.050796     11.050737   0.000000   0.000000
   14       11.394516     11.394558   0.000000   0.000000
   15       11.661289     11.661320   0.000000   0.000000
   16       12.694398     12.694272   0.000000   0.000000
 
 -0.2727273E+00  0.2727273E+00  0.3192432E-16  0.2361275E-02
    1      -43.839121    -43.838679   1.000000   1.000000
    2      -21.438719    -21.438749   1.000000   1.000000
    3      -17.219545    -17.219589   1.000000   1.000000
    4       -6.505138     -6.505175   1.000000   1.000000
    5       -5.910555     -5.910617   1.000000   1.000000
    6       -5.866872     -5.866907   1.000000   1.000000
    7       -4.312300     -4.312367   1.000000   1.000000
    8       -0.847401     -0.847447   1.000000   1.000000
    9       -0.634160     -0.634216   1.000000   1.000000
   10        4.421666      4.421684   0.000000   0.000000
   11        5.376258      5.376247   0.000000   0.000000
   12        9.323778      9.323771   0.000000   0.000000
   13       11.010195     11.010252   0.000000   0.000000
   14       11.677381     11.677485   0.000000   0.000000
   15       11.742359     11.741652   0.000000   0.000000
   16       12.689320     12.689160   0.000000   0.000000
 
  0.3636364E+00  0.3636364E+00 -0.6275699E-16  0.2361275E-02