 running on   12 total cores
 distrk:  each k-point on   12 cores,    1 groups
 distr:  one band on    6 cores,    2 groups
 using from now: INCAR     
 vasp.6.1.2 22Jul20 (build Mar 20 2021 11:25:07) complex                        
  
 POSCAR found type information on POSCAR LiP 
 POSCAR found :  2 types and      16 ions
 scaLAPACK will be used
 LDA part: xc-table for Pade appr. of Perdew
 generate k-points for:    6    6    4
 POSCAR, INCAR and KPOINTS ok, starting setup
 FFT: planning ...
 WAVECAR not read
 entering main loop
       N       E                     dE             d eps       ncg     rms          rms(c)
DAV:   1     0.395061695482E+03    0.39506E+03   -0.25817E+04 10312   0.135E+03
DAV:   2    -0.321835234371E+01   -0.39828E+03   -0.36636E+03 11640   0.321E+02
DAV:   3    -0.555835290230E+02   -0.52365E+02   -0.51646E+02 14858   0.904E+01
DAV:   4    -0.630457890877E+02   -0.74623E+01   -0.73942E+01 18808   0.340E+01
DAV:   5    -0.639112892919E+02   -0.86550E+00   -0.86519E+00 15168   0.793E+00    0.204E+01
DAV:   6    -0.652553385148E+02   -0.13440E+01   -0.28557E+00 13888   0.632E+00    0.107E+01
DAV:   7    -0.665066749290E+02   -0.12513E+01   -0.71724E-01 12934   0.402E+00    0.546E+00
DAV:   8    -0.667452095534E+02   -0.23853E+00   -0.62523E-01 13174   0.298E+00    0.120E+00
DAV:   9    -0.667730449930E+02   -0.27835E-01   -0.83018E-02 15520   0.112E+00    0.468E-01
DAV:  10    -0.667766149698E+02   -0.35700E-02   -0.69101E-03 13012   0.399E-01    0.196E-01
DAV:  11    -0.667780349495E+02   -0.14200E-02   -0.19077E-03 12904   0.215E-01    0.951E-02
DAV:  12    -0.667783329389E+02   -0.29799E-03   -0.65548E-04 13018   0.106E-01    0.412E-02
DAV:  13    -0.667783840126E+02   -0.51074E-04   -0.10070E-04 11696   0.540E-02    0.207E-02
DAV:  14    -0.667783992509E+02   -0.15238E-04   -0.36364E-05 10458   0.311E-02    0.554E-03
DAV:  15    -0.667784009313E+02   -0.16804E-05   -0.49019E-06  7198   0.141E-02
   1 F= -.66778401E+02 E0= -.66778401E+02  d E =0.000000E+00  mag=    -0.0003
