 running on   24 total cores
 distrk:  each k-point on   24 cores,    1 groups
 distr:  one band on    6 cores,    4 groups
 using from now: INCAR     
 vasp.6.1.2 22Jul20 (build Mar 31 2021 18:09:49) complex                        
  
 POSCAR found type information on POSCAR LiO 
 POSCAR found :  2 types and       3 ions
 scaLAPACK will be used
 -----------------------------------------------------------------------------
|                                                                             |
|               ----> ADVICE to this user running VASP <----                  |
|                                                                             |
|     You have a (more or less) 'small supercell' and for smaller cells       |
|     it is recommended to use the reciprocal-space projection scheme!        |
|     The real-space optimization is not efficient for small cells and it     |
|     is also less accurate ...                                               |
|     Therefore, set LREAL=.FALSE. in the INCAR file.                         |
|                                                                             |
 -----------------------------------------------------------------------------

 LDA part: xc-table for Pade appr. of Perdew
 generate k-points for:   12   12   12
 POSCAR, INCAR and KPOINTS ok, starting setup
 FFT: planning ...
 WAVECAR not read
 entering main loop
       N       E                     dE             d eps       ncg     rms          rms(c)
DAV:   1     0.440509062229E+02    0.44051E+02   -0.56412E+03 22976   0.103E+03
DAV:   2    -0.969108126312E+01   -0.53742E+02   -0.51728E+02 27456   0.224E+02
DAV:   3    -0.152770392928E+02   -0.55860E+01   -0.55441E+01 43312   0.534E+01
DAV:   4    -0.153233962668E+02   -0.46357E-01   -0.46350E-01 26388   0.638E+00
DAV:   5    -0.153237781201E+02   -0.38185E-03   -0.38184E-03 31832   0.441E-01    0.116E+01
RMM:   6    -0.141931840498E+02    0.11306E+01   -0.35460E+00 24985   0.125E+01    0.500E+00
RMM:   7    -0.143014759567E+02   -0.10829E+00   -0.12451E-01 28357   0.295E+00    0.208E+00
RMM:   8    -0.143046080410E+02   -0.31321E-02   -0.50867E-02 32328   0.222E+00    0.116E+00
RMM:   9    -0.143171957203E+02   -0.12588E-01   -0.30931E-02 32563   0.198E+00    0.248E-01
RMM:  10    -0.143182490427E+02   -0.10533E-02   -0.91078E-03 37467   0.729E-01    0.143E-01
RMM:  11    -0.143192599987E+02   -0.10110E-02   -0.57443E-03 35595   0.596E-01    0.179E-01
RMM:  12    -0.143190516587E+02    0.20834E-03   -0.16563E-03 36395   0.337E-01    0.795E-02
RMM:  13    -0.143190523123E+02   -0.65363E-06   -0.81296E-04 36655   0.229E-01    0.201E-02
RMM:  14    -0.143190933360E+02   -0.41024E-04   -0.33088E-04 35874   0.126E-01    0.288E-02
RMM:  15    -0.143191115520E+02   -0.18216E-04   -0.12561E-04 32954   0.810E-02    0.298E-02
RMM:  16    -0.143191145647E+02   -0.30127E-05   -0.57274E-05 30200   0.581E-02
   1 F= -.14319115E+02 E0= -.14319115E+02  d E =0.000000E+00  mag=    -0.0000
