 running on   12 total cores
 distrk:  each k-point on   12 cores,    1 groups
 distr:  one band on    6 cores,    2 groups
 using from now: INCAR     
 vasp.6.1.2 22Jul20 (build Mar 20 2021 11:25:07) complex                        
  
 POSCAR found type information on POSCAR LiP N 
 POSCAR found :  3 types and       8 ions
 scaLAPACK will be used
 -----------------------------------------------------------------------------
|                                                                             |
|               ----> ADVICE to this user running VASP <----                  |
|                                                                             |
|     You have a (more or less) 'small supercell' and for smaller cells       |
|     it is recommended to use the reciprocal-space projection scheme!        |
|     The real-space optimization is not efficient for small cells and it     |
|     is also less accurate ...                                               |
|     Therefore, set LREAL=.FALSE. in the INCAR file.                         |
|                                                                             |
 -----------------------------------------------------------------------------

 LDA part: xc-table for Pade appr. of Perdew
 generate k-points for:    8    8   10
 POSCAR, INCAR and KPOINTS ok, starting setup
 FFT: planning ...
 WAVECAR not read
 entering main loop
       N       E                     dE             d eps       ncg     rms          rms(c)
DAV:   1     0.207128061825E+03    0.20713E+03   -0.17445E+04 33696   0.137E+03
DAV:   2    -0.402880707804E+02   -0.24742E+03   -0.23910E+03 41830   0.324E+02
DAV:   3    -0.586138132296E+02   -0.18326E+02   -0.18238E+02 55534   0.809E+01
DAV:   4    -0.596842067617E+02   -0.10704E+01   -0.10671E+01 50784   0.162E+01
DAV:   5    -0.597441016040E+02   -0.59895E-01   -0.59891E-01 50450   0.287E+00    0.259E+01
RMM:   6    -0.537501062851E+02    0.59940E+01   -0.20362E+01 36909   0.216E+01    0.112E+01
RMM:   7    -0.541016642306E+02   -0.35156E+00   -0.50558E+00 50019   0.125E+01    0.569E+00
RMM:   8    -0.541978550515E+02   -0.96191E-01   -0.66564E-01 55366   0.534E+00    0.317E+00
RMM:   9    -0.542025812697E+02   -0.47262E-02   -0.24360E-01 52253   0.339E+00    0.100E+00
RMM:  10    -0.542122528307E+02   -0.96716E-02   -0.10967E-01 59665   0.200E+00    0.381E-01
RMM:  11    -0.542152198640E+02   -0.29670E-02   -0.60240E-02 61699   0.115E+00    0.217E-01
RMM:  12    -0.542182826299E+02   -0.30628E-02   -0.25935E-02 65175   0.735E-01    0.175E-01
RMM:  13    -0.542194189789E+02   -0.11363E-02   -0.98897E-03 64259   0.446E-01    0.571E-02
RMM:  14    -0.542198642103E+02   -0.44523E-03   -0.38021E-03 64201   0.297E-01    0.442E-02
RMM:  15    -0.542200623389E+02   -0.19813E-03   -0.17090E-03 63770   0.196E-01    0.253E-02
RMM:  16    -0.542201330745E+02   -0.70736E-04   -0.69348E-04 62645   0.129E-01    0.128E-02
RMM:  17    -0.542201719899E+02   -0.38915E-04   -0.35049E-04 61420   0.909E-02    0.583E-03
RMM:  18    -0.542201879789E+02   -0.15989E-04   -0.13806E-04 53826   0.637E-02    0.350E-03
RMM:  19    -0.542201917682E+02   -0.37893E-05   -0.42887E-05 42800   0.493E-02
   1 F= -.54220192E+02 E0= -.54220192E+02  d E =0.000000E+00  mag=     0.0000
