   96   96    1    2
  0.8658484E+01  0.9424203E-09  0.9424203E-09  0.9424203E-09  0.5000000E-15
  1.000000000000000E-004
  CAR 
 unknown system                          
    368      8    264
 
  0.0000000E+00  0.0000000E+00  0.0000000E+00  0.3703704E-01
    1      -40.860064    -40.860062   1.000000   1.000000
    2      -40.858720    -40.858718   1.000000   1.000000
    3      -40.855166    -40.855163   1.000000   1.000000
    4      -40.854095    -40.854093   1.000000   1.000000
    5      -40.812695    -40.812683   1.000000   1.000000
    6      -40.812212    -40.812200   1.000000   1.000000
    7      -40.807158    -40.807146   1.000000   1.000000
    8      -40.806434    -40.806422   1.000000   1.000000
    9      -40.733141    -40.733127   1.000000   1.000000
   10      -40.733075    -40.733061   1.000000   1.000000
   11      -40.725153    -40.725139   1.000000   1.000000
   12      -40.724699    -40.724685   1.000000   1.000000
   13      -40.652606    -40.652591   1.000000   1.000000
   14      -40.652545    -40.652531   1.000000   1.000000
   15      -40.550907    -40.550898   1.000000   1.000000
   16      -40.549199    -40.549191   1.000000   1.000000
   17      -40.540046    -40.540037   1.000000   1.000000
   18      -40.540010    -40.540003   1.000000   1.000000
   19      -40.532655    -40.532649   1.000000   1.000000
   20      -40.526013    -40.526007   1.000000   1.000000
   21      -40.521242    -40.521237   1.000000   1.000000
   22      -40.516837    -40.516831   1.000000   1.000000
   23      -40.505367    -40.505362   1.000000   1.000000
   24      -40.503890    -40.503883   1.000000   1.000000
   25      -40.493076    -40.493072   1.000000   1.000000
   26      -40.488532    -40.488529   1.000000   1.000000
   27      -40.471710    -40.471701   1.000000   1.000000
   28      -40.470778    -40.470769   1.000000   1.000000
   29      -40.467255    -40.467246   1.000000   1.000000
   30      -40.466687    -40.466677   1.000000   1.000000
   31      -40.452133    -40.452123   1.000000   1.000000
   32      -40.448900    -40.448890   1.000000   1.000000
   33      -40.439877    -40.439868   1.000000   1.000000
   34      -40.438741    -40.438732   1.000000   1.000000
   35      -40.418106    -40.418100   1.000000   1.000000
   36      -40.417668    -40.417662   1.000000   1.000000
   37      -40.416651    -40.416645   1.000000   1.000000
   38      -40.415652    -40.415645   1.000000   1.000000
   39      -40.333514    -40.333507   1.000000   1.000000
   40      -40.332984    -40.332977   1.000000   1.000000
   41      -40.299445    -40.299441   1.000000   1.000000
   42      -40.297163    -40.297158   1.000000   1.000000
   43      -40.289126    -40.289118   1.000000   1.000000
   44      -40.289082    -40.289073   1.000000   1.000000
   45      -40.272376    -40.272376   1.000000   1.000000
   46      -40.272349    -40.272349   1.000000   1.000000
   47      -40.267317    -40.267317   1.000000   1.000000
   48      -40.267184    -40.267184   1.000000   1.000000
   49      -40.253634    -40.253628   1.000000   1.000000
   50      -40.251784    -40.251778   1.000000   1.000000
   51      -39.907858    -39.907829   1.000000   1.000000
   52      -39.907693    -39.907664   1.000000   1.000000
   53      -39.873797    -39.873771   1.000000   1.000000
   54      -39.868558    -39.868532   1.000000   1.000000
   55      -39.855730    -39.855709   1.000000   1.000000
   56      -39.855714    -39.855693   1.000000   1.000000
   57      -12.876777    -12.876784   1.000000   1.000000
   58      -12.872019    -12.872026   1.000000   1.000000
   59      -12.747731    -12.747738   1.000000   1.000000
   60      -12.745569    -12.745576   1.000000   1.000000
   61      -12.739256    -12.739262   1.000000   1.000000
   62      -12.736552    -12.736559   1.000000   1.000000
   63      -12.727933    -12.727941   1.000000   1.000000
   64      -12.726261    -12.726269   1.000000   1.000000
   65       -9.701625     -9.701634   1.000000   1.000000
   66       -9.680543     -9.680548   1.000000   1.000000
   67       -9.670420     -9.670426   1.000000   1.000000
   68       -9.665226     -9.665235   1.000000   1.000000
   69       -9.577477     -9.577483   1.000000   1.000000
   70       -9.573485     -9.573490   1.000000   1.000000
   71       -9.565964     -9.565970   1.000000   1.000000
   72       -9.563361     -9.563367   1.000000   1.000000
   73       -9.514897     -9.514904   1.000000   1.000000
   74       -9.464329     -9.464336   1.000000   1.000000
   75       -9.416463     -9.416471   1.000000   1.000000
   76       -9.415117     -9.415125   1.000000   1.000000
   77       -9.411104     -9.411111   1.000000   1.000000
   78       -9.398460     -9.398467   1.000000   1.000000
   79       -9.326969     -9.326977   1.000000   1.000000
   80       -9.314393     -9.314401   1.000000   1.000000
   81       -9.311920     -9.311928   1.000000   1.000000
   82       -9.277791     -9.277799   1.000000   1.000000
   83       -9.255356     -9.255364   1.000000   1.000000
   84       -9.234252     -9.234260   1.000000   1.000000
   85       -9.227031     -9.227039   1.000000   1.000000
   86       -9.220095     -9.220103   1.000000   1.000000
   87       -9.196145     -9.196153   1.000000   1.000000
   88       -9.177869     -9.177877   1.000000   1.000000
   89       -2.993420     -2.993425   1.000000   1.000000
   90       -2.733571     -2.733577   1.000000   1.000000
   91       -2.720367     -2.720372   1.000000   1.000000
   92       -2.672434     -2.672439   1.000000   1.000000
   93       -2.658273     -2.658279   1.000000   1.000000
   94       -2.597467     -2.597474   1.000000   1.000000
   95       -2.597010     -2.597016   1.000000   1.000000
   96       -2.558963     -2.558970   1.000000   1.000000
   97       -1.175701     -1.175703   1.000000   1.000000
   98       -1.162888     -1.162891   1.000000   1.000000
   99       -1.126508     -1.126510   1.000000   1.000000
  100       -1.115449     -1.115451   1.000000   1.000000
  101       -1.084498     -1.084500   1.000000   1.000000
  102       -1.083881     -1.083881   1.000000   1.000000
  103       -0.934540     -0.934541   1.000000   1.000000
  104       -0.873284     -0.873288   1.000000   1.000000
  105       -0.827670     -0.827674   1.000000   1.000000
  106       -0.825279     -0.825282   1.000000   1.000000
  107       -0.819655     -0.819658   1.000000   1.000000
  108       -0.789980     -0.789984   1.000000   1.000000
  109       -0.766039     -0.766041   1.000000   1.000000
  110       -0.719358     -0.719361   1.000000   1.000000
  111       -0.659163     -0.659167   1.000000   1.000000
  112       -0.537690     -0.537692   1.000000   1.000000
  113       -0.491136     -0.491140   1.000000   1.000000
  114       -0.449645     -0.449650   1.000000   1.000000
  115       -0.429132     -0.429136   1.000000   1.000000
  116       -0.388643     -0.388644   1.000000   1.000000
  117       -0.374759     -0.374762   1.000000   1.000000
  118       -0.311626     -0.311630   1.000000   1.000000
  119       -0.253318     -0.253323   1.000000   1.000000
  120       -0.248135     -0.248141   1.000000   1.000000
  121        1.096268      1.096267   1.000000   1.000000
  122        1.108618      1.108617   1.000000   1.000000
  123        1.304508      1.304508   1.000000   1.000000
  124        1.305823      1.305821   1.000000   1.000000
  125        1.329771      1.329769   1.000000   1.000000
  126        1.367094      1.367092   1.000000   1.000000
  127        1.368599      1.368598   1.000000   1.000000
  128        1.405558      1.405557   1.000000   1.000000
  129        1.412886      1.412887   1.000000   1.000000
  130        1.459436      1.459434   1.000000   1.000000
  131        1.482480      1.482478   1.000000   1.000000
  132        1.489691      1.489687   1.000000   1.000000
  133        1.522956      1.522955   1.000000   1.000000
  134        1.639219      1.639218   1.000000   1.000000
  135        1.694542      1.694538   1.000000   1.000000
  136        1.733129      1.733126   1.000000   1.000000
  137        1.751863      1.751863   1.000000   1.000000
  138        1.762034      1.762030   1.000000   1.000000
  139        1.780230      1.780231   1.000000   1.000000
  140        1.877641      1.877640   1.000000   1.000000
  141        1.898593      1.898592   1.000000   1.000000
  142        1.923302      1.923296   1.000000   1.000000
  143        1.928979      1.928978   1.000000   1.000000
  144        1.967770      1.967766   1.000000   1.000000
  145        1.993583      1.993578   1.000000   1.000000
  146        2.006871      2.006867   1.000000   1.000000
  147        2.020361      2.020358   1.000000   1.000000
  148        2.049353      2.049348   1.000000   1.000000
  149        2.077166      2.077162   1.000000   1.000000
  150        2.084894      2.084892   1.000000   1.000000
  151        2.115393      2.115390   1.000000   1.000000
  152        2.261751      2.261747   1.000000   1.000000
  153        2.340039      2.340033   1.000000   1.000000
  154        2.351963      2.351958   1.000000   1.000000
  155        2.417382      2.417378   1.000000   1.000000
  156        2.419407      2.419403   1.000000   1.000000
  157        2.473297      2.473294   1.000000   1.000000
  158        2.544530      2.544527   1.000000   1.000000
  159        2.555153      2.555149   1.000000   1.000000
  160        2.587749      2.587746   1.000000   1.000000
  161        2.667939      2.667937   1.000000   1.000000
  162        2.677850      2.677847   1.000000   1.000000
  163        2.706153      2.706151   1.000000   1.000000
  164        2.729049      2.729046   1.000000   1.000000
  165        2.845571      2.845565   1.000000   1.000000
  166        2.921459      2.921455   1.000000   1.000000
  167        2.939151      2.939146   1.000000   1.000000
  168        2.945755      2.945751   1.000000   1.000000
  169        2.952758      2.952753   1.000000   1.000000
  170        3.160720      3.160714   1.000000   1.000000
  171        3.180491      3.180487   1.000000   1.000000
  172        3.188593      3.188589   1.000000   1.000000
  173        3.266285      3.266280   1.000000   1.000000
  174        3.319757      3.319754   1.000000   1.000000
  175        3.336830      3.336825   1.000000   1.000000
  176        3.410366      3.410362   1.000000   1.000000
  177        3.441977      3.441971   1.000000   1.000000
  178        3.458145      3.458141   1.000000   1.000000
  179        3.499090      3.499084   1.000000   1.000000
  180        3.513168      3.513162   1.000000   1.000000
  181        3.611731      3.611725   1.000000   1.000000
  182        3.624964      3.624960   1.000000   1.000000
  183        3.684064      3.684061   1.000000   1.000000
  184        3.720393      3.720388   1.000000   1.000000
  185        7.022684      7.022721   0.000000   0.000000
  186        7.120529      7.120551   0.000000   0.000000
  187        7.120566      7.120600   0.000000   0.000000
  188        7.511518      7.511522   0.000000   0.000000
  189        7.864746      7.864752   0.000000   0.000000
  190        8.239104      8.239109   0.000000   0.000000
  191        8.273265      8.273271   0.000000   0.000000
  192        8.353358      8.353375   0.000000   0.000000
  193        8.397520      8.397528   0.000000   0.000000
  194        8.441864      8.441873   0.000000   0.000000
  195        8.666728      8.666729   0.000000   0.000000
  196        8.854900      8.854982   0.000000   0.000000
  197        8.892345      8.892346   0.000000   0.000000
  198        9.069732      9.069735   0.000000   0.000000
  199        9.241509      9.241528   0.000000   0.000000
  200        9.250767      9.250783   0.000000   0.000000
  201        9.291928      9.291936   0.000000   0.000000
  202        9.342407      9.342411   0.000000   0.000000
  203        9.367050      9.367073   0.000000   0.000000
  204        9.385890      9.385904   0.000000   0.000000
  205        9.512874      9.512887   0.000000   0.000000
  206        9.604524      9.604532   0.000000   0.000000
  207        9.641691      9.641698   0.000000   0.000000
  208        9.694153      9.694171   0.000000   0.000000
  209        9.861827      9.861821   0.000000   0.000000
  210        9.867109      9.867213   0.000000   0.000000
  211        9.897440      9.897446   0.000000   0.000000
  212        9.972310      9.972313   0.000000   0.000000
  213       10.090712     10.090713   0.000000   0.000000
  214       10.216585     10.216569   0.000000   0.000000
  215       10.390693     10.390696   0.000000   0.000000
  216       10.457653     10.457659   0.000000   0.000000
  217       10.707291     10.707298   0.000000   0.000000
  218       10.747997     10.748046   0.000000   0.000000
  219       10.872647     10.872541   0.000000   0.000000
  220       10.932991     10.932948   0.000000   0.000000
  221       11.050121     11.050303   0.000000   0.000000
  222       11.098556     11.098590   0.000000   0.000000
  223       11.223433     11.223480   0.000000   0.000000
  224       11.264195     11.264223   0.000000   0.000000
  225       11.290535     11.290729   0.000000   0.000000
  226       11.514515     11.514478   0.000000   0.000000
  227       11.531756     11.531775   0.000000   0.000000
  228       11.569085     11.568769   0.000000   0.000000
  229       11.602399     11.602521   0.000000   0.000000
  230       11.623358     11.623403   0.000000   0.000000
  231       11.663399     11.663166   0.000000   0.000000
  232       11.790092     11.789973   0.000000   0.000000
  233       11.811332     11.811276   0.000000   0.000000
  234       11.886280     11.886242   0.000000   0.000000
  235       11.920916     11.921961   0.000000   0.000000
  236       11.958535     11.958462   0.000000   0.000000
  237       12.141552     12.141667   0.000000   0.000000
  238       12.157571     12.157918   0.000000   0.000000
  239       12.169033     12.169331   0.000000   0.000000
  240       12.236047     12.234721   0.000000   0.000000
  241       12.238930     12.235310   0.000000   0.000000
  242       12.586213     12.584589   0.000000   0.000000
  243       12.594851     12.594977   0.000000   0.000000
  244       12.752271     12.760792   0.000000   0.000000
  245       12.782133     12.791684   0.000000   0.000000
  246       12.812226     12.810388   0.000000   0.000000
  247       12.839245     12.862811   0.000000   0.000000
  248       12.966120     12.968024   0.000000   0.000000
  249       12.984746     12.980149   0.000000   0.000000
  250       13.016089     13.042971   0.000000   0.000000
  251       13.068955     13.075660   0.000000   0.000000
  252       13.119011     13.124473   0.000000   0.000000
  253       13.129839     13.136877   0.000000   0.000000
  254       13.170398     13.215618   0.000000   0.000000
  255       13.242115     13.255209   0.000000   0.000000
  256       13.262664     13.327706   0.000000   0.000000
  257       13.327572     13.356170   0.000000   0.000000
  258       13.407966     13.401744   0.000000   0.000000
  259       13.482771     13.494093   0.000000   0.000000
  260       13.489507     13.611734   0.000000   0.000000
  261       13.671102     13.666791   0.000000   0.000000
  262       13.671508     13.813978   0.000000   0.000000
  263       13.906009     13.912792   0.000000   0.000000
  264       13.949806     13.915939   0.000000   0.000000
 
  0.3333333E+00 -0.3447815E-18  0.0000000E+00  0.1481481E+00
    1      -40.859574    -40.859572   1.000000   1.000000
    2      -40.858862    -40.858860   1.000000   1.000000
    3      -40.854743    -40.854741   1.000000   1.000000
    4      -40.854176    -40.854175   1.000000   1.000000
    5      -40.812958    -40.812946   1.000000   1.000000
    6      -40.812716    -40.812705   1.000000   1.000000
    7      -40.807188    -40.807176   1.000000   1.000000
    8      -40.806840    -40.806828   1.000000   1.000000
    9      -40.732790    -40.732776   1.000000   1.000000
   10      -40.731450    -40.731436   1.000000   1.000000
   11      -40.726824    -40.726810   1.000000   1.000000
   12      -40.724657    -40.724643   1.000000   1.000000
   13      -40.652577    -40.652562   1.000000   1.000000
   14      -40.652337    -40.652322   1.000000   1.000000
   15      -40.550261    -40.550253   1.000000   1.000000
   16      -40.548783    -40.548774   1.000000   1.000000
   17      -40.541670    -40.541662   1.000000   1.000000
   18      -40.540059    -40.540051   1.000000   1.000000
   19      -40.530892    -40.530886   1.000000   1.000000
   20      -40.526538    -40.526533   1.000000   1.000000
   21      -40.520348    -40.520342   1.000000   1.000000
   22      -40.517940    -40.517934   1.000000   1.000000
   23      -40.505416    -40.505410   1.000000   1.000000
   24      -40.503138    -40.503133   1.000000   1.000000
   25      -40.494373    -40.494369   1.000000   1.000000
   26      -40.490061    -40.490057   1.000000   1.000000
   27      -40.471860    -40.471851   1.000000   1.000000
   28      -40.471057    -40.471048   1.000000   1.000000
   29      -40.466556    -40.466547   1.000000   1.000000
   30      -40.465965    -40.465956   1.000000   1.000000
   31      -40.450641    -40.450631   1.000000   1.000000
   32      -40.448015    -40.448005   1.000000   1.000000
   33      -40.441873    -40.441864   1.000000   1.000000
   34      -40.438709    -40.438700   1.000000   1.000000
   35      -40.420795    -40.420789   1.000000   1.000000
   36      -40.417249    -40.417243   1.000000   1.000000
   37      -40.416114    -40.416108   1.000000   1.000000
   38      -40.413530    -40.413524   1.000000   1.000000
   39      -40.333261    -40.333254   1.000000   1.000000
   40      -40.328336    -40.328330   1.000000   1.000000
   41      -40.313615    -40.313609   1.000000   1.000000
   42      -40.298274    -40.298269   1.000000   1.000000
   43      -40.289088    -40.289080   1.000000   1.000000
   44      -40.273840    -40.273834   1.000000   1.000000
   45      -40.272361    -40.272361   1.000000   1.000000
   46      -40.271107    -40.271107   1.000000   1.000000
   47      -40.268491    -40.268491   1.000000   1.000000
   48      -40.267332    -40.267332   1.000000   1.000000
   49      -40.257889    -40.257883   1.000000   1.000000
   50      -40.252527    -40.252521   1.000000   1.000000
   51      -39.907816    -39.907787   1.000000   1.000000
   52      -39.907608    -39.907580   1.000000   1.000000
   53      -39.873795    -39.873770   1.000000   1.000000
   54      -39.868563    -39.868538   1.000000   1.000000
   55      -39.855819    -39.855798   1.000000   1.000000
   56      -39.855721    -39.855700   1.000000   1.000000
   57      -12.874997    -12.875004   1.000000   1.000000
   58      -12.872632    -12.872639   1.000000   1.000000
   59      -12.747716    -12.747724   1.000000   1.000000
   60      -12.745563    -12.745571   1.000000   1.000000
   61      -12.739470    -12.739477   1.000000   1.000000
   62      -12.737608    -12.737614   1.000000   1.000000
   63      -12.727439    -12.727447   1.000000   1.000000
   64      -12.726905    -12.726911   1.000000   1.000000
   65       -9.702600     -9.702609   1.000000   1.000000
   66       -9.674343     -9.674349   1.000000   1.000000
   67       -9.669936     -9.669942   1.000000   1.000000
   68       -9.665783     -9.665792   1.000000   1.000000
   69       -9.584731     -9.584737   1.000000   1.000000
   70       -9.577336     -9.577341   1.000000   1.000000
   71       -9.562268     -9.562274   1.000000   1.000000
   72       -9.559938     -9.559944   1.000000   1.000000
   73       -9.503749     -9.503756   1.000000   1.000000
   74       -9.471995     -9.472002   1.000000   1.000000
   75       -9.434550     -9.434558   1.000000   1.000000
   76       -9.408998     -9.409006   1.000000   1.000000
   77       -9.403551     -9.403558   1.000000   1.000000
   78       -9.393710     -9.393717   1.000000   1.000000
   79       -9.331425     -9.331434   1.000000   1.000000
   80       -9.322775     -9.322783   1.000000   1.000000
   81       -9.298489     -9.298497   1.000000   1.000000
   82       -9.273403     -9.273411   1.000000   1.000000
   83       -9.261273     -9.261281   1.000000   1.000000
   84       -9.230183     -9.230191   1.000000   1.000000
   85       -9.229400     -9.229408   1.000000   1.000000
   86       -9.214718     -9.214725   1.000000   1.000000
   87       -9.199957     -9.199965   1.000000   1.000000
   88       -9.185892     -9.185900   1.000000   1.000000
   89       -2.937196     -2.937202   1.000000   1.000000
   90       -2.811920     -2.811925   1.000000   1.000000
   91       -2.703669     -2.703676   1.000000   1.000000
   92       -2.694821     -2.694827   1.000000   1.000000
   93       -2.638892     -2.638898   1.000000   1.000000
   94       -2.603247     -2.603253   1.000000   1.000000
   95       -2.586702     -2.586708   1.000000   1.000000
   96       -2.577285     -2.577291   1.000000   1.000000
   97       -1.163535     -1.163538   1.000000   1.000000
   98       -1.146277     -1.146279   1.000000   1.000000
   99       -1.116023     -1.116024   1.000000   1.000000
  100       -1.072503     -1.072505   1.000000   1.000000
  101       -1.041400     -1.041401   1.000000   1.000000
  102       -1.022607     -1.022608   1.000000   1.000000
  103       -0.965883     -0.965885   1.000000   1.000000
  104       -0.909576     -0.909579   1.000000   1.000000
  105       -0.856579     -0.856582   1.000000   1.000000
  106       -0.837706     -0.837709   1.000000   1.000000
  107       -0.797405     -0.797408   1.000000   1.000000
  108       -0.735207     -0.735211   1.000000   1.000000
  109       -0.710957     -0.710960   1.000000   1.000000
  110       -0.684127     -0.684130   1.000000   1.000000
  111       -0.634162     -0.634165   1.000000   1.000000
  112       -0.575937     -0.575939   1.000000   1.000000
  113       -0.528116     -0.528120   1.000000   1.000000
  114       -0.490066     -0.490069   1.000000   1.000000
  115       -0.477512     -0.477515   1.000000   1.000000
  116       -0.418583     -0.418586   1.000000   1.000000
  117       -0.387500     -0.387504   1.000000   1.000000
  118       -0.357195     -0.357198   1.000000   1.000000
  119       -0.273704     -0.273708   1.000000   1.000000
  120       -0.244718     -0.244723   1.000000   1.000000
  121        1.133381      1.133379   1.000000   1.000000
  122        1.163728      1.163727   1.000000   1.000000
  123        1.248406      1.248405   1.000000   1.000000
  124        1.272469      1.272468   1.000000   1.000000
  125        1.323872      1.323871   1.000000   1.000000
  126        1.335262      1.335260   1.000000   1.000000
  127        1.364177      1.364176   1.000000   1.000000
  128        1.378339      1.378337   1.000000   1.000000
  129        1.398286      1.398285   1.000000   1.000000
  130        1.412134      1.412132   1.000000   1.000000
  131        1.428044      1.428044   1.000000   1.000000
  132        1.468593      1.468592   1.000000   1.000000
  133        1.547959      1.547960   1.000000   1.000000
  134        1.558355      1.558356   1.000000   1.000000
  135        1.589411      1.589410   1.000000   1.000000
  136        1.688827      1.688826   1.000000   1.000000
  137        1.741614      1.741611   1.000000   1.000000
  138        1.773196      1.773193   1.000000   1.000000
  139        1.803516      1.803513   1.000000   1.000000
  140        1.870691      1.870688   1.000000   1.000000
  141        1.886464      1.886461   1.000000   1.000000
  142        1.927640      1.927637   1.000000   1.000000
  143        1.940758      1.940754   1.000000   1.000000
  144        1.955891      1.955888   1.000000   1.000000
  145        1.973118      1.973115   1.000000   1.000000
  146        2.009746      2.009742   1.000000   1.000000
  147        2.059577      2.059573   1.000000   1.000000
  148        2.068501      2.068498   1.000000   1.000000
  149        2.108527      2.108523   1.000000   1.000000
  150        2.212452      2.212448   1.000000   1.000000
  151        2.234975      2.234972   1.000000   1.000000
  152        2.257902      2.257898   1.000000   1.000000
  153        2.337040      2.337037   1.000000   1.000000
  154        2.348761      2.348758   1.000000   1.000000
  155        2.390445      2.390441   1.000000   1.000000
  156        2.488992      2.488988   1.000000   1.000000
  157        2.549755      2.549751   1.000000   1.000000
  158        2.590677      2.590673   1.000000   1.000000
  159        2.611207      2.611203   1.000000   1.000000
  160        2.637632      2.637628   1.000000   1.000000
  161        2.672607      2.672603   1.000000   1.000000
  162        2.712665      2.712661   1.000000   1.000000
  163        2.796580      2.796576   1.000000   1.000000
  164        2.820359      2.820355   1.000000   1.000000
  165        2.898243      2.898239   1.000000   1.000000
  166        2.920771      2.920767   1.000000   1.000000
  167        2.961496      2.961492   1.000000   1.000000
  168        2.992991      2.992987   1.000000   1.000000
  169        3.020872      3.020868   1.000000   1.000000
  170        3.138687      3.138682   1.000000   1.000000
  171        3.161423      3.161419   1.000000   1.000000
  172        3.207622      3.207618   1.000000   1.000000
  173        3.225920      3.225916   1.000000   1.000000
  174        3.246061      3.246057   1.000000   1.000000
  175        3.315085      3.315080   1.000000   1.000000
  176        3.359409      3.359403   1.000000   1.000000
  177        3.382384      3.382379   1.000000   1.000000
  178        3.419107      3.419102   1.000000   1.000000
  179        3.438153      3.438149   1.000000   1.000000
  180        3.471129      3.471125   1.000000   1.000000
  181        3.554900      3.554895   1.000000   1.000000
  182        3.575831      3.575827   1.000000   1.000000
  183        3.602323      3.602318   1.000000   1.000000
  184        3.633066      3.633061   1.000000   1.000000
  185        7.226334      7.226353   0.000000   0.000000
  186        7.403945      7.403962   0.000000   0.000000
  187        7.483927      7.483937   0.000000   0.000000
  188        7.642105      7.642121   0.000000   0.000000
  189        7.839629      7.839632   0.000000   0.000000
  190        8.200024      8.200029   0.000000   0.000000
  191        8.345419      8.345423   0.000000   0.000000
  192        8.356708      8.356714   0.000000   0.000000
  193        8.394898      8.394903   0.000000   0.000000
  194        8.417412      8.417420   0.000000   0.000000
  195        8.621990      8.621996   0.000000   0.000000
  196        8.663820      8.663825   0.000000   0.000000
  197        8.837502      8.837518   0.000000   0.000000
  198        8.914259      8.914262   0.000000   0.000000
  199        8.976381      8.976390   0.000000   0.000000
  200        9.036813      9.036816   0.000000   0.000000
  201        9.131740      9.131746   0.000000   0.000000
  202        9.231660      9.231663   0.000000   0.000000
  203        9.260329      9.260330   0.000000   0.000000
  204        9.330313      9.330317   0.000000   0.000000
  205        9.450322      9.450334   0.000000   0.000000
  206        9.496178      9.496220   0.000000   0.000000
  207        9.575325      9.575325   0.000000   0.000000
  208        9.668774      9.668778   0.000000   0.000000
  209        9.733851      9.733857   0.000000   0.000000
  210        9.772307      9.772313   0.000000   0.000000
  211        9.872539      9.872574   0.000000   0.000000
  212        9.911128      9.911120   0.000000   0.000000
  213       10.019196     10.019141   0.000000   0.000000
  214       10.157288     10.157305   0.000000   0.000000
  215       10.328356     10.328361   0.000000   0.000000
  216       10.415835     10.415846   0.000000   0.000000
  217       10.676279     10.676286   0.000000   0.000000
  218       10.821048     10.821059   0.000000   0.000000
  219       10.854374     10.854313   0.000000   0.000000
  220       11.016401     11.016378   0.000000   0.000000
  221       11.067553     11.067667   0.000000   0.000000
  222       11.085842     11.085683   0.000000   0.000000
  223       11.175546     11.175628   0.000000   0.000000
  224       11.332371     11.332341   0.000000   0.000000
  225       11.431469     11.431423   0.000000   0.000000
  226       11.478205     11.478920   0.000000   0.000000
  227       11.550326     11.550361   0.000000   0.000000
  228       11.634405     11.634145   0.000000   0.000000
  229       11.693877     11.693804   0.000000   0.000000
  230       11.739935     11.739982   0.000000   0.000000
  231       11.792829     11.792488   0.000000   0.000000
  232       11.846274     11.845927   0.000000   0.000000
  233       11.913026     11.913030   0.000000   0.000000
  234       11.951148     11.951159   0.000000   0.000000
  235       12.032366     12.031392   0.000000   0.000000
  236       12.071658     12.071813   0.000000   0.000000
  237       12.168569     12.168702   0.000000   0.000000
  238       12.198633     12.199457   0.000000   0.000000
  239       12.298131     12.295888   0.000000   0.000000
  240       12.342744     12.341867   0.000000   0.000000
  241       12.433320     12.432822   0.000000   0.000000
  242       12.491711     12.491724   0.000000   0.000000
  243       12.553662     12.552044   0.000000   0.000000
  244       12.670059     12.646218   0.000000   0.000000
  245       12.776558     12.707428   0.000000   0.000000
  246       12.814765     12.818789   0.000000   0.000000
  247       12.869884     12.877447   0.000000   0.000000