       N       E                     dE             d eps       ncg     rms          rms(c)
DAV:   1     0.348911340409E+04    0.34891E+04   -0.15357E+05  8448   0.156E+03
DAV:   2     0.351043139436E+02   -0.34540E+04   -0.31160E+04  9024   0.436E+02
DAV:   3    -0.447611711079E+03   -0.48272E+03   -0.47610E+03 11472   0.145E+02
DAV:   4    -0.517599952300E+03   -0.69988E+02   -0.69237E+02 15144   0.475E+01
DAV:   5    -0.524492644064E+03   -0.68927E+01   -0.68873E+01 13440   0.126E+01    0.744E+01
RMM:   6    -0.466845610404E+03    0.57647E+02   -0.21071E+02 10098   0.211E+01    0.325E+01
RMM:   7    -0.480175359308E+03   -0.13330E+02   -0.47584E+01 13562   0.122E+01    0.175E+01
RMM:   8    -0.482749083634E+03   -0.25737E+01   -0.11698E+01 15145   0.570E+00    0.913E+00
RMM:   9    -0.483516773335E+03   -0.76769E+00   -0.51844E+00 13786   0.432E+00    0.295E+00
RMM:  10    -0.483619896267E+03   -0.10312E+00   -0.22525E+00 15139   0.283E+00    0.159E+00
RMM:  11    -0.483719729352E+03   -0.99833E-01   -0.13700E+00 15691   0.164E+00    0.128E+00
RMM:  12    -0.483793960515E+03   -0.74231E-01   -0.65143E-01 15990   0.108E+00    0.105E+00
RMM:  13    -0.483825291491E+03   -0.31331E-01   -0.27152E-01 15551   0.732E-01    0.494E-01
RMM:  14    -0.483838543766E+03   -0.13252E-01   -0.12058E-01 15951   0.523E-01    0.117E-01
RMM:  15    -0.483845867110E+03   -0.73233E-02   -0.68512E-02 16000   0.364E-01    0.859E-02
RMM:  16    -0.483849507019E+03   -0.36399E-02   -0.33414E-02 16000   0.259E-01    0.762E-02
RMM:  17    -0.483851350867E+03   -0.18438E-02   -0.18785E-02 15106   0.189E-01    0.276E-02
RMM:  18    -0.483852484519E+03   -0.11337E-02   -0.11164E-02 14208   0.142E-01    0.186E-02
RMM:  19    -0.483853154401E+03   -0.66988E-03   -0.62292E-03 14208   0.107E-01    0.242E-02
RMM:  20    -0.483853534169E+03   -0.37977E-03   -0.37716E-03 14203   0.816E-02    0.168E-02
RMM:  21    -0.483853775349E+03   -0.24118E-03   -0.24357E-03 14081   0.634E-02    0.109E-02
RMM:  22    -0.483853923487E+03   -0.14814E-03   -0.15365E-03 13410   0.497E-02    0.371E-03
RMM:  23    -0.483854030630E+03   -0.10714E-03   -0.10338E-03 12933   0.400E-02    0.416E-03
RMM:  24    -0.483854091672E+03   -0.61042E-04   -0.68035E-04 12059   0.324E-02    0.332E-03
RMM:  25    -0.483854144135E+03   -0.52462E-04   -0.47866E-04 12113   0.274E-02    0.209E-03
RMM:  26    -0.483854176483E+03   -0.32349E-04   -0.31690E-04 10439   0.229E-02    0.282E-03
RMM:  27    -0.483854198508E+03   -0.22025E-04   -0.23347E-04 10747   0.205E-02    0.271E-03
RMM:  28    -0.483854214554E+03   -0.16046E-04   -0.16695E-04 10501   0.184E-02    0.315E-03
RMM:  29    -0.483854226008E+03   -0.11454E-04   -0.12313E-04 10101   0.167E-02    0.344E-03
RMM:  30    -0.483854233340E+03   -0.73321E-05   -0.81960E-05  9105   0.154E-02
   1 F= -.48385423E+03 E0= -.48385423E+03  d E =0.000000E+00  mag=     0.0000
