 running on   12 total cores
 distrk:  each k-point on   12 cores,    1 groups
 distr:  one band on    6 cores,    2 groups
 using from now: INCAR     
 vasp.6.1.2 22Jul20 (build Mar 20 2021 11:25:07) complex                        
  
 POSCAR found type information on POSCAR LiP O 
 POSCAR found :  3 types and      26 ions
 scaLAPACK will be used
 LDA part: xc-table for Pade appr. of Perdew
 generate k-points for:    7    5    4
 POSCAR, INCAR and KPOINTS ok, starting setup
 FFT: planning ...
 WAVECAR not read
 entering main loop
       N       E                     dE             d eps       ncg     rms          rms(c)
DAV:   1     0.111476686002E+04    0.11148E+04   -0.61982E+04 24424   0.152E+03
DAV:   2    -0.609598047357E+02   -0.11757E+04   -0.11047E+04 29264   0.393E+02
DAV:   3    -0.172801215809E+03   -0.11184E+03   -0.11110E+03 31544   0.124E+02
DAV:   4    -0.182555356699E+03   -0.97541E+01   -0.97115E+01 45760   0.297E+01
DAV:   5    -0.184122686354E+03   -0.15673E+01   -0.15668E+01 34248   0.693E+00    0.508E+01
DAV:   6    -0.163792426991E+03    0.20330E+02   -0.89734E+01 30456   0.322E+01    0.260E+01
DAV:   7    -0.165772252180E+03   -0.19798E+01   -0.74233E+00 31480   0.925E+00    0.889E+00
DAV:   8    -0.166051824412E+03   -0.27957E+00   -0.80876E-01 32496   0.360E+00    0.450E+00
DAV:   9    -0.166179802133E+03   -0.12798E+00   -0.14415E-01 33232   0.164E+00    0.190E+00
DAV:  10    -0.166208297996E+03   -0.28496E-01   -0.59457E-02 30040   0.117E+00    0.556E-01
DAV:  11    -0.166218471607E+03   -0.10174E-01   -0.11560E-02 30824   0.445E-01    0.296E-01
DAV:  12    -0.166221346213E+03   -0.28746E-02   -0.23082E-03 30344   0.215E-01    0.154E-01
DAV:  13    -0.166222592978E+03   -0.12468E-02   -0.96805E-04 28936   0.126E-01    0.540E-02
DAV:  14    -0.166222807465E+03   -0.21449E-03   -0.17770E-04 31848   0.584E-02    0.296E-02
DAV:  15    -0.166222868025E+03   -0.60560E-04   -0.48515E-05 25112   0.292E-02    0.183E-02
DAV:  16    -0.166222883139E+03   -0.15113E-04   -0.10578E-05 20024   0.140E-02    0.941E-03
DAV:  17    -0.166222887088E+03   -0.39490E-05   -0.53627E-06 17616   0.966E-03
   1 F= -.16622289E+03 E0= -.16622289E+03  d E =0.000000E+00  mag=    -0.0007
