 running on    8 total cores
 distrk:  each k-point on    8 cores,    1 groups
 distr:  one band on    1 cores,    8 groups
 using from now: INCAR     
 vasp.6.1.2 22Jul20 (build Mar 20 2021 11:25:07) complex                        
  
 POSCAR found type information on POSCAR LiP O 
 POSCAR found :  3 types and      16 ions
 scaLAPACK will be used
 -----------------------------------------------------------------------------
|                                                                             |
|           W    W    AA    RRRRR   N    N  II  N    N   GGGG   !!!           |
|           W    W   A  A   R    R  NN   N  II  NN   N  G    G  !!!           |
|           W    W  A    A  R    R  N N  N  II  N N  N  G       !!!           |
|           W WW W  AAAAAA  RRRRR   N  N N  II  N  N N  G  GGG   !            |
|           WW  WW  A    A  R   R   N   NN  II  N   NN  G    G                |
|           W    W  A    A  R    R  N    N  II  N    N   GGGG   !!!           |
|                                                                             |
|     The value NCORE = 6 specified in the INCAR file was overwritten,        |
|     because it was not compatible with the 8 processes available:           |
|     NCORE = 1                                                               |
|     was used instead, please check that this makes sense for your           |
|     machine.                                                                |
|                                                                             |
 -----------------------------------------------------------------------------

 -----------------------------------------------------------------------------
|                                                                             |
|           W    W    AA    RRRRR   N    N  II  N    N   GGGG   !!!           |
|           W    W   A  A   R    R  NN   N  II  NN   N  G    G  !!!           |
|           W    W  A    A  R    R  N N  N  II  N N  N  G       !!!           |
|           W WW W  AAAAAA  RRRRR   N  N N  II  N  N N  G  GGG   !            |
|           WW  WW  A    A  R   R   N   NN  II  N   NN  G    G                |
|           W    W  A    A  R    R  N    N  II  N    N   GGGG   !!!           |
|                                                                             |
|     For optimal performance we recommend to set                             |
|       NCORE = 4 - approx SQRT(number of cores).                             |
|     NCORE specifies how many cores store one orbital (NPAR=cpu/NCORE).      |
|     This setting can greatly improve the performance of VASP for DFT.       |
|     The default, NCORE=1 might be grossly inefficient on modern             |
|     multi-core architectures or massively parallel machines. Do your        |
|     own testing!!!!                                                         |
|     Unfortunately you need to use the default for GW and RPA                |
|     calculations (for HF NCORE is supported but not extensively tested      |
|     yet).                                                                   |
|                                                                             |
 -----------------------------------------------------------------------------

 LDA part: xc-table for Pade appr. of Perdew
 generate k-points for:    7    6    5
 POSCAR, INCAR and KPOINTS ok, starting setup
 FFT: planning ...
 WAVECAR not read
 entering main loop
       N       E                     dE             d eps       ncg     rms          rms(c)
DAV:   1     0.603052433890E+03    0.60305E+03   -0.36459E+04 14784   0.142E+03
DAV:   2    -0.451520032765E+02   -0.64820E+03   -0.61229E+03 16968   0.374E+02
DAV:   3    -0.103194601258E+03   -0.58043E+02   -0.57709E+02 20376   0.105E+02
DAV:   4    -0.108571860866E+03   -0.53773E+01   -0.53441E+01 25160   0.264E+01
DAV:   5    -0.109051973162E+03   -0.48011E+00   -0.47995E+00 20664   0.550E+00    0.372E+01
RMM:   6    -0.992160129970E+02    0.98360E+01   -0.38153E+01 16137   0.218E+01    0.148E+01
RMM:   7    -0.100267453612E+03   -0.10514E+01   -0.38420E+00 21274   0.751E+00    0.792E+00
RMM:   8    -0.100469169533E+03   -0.20172E+00   -0.86579E-01 23631   0.390E+00    0.397E+00
RMM:   9    -0.100542337583E+03   -0.73168E-01   -0.31591E-01 23955   0.280E+00    0.776E-01
RMM:  10    -0.100570489803E+03   -0.28152E-01   -0.22110E-01 27508   0.160E+00    0.355E-01
RMM:  11    -0.100584386893E+03   -0.13897E-01   -0.96813E-02 28191   0.986E-01    0.279E-01
RMM:  12    -0.100590396892E+03   -0.60100E-02   -0.38758E-02 28653   0.609E-01    0.166E-01
RMM:  13    -0.100592504710E+03   -0.21078E-02   -0.14751E-02 27865   0.409E-01    0.760E-02
RMM:  14    -0.100593431873E+03   -0.92716E-03   -0.75571E-03 28451   0.284E-01    0.304E-02
RMM:  15    -0.100593794196E+03   -0.36232E-03   -0.32746E-03 27875   0.177E-01    0.268E-02
RMM:  16    -0.100593947651E+03   -0.15345E-03   -0.14471E-03 27486   0.117E-01    0.168E-02
RMM:  17    -0.100594017739E+03   -0.70088E-04   -0.59678E-04 26874   0.803E-02    0.125E-02
RMM:  18    -0.100594047464E+03   -0.29725E-04   -0.28683E-04 26127   0.529E-02    0.123E-02
RMM:  19    -0.100594061963E+03   -0.14498E-04   -0.10808E-04 23126   0.370E-02    0.212E-02
RMM:  20    -0.100594062526E+03   -0.56306E-06   -0.53181E-05 22803   0.296E-02
   1 F= -.10059406E+03 E0= -.10059406E+03  d E =0.000000E+00  mag=    -0.0001
