 running on   12 total cores
 distrk:  each k-point on   12 cores,    1 groups
 distr:  one band on    6 cores,    2 groups
 using from now: INCAR     
 vasp.6.1.2 22Jul20 (build Mar 20 2021 11:25:07) complex                        
  
 POSCAR found type information on POSCAR LiP O 
 POSCAR found :  3 types and      26 ions
 scaLAPACK will be used
 LDA part: xc-table for Pade appr. of Perdew
 generate k-points for:    6    5    4
 POSCAR, INCAR and KPOINTS ok, starting setup
 FFT: planning ...
 WAVECAR not read
 entering main loop
       N       E                     dE             d eps       ncg     rms          rms(c)
DAV:   1     0.111715234649E+04    0.11172E+04   -0.62011E+04 21336   0.152E+03
DAV:   2    -0.628797524422E+02   -0.11800E+04   -0.11091E+04 25624   0.394E+02
DAV:   3    -0.174264364060E+03   -0.11138E+03   -0.11068E+03 27544   0.124E+02
DAV:   4    -0.183887399692E+03   -0.96230E+01   -0.95815E+01 40056   0.295E+01
DAV:   5    -0.185454972180E+03   -0.15676E+01   -0.15671E+01 29952   0.687E+00    0.505E+01
DAV:   6    -0.165563125926E+03    0.19892E+02   -0.89648E+01 26656   0.320E+01    0.252E+01
DAV:   7    -0.167578555651E+03   -0.20154E+01   -0.73953E+00 28040   0.908E+00    0.890E+00
DAV:   8    -0.167862037538E+03   -0.28348E+00   -0.78675E-01 28584   0.353E+00    0.445E+00
DAV:   9    -0.167997862211E+03   -0.13582E+00   -0.13600E-01 28760   0.159E+00    0.172E+00
DAV:  10    -0.168024112532E+03   -0.26250E-01   -0.52251E-02 26656   0.111E+00    0.514E-01
DAV:  11    -0.168034939365E+03   -0.10827E-01   -0.11745E-02 26384   0.452E-01    0.301E-01
DAV:  12    -0.168037671831E+03   -0.27325E-02   -0.20166E-03 28240   0.205E-01    0.158E-01
DAV:  13    -0.168038960968E+03   -0.12891E-02   -0.11123E-03 24672   0.128E-01    0.476E-02
DAV:  14    -0.168039132523E+03   -0.17155E-03   -0.13401E-04 28296   0.576E-02    0.223E-02
DAV:  15    -0.168039195586E+03   -0.63063E-04   -0.67850E-05 22352   0.363E-02    0.138E-02
DAV:  16    -0.168039202564E+03   -0.69780E-05   -0.73576E-06 18256   0.140E-02
   1 F= -.16803920E+03 E0= -.16803920E+03  d E =0.000000E+00  mag=    -0.0013
