 running on    8 total cores
 distrk:  each k-point on    8 cores,    1 groups
 distr:  one band on    1 cores,    8 groups
 using from now: INCAR     
 vasp.6.1.2 22Jul20 (build Mar 20 2021 11:25:07) complex                        
  
 POSCAR found type information on POSCAR LiP O 
 POSCAR found :  3 types and      26 ions
 scaLAPACK will be used
 -----------------------------------------------------------------------------
|                                                                             |
|           W    W    AA    RRRRR   N    N  II  N    N   GGGG   !!!           |
|           W    W   A  A   R    R  NN   N  II  NN   N  G    G  !!!           |
|           W    W  A    A  R    R  N N  N  II  N N  N  G       !!!           |
|           W WW W  AAAAAA  RRRRR   N  N N  II  N  N N  G  GGG   !            |
|           WW  WW  A    A  R   R   N   NN  II  N   NN  G    G                |
|           W    W  A    A  R    R  N    N  II  N    N   GGGG   !!!           |
|                                                                             |
|     The value NCORE = 6 specified in the INCAR file was overwritten,        |
|     because it was not compatible with the 8 processes available:           |
|     NCORE = 1                                                               |
|     was used instead, please check that this makes sense for your           |
|     machine.                                                                |
|                                                                             |
 -----------------------------------------------------------------------------

 -----------------------------------------------------------------------------
|                                                                             |
|           W    W    AA    RRRRR   N    N  II  N    N   GGGG   !!!           |
|           W    W   A  A   R    R  NN   N  II  NN   N  G    G  !!!           |
|           W    W  A    A  R    R  N N  N  II  N N  N  G       !!!           |
|           W WW W  AAAAAA  RRRRR   N  N N  II  N  N N  G  GGG   !            |
|           WW  WW  A    A  R   R   N   NN  II  N   NN  G    G                |
|           W    W  A    A  R    R  N    N  II  N    N   GGGG   !!!           |
|                                                                             |
|     For optimal performance we recommend to set                             |
|       NCORE = 4 - approx SQRT(number of cores).                             |
|     NCORE specifies how many cores store one orbital (NPAR=cpu/NCORE).      |
|     This setting can greatly improve the performance of VASP for DFT.       |
|     The default, NCORE=1 might be grossly inefficient on modern             |
|     multi-core architectures or massively parallel machines. Do your        |
|     own testing!!!!                                                         |
|     Unfortunately you need to use the default for GW and RPA                |
|     calculations (for HF NCORE is supported but not extensively tested      |
|     yet).                                                                   |
|                                                                             |
 -----------------------------------------------------------------------------

 LDA part: xc-table for Pade appr. of Perdew
 -----------------------------------------------------------------------------
|                                                                             |
|           W    W    AA    RRRRR   N    N  II  N    N   GGGG   !!!           |
|           W    W   A  A   R    R  NN   N  II  NN   N  G    G  !!!           |
|           W    W  A    A  R    R  N N  N  II  N N  N  G       !!!           |
|           W WW W  AAAAAA  RRRRR   N  N N  II  N  N N  G  GGG   !            |
|           WW  WW  A    A  R   R   N   NN  II  N   NN  G    G                |
|           W    W  A    A  R    R  N    N  II  N    N   GGGG   !!!           |
|                                                                             |
|     The determination of the symmetry of your systems shows a strong        |
|     dependence on the tolerance parameter SYMPREC. This is often the        |
|     result of "noise" in the structural parameters (lattice vectors         |
|     and/or ionic positions). Set NWRITE=3 for more details.                 |
|                                                                             |
 -----------------------------------------------------------------------------

 generate k-points for:    6    5    4
 POSCAR, INCAR and KPOINTS ok, starting setup
 FFT: planning ...
 WAVECAR not read
 entering main loop
       N       E                     dE             d eps       ncg     rms          rms(c)
DAV:   1     0.109234956505E+04    0.10923E+04   -0.61117E+04 21824   0.148E+03
DAV:   2    -0.611234961161E+02   -0.11535E+04   -0.10807E+04 25864   0.381E+02
DAV:   3    -0.173879610414E+03   -0.11276E+03   -0.11197E+03 28392   0.121E+02
DAV:   4    -0.183339780292E+03   -0.94602E+01   -0.94178E+01 40504   0.289E+01
DAV:   5    -0.184909749893E+03   -0.15700E+01   -0.15694E+01 31064   0.673E+00    0.475E+01
DAV:   6    -0.165267193512E+03    0.19643E+02   -0.86647E+01 27352   0.311E+01    0.230E+01
DAV:   7    -0.167412338161E+03   -0.21451E+01   -0.73416E+00 28016   0.897E+00    0.840E+00
DAV:   8    -0.167723246798E+03   -0.31091E+00   -0.75848E-01 28560   0.343E+00    0.426E+00
DAV:   9    -0.167868003847E+03   -0.14476E+00   -0.13820E-01 30104   0.160E+00    0.159E+00
DAV:  10    -0.167896333176E+03   -0.28329E-01   -0.53434E-02 25976   0.108E+00    0.479E-01
DAV:  11    -0.167906785711E+03   -0.10453E-01   -0.10236E-02 27392   0.411E-01    0.286E-01
DAV:  12    -0.167909869354E+03   -0.30836E-02   -0.22496E-03 27648   0.207E-01    0.144E-01
DAV:  13    -0.167911176138E+03   -0.13068E-02   -0.97837E-04 25752   0.116E-01    0.476E-02
DAV:  14    -0.167911377078E+03   -0.20094E-03   -0.15512E-04 26976   0.587E-02    0.202E-02
DAV:  15    -0.167911433170E+03   -0.56093E-04   -0.59886E-05 23024   0.344E-02    0.142E-02
DAV:  16    -0.167911440704E+03   -0.75338E-05   -0.91857E-06 19152   0.146E-02
   1 F= -.16791144E+03 E0= -.16791144E+03  d E =0.000000E+00  mag=    -0.0012
