    8    8    1    2
  0.1342581E+02  0.4109036E-09  0.4109036E-09  0.7345480E-09  0.5000000E-15
  1.000000000000000E-004
  CAR 
 unknown system                          
     28     36     24
 
  0.0000000E+00  0.0000000E+00  0.0000000E+00  0.3086420E-02
    1      -42.270280    -42.269907   1.000000   1.000000
    2      -42.235047    -42.234671   1.000000   1.000000
    3      -42.229782    -42.229406   1.000000   1.000000
    4      -42.195408    -42.195030   1.000000   1.000000
    5      -41.908510    -41.907974   1.000000   1.000000
    6      -41.908368    -41.907831   1.000000   1.000000
    7       -6.409862     -6.409980   1.000000   1.000000
    8       -5.980762     -5.980833   1.000000   1.000000
    9       -0.437877     -0.437918   1.000000   1.000000
   10        2.484452      2.484384   1.000000   1.000000
   11        2.661037      2.660939   1.000000   1.000000
   12        2.661056      2.660959   1.000000   1.000000
   13        3.116527      3.116473   1.000000   1.000000
   14        3.116528      3.116473   1.000000   1.000000
   15        5.810343      5.810272   0.000000   0.000000
   16        7.066983      7.066907   0.000000   0.000000
   17        7.066985      7.066912   0.000000   0.000000
   18        7.175429      7.175101   0.000000   0.000000
   19        7.435193      7.435122   0.000000   0.000000
   20        7.435216      7.435159   0.000000   0.000000
   21        7.924703      7.924355   0.000000   0.000000
   22        8.983723      8.983530   0.000000   0.000000
   23        8.983754      8.983544   0.000000   0.000000
   24        9.350581      9.350441   0.000000   0.000000
 
  0.1111111E+00 -0.1079835E-16  0.0000000E+00  0.1851852E-01
    1      -42.268904    -42.268531   1.000000   1.000000
    2      -42.233949    -42.233573   1.000000   1.000000
    3      -42.230568    -42.230193   1.000000   1.000000
    4      -42.196372    -42.195995   1.000000   1.000000
    5      -41.908743    -41.908206   1.000000   1.000000
    6      -41.908525    -41.907988   1.000000   1.000000
    7       -6.356514     -6.356634   1.000000   1.000000
    8       -5.943329     -5.943432   1.000000   1.000000
    9       -0.344420     -0.344463   1.000000   1.000000
   10        2.141181      2.141092   1.000000   1.000000
   11        2.377266      2.377181   1.000000   1.000000
   12        2.466229      2.466160   1.000000   1.000000
   13        2.674456      2.674381   1.000000   1.000000
   14        3.020838      3.020774   1.000000   1.000000
   15        5.888532      5.888442   0.000000   0.000000
   16        7.050644      7.050481   0.000000   0.000000
   17        7.356372      7.356226   0.000000   0.000000
   18        7.451739      7.451668   0.000000   0.000000
   19        7.933956      7.933876   0.000000   0.000000
   20        8.090037      8.086709   0.000000   0.000000
   21        8.104859      8.104685   0.000000   0.000000
   22        8.471009      8.470721   0.000000   0.000000
   23        8.539594      8.539427   0.000000   0.000000
   24        9.200635      9.197766   0.000000   0.000000
 
  0.2222222E+00 -0.3328192E-16  0.0000000E+00  0.1851852E-01
    1      -42.265046    -42.264673   1.000000   1.000000
    2      -42.232872    -42.232496   1.000000   1.000000
    3      -42.230848    -42.230473   1.000000   1.000000
    4      -42.199253    -42.198875   1.000000   1.000000
    5      -41.909331    -41.908794   1.000000   1.000000
    6      -41.909003    -41.908466   1.000000   1.000000
    7       -6.208967     -6.209090   1.000000   1.000000
    8       -5.846803     -5.846938   1.000000   1.000000
    9       -0.067529     -0.067576   1.000000   1.000000
   10        1.165607      1.165527   1.000000   1.000000
   11        1.804398      1.804303   1.000000   1.000000
   12        1.885178      1.885101   1.000000   1.000000
   13        2.376731      2.376657   1.000000   1.000000
   14        2.717446      2.717382   1.000000   1.000000
   15        5.930782      5.930671   0.000000   0.000000
   16        6.697413      6.691046   0.000000   0.000000
   17        7.333786      7.333613   0.000000   0.000000
   18        7.567798      7.567651   0.000000   0.000000
   19        7.859480      7.859336   0.000000   0.000000
   20        8.583547      8.583475   0.000000   0.000000
   21        9.082455      9.082342   0.000000   0.000000
   22        9.262259      9.260634   0.000000   0.000000
   23        9.349100      9.348911   0.000000   0.000000
   24        9.872236      9.871980   0.000000   0.000000
 
  0.3333333E+00  0.4051048E-16  0.0000000E+00  0.1851852E-01
    1      -42.259686    -42.259313   1.000000   1.000000
    2      -42.236431    -42.236057   1.000000   1.000000
    3      -42.226372    -42.225996   1.000000   1.000000
    4      -42.203441    -42.203064   1.000000   1.000000
    5      -41.909971    -41.909434   1.000000   1.000000
    6      -41.909542    -41.909005   1.000000   1.000000
    7       -6.009370     -6.009498   1.000000   1.000000
    8       -5.739558     -5.739696   1.000000   1.000000
    9        0.315780      0.315706   1.000000   1.000000
   10        0.377399      0.377344   1.000000   1.000000
   11        1.014084      1.013981   1.000000   1.000000
   12        1.481429      1.481357   1.000000   1.000000
   13        2.119034      2.118958   1.000000   1.000000
   14        2.402650      2.402587   1.000000   1.000000
   15        5.685714      5.685548   0.000000   0.000000
   16        5.999516      5.999397   0.000000   0.000000
   17        7.348396      7.348261   0.000000   0.000000
   18        7.473195      7.473029   0.000000   0.000000
   19        7.991353      7.991185   0.000000   0.000000
   20        9.202221      9.202114   0.000000   0.000000
   21       10.137609     10.138062   0.000000   0.000000
   22       10.243261     10.243164   0.000000   0.000000
   23       10.479453     10.479262   0.000000   0.000000
   24       11.480553     11.490453   0.000000   0.000000
 
  0.4444444E+00 -0.6656385E-16  0.0000000E+00  0.1851852E-01
    1      -42.254908    -42.254535   1.000000   1.000000
    2      -42.240078    -42.239703   1.000000   1.000000
    3      -42.222215    -42.221839   1.000000   1.000000
    4      -42.207484    -42.207107   1.000000   1.000000
    5      -41.910443    -41.909905   1.000000   1.000000
    6      -41.909914    -41.909377   1.000000   1.000000
    7       -5.840304     -5.840439   1.000000   1.000000
    8       -5.687590     -5.687730   1.000000   1.000000
    9       -0.166588     -0.166657   1.000000   1.000000
   10        0.556133      0.556027   1.000000   1.000000
   11        0.933685      0.933616   1.000000   1.000000
   12        1.264178      1.264108   1.000000   1.000000
   13        1.647691      1.647623   1.000000   1.000000
   14        2.219926      2.219864   1.000000   1.000000
   15        5.205118      5.205060   0.000000   0.000000
   16        6.063947      6.063823   0.000000   0.000000
   17        7.083952      7.083821   0.000000   0.000000
   18        7.568887      7.568725   0.000000   0.000000
   19        8.347105      8.346907   0.000000   0.000000
   20        9.065856      9.065765   0.000000   0.000000
   21        9.845468      9.845346   0.000000   0.000000
   22       11.584852     11.584657   0.000000   0.000000
   23       12.272369     12.270724   0.000000   0.000000
   24       12.326800     12.324941   0.000000   0.000000
 
  0.1111111E+00  0.1111111E+00  0.0000000E+00  0.1851852E-01
    1      -42.266250    -42.265877   1.000000   1.000000
    2      -42.232124    -42.231748   1.000000   1.000000
    3      -42.231835    -42.231459   1.000000   1.000000
    4      -42.198321    -42.197944   1.000000   1.000000
    5      -41.909144    -41.908607   1.000000   1.000000
    6      -41.908861    -41.908324   1.000000   1.000000
    7       -6.255816     -6.255938   1.000000   1.000000
    8       -5.876064     -5.876194   1.000000   1.000000
    9       -0.159113     -0.159159   1.000000   1.000000
   10        1.581080      1.580979   1.000000   1.000000
   11        1.692728      1.692667   1.000000   1.000000
   12        2.250293      2.250194   1.000000   1.000000
   13        2.416033      2.415959   1.000000   1.000000
   14        2.731698      2.731642   1.000000   1.000000
   15        6.039545      6.039440   0.000000   0.000000
   16        6.954876      6.957230   0.000000   0.000000
   17        7.414219      7.414076   0.000000   0.000000
   18        7.444405      7.444219   0.000000   0.000000
   19        8.098959      8.098868   0.000000   0.000000
   20        8.125093      8.124959   0.000000   0.000000
   21        8.410104      8.410004   0.000000   0.000000
   22        9.201368      9.201196   0.000000   0.000000
   23        9.345303      9.343955   0.000000   0.000000
   24        9.519321      9.519066   0.000000   0.000000
 
  0.2222222E+00  0.1111111E+00  0.0000000E+00  0.3703704E-01
    1      -42.261588    -42.261214   1.000000   1.000000
    2      -42.235103    -42.234728   1.000000   1.000000
    3      -42.228016    -42.227640   1.000000   1.000000
    4      -42.201933    -42.201556   1.000000   1.000000
    5      -41.909785    -41.909248   1.000000   1.000000
    6      -41.909364    -41.908827   1.000000   1.000000
    7       -6.080487     -6.080614   1.000000   1.000000
    8       -5.772430     -5.772570   1.000000   1.000000
    9        0.202900      0.202849   1.000000   1.000000
   10        0.723432      0.723353   1.000000   1.000000
   11        1.105720      1.105633   1.000000   1.000000
   12        1.608721      1.608627   1.000000   1.000000
   13        2.264216      2.264139   1.000000   1.000000
   14        2.376899      2.376842   1.000000   1.000000
   15        5.746076      5.746543   0.000000   0.000000
   16        6.291759      6.291644   0.000000   0.000000
   17        7.736670      7.736488   0.000000   0.000000
   18        7.783014      7.782895   0.000000   0.000000
   19        7.858737      7.858573   0.000000   0.000000
   20        9.028598      9.028501   0.000000   0.000000
   21        9.412585      9.412433   0.000000   0.000000
   22        9.428724      9.427800   0.000000   0.000000
   23       10.394256     10.394006   0.000000   0.000000
   24       11.229595     11.239231   0.000000   0.000000
 
  0.3333333E+00  0.1111111E+00  0.0000000E+00  0.3703704E-01
    1      -42.256233    -42.255859   1.000000   1.000000
    2      -42.239009    -42.238635   1.000000   1.000000
    3      -42.223370    -42.222994   1.000000   1.000000
    4      -42.206335    -42.205958   1.000000   1.000000
    5      -41.910348    -41.909810   1.000000   1.000000
    6      -41.909792    -41.909255   1.000000   1.000000
    7       -5.889611     -5.889743   1.000000   1.000000
    8       -5.691637     -5.691778   1.000000   1.000000
    9        0.061859      0.061788   1.000000   1.000000
   10        0.666598      0.666492   1.000000   1.000000
   11        0.711561      0.711499   1.000000   1.000000
   12        1.153375      1.153298   1.000000   1.000000
   13        1.924147      1.924071   1.000000   1.000000
   14        2.120262      2.120206   1.000000   1.000000
   15        4.946912      4.946881   0.000000   0.000000
   16        6.472808      6.472686   0.000000   0.000000
   17        7.608392      7.608280   0.000000   0.000000
   18        7.937661      7.937487   0.000000   0.000000
   19        8.269504      8.269319   0.000000   0.000000
   20        9.234437      9.234324   0.000000   0.000000
   21        9.966185      9.966087   0.000000   0.000000
   22       10.488111     10.487975   0.000000   0.000000
   23       11.031925     11.031267   0.000000   0.000000
   24       11.586752     11.477166   0.000000   0.000000
 
  0.4444444E+00  0.1111111E+00  0.0000000E+00  0.1851852E-01
    1      -42.253141    -42.252768   1.000000   1.000000
    2      -42.241498    -42.241124   1.000000   1.000000
    3      -42.220663    -42.220287   1.000000   1.000000
    4      -42.209039    -42.208662   1.000000   1.000000
    5      -41.910582    -41.910044   1.000000   1.000000
    6      -41.909988    -41.909450   1.000000   1.000000
    7       -5.789251     -5.789387   1.000000   1.000000
    8       -5.676441     -5.676582   1.000000   1.000000
    9       -0.179883     -0.179950   1.000000   1.000000
   10        0.485491      0.485380   1.000000   1.000000
   11        1.008557      1.008485   1.000000   1.000000
   12        1.170561      1.170481   1.000000   1.000000
   13        1.518346      1.518285   1.000000   1.000000
   14        2.028151      2.028095   1.000000   1.000000
   15        4.681021      4.681009   0.000000   0.000000
   16        6.542808      6.542683   0.000000   0.000000
   17        7.567696      7.567594   0.000000   0.000000
   18        8.010267      8.010098   0.000000   0.000000
   19        8.479311      8.479101   0.000000   0.000000
   20        9.086836      9.086746   0.000000   0.000000
   21        9.791663      9.791549   0.000000   0.000000
   22       11.193144     11.192062   0.000000   0.000000
   23       11.579908     11.580646   0.000000   0.000000
   24       12.077559     12.073653   0.000000   0.000000
 
  0.2222222E+00  0.2222222E+00  0.0000000E+00  0.1851852E-01
    1      -42.256684    -42.256311   1.000000   1.000000
    2      -42.238637    -42.238262   1.000000   1.000000
    3      -42.223815    -42.223440   1.000000   1.000000
    4      -42.205916    -42.205538   1.000000   1.000000
    5      -41.910307    -41.909769   1.000000   1.000000
    6      -41.909755    -41.909217   1.000000   1.000000
    7       -5.909336     -5.909468   1.000000   1.000000
    8       -5.692657     -5.692798   1.000000   1.000000
    9        0.397333      0.397282   1.000000   1.000000
   10        0.480913      0.480800   1.000000   1.000000
   11        0.632462      0.632401   1.000000   1.000000
   12        1.103590      1.103489   1.000000   1.000000
   13        1.979548      1.979502   1.000000   1.000000
   14        2.070121      2.070041   1.000000   1.000000
   15        4.707284      4.707265   0.000000   0.000000
   16        7.036256      7.036132   0.000000   0.000000
   17        8.000393      8.000286   0.000000   0.000000
   18        8.273643      8.273443   0.000000   0.000000
   19        8.588513      8.588322   0.000000   0.000000
   20        9.259514      9.259427   0.000000   0.000000
   21        9.656021      9.655856   0.000000   0.000000
   22        9.774242      9.773949   0.000000   0.000000
   23       10.568327     10.575464   0.000000   0.000000
   24       10.986058     10.922463   0.000000   0.000000
 
  0.3333333E+00  0.2222222E+00  0.0000000E+00  0.3703704E-01
    1      -42.251765    -42.251391   1.000000   1.000000
    2      -42.242655    -42.242281   1.000000   1.000000
    3      -42.219327    -42.218951   1.000000   1.000000
    4      -42.210279    -42.209902   1.000000   1.000000
    5      -41.910622    -41.910084   1.000000   1.000000
    6      -41.910049    -41.909511   1.000000   1.000000
    7       -5.763805     -5.763942   1.000000   1.000000
    8       -5.660352     -5.660493   1.000000   1.000000
    9        0.020220      0.020160   1.000000   1.000000
   10        0.403380      0.403269   1.000000   1.000000
   11        0.664313      0.664221   1.000000   1.000000
   12        1.149762      1.149688   1.000000   1.000000
   13        1.746372      1.746294   1.000000   1.000000
   14        1.760104      1.760061   1.000000   1.000000
   15        4.066036      4.066026   0.000000   0.000000
   16        7.591626      7.591501   0.000000   0.000000
   17        8.339849      8.339739   0.000000   0.000000
   18        8.632603      8.632340   0.000000   0.000000
   19        9.048226      9.048033   0.000000   0.000000
   20        9.337999      9.337890   0.000000   0.000000
   21        9.814278      9.813879   0.000000   0.000000
   22        9.973517      9.974956   0.000000   0.000000
   23       10.377142     10.379389   0.000000   0.000000
   24       11.065320     11.101473   0.000000   0.000000
 
  0.3333333E+00  0.3333333E+00  0.0000000E+00  0.6172840E-02
    1      -42.247031    -42.246658   1.000000   1.000000
    2      -42.247029    -42.246655   1.000000   1.000000
    3      -42.214754    -42.214377   1.000000   1.000000
    4      -42.214751    -42.214375   1.000000   1.000000
    5      -41.910731    -41.910193   1.000000   1.000000
    6      -41.910098    -41.909560   1.000000   1.000000
    7       -5.679658     -5.679798   1.000000   1.000000
    8       -5.679654     -5.679794   1.000000   1.000000
    9        0.124431      0.124415   1.000000   1.000000
   10        0.331111      0.330986   1.000000   1.000000
   11        0.331118      0.330992   1.000000   1.000000
   12        1.533826      1.533745   1.000000   1.000000
   13        1.533842      1.533760   1.000000   1.000000
   14        1.607595      1.607559   1.000000   1.000000
   15        3.662634      3.662636   0.000001   0.000001
   16        8.867763      8.867814   0.000000   0.000000
   17        8.889624      8.889369   0.000000   0.000000
   18        8.893264      8.898163   0.000000   0.000000
   19        9.142391      9.142266   0.000000   0.000000
   20        9.142449      9.142407   0.000000   0.000000
   21        9.714587      9.710204   0.000000   0.000000
   22       10.247843     10.247576   0.000000   0.000000
   23       10.277116     10.296857   0.000000   0.000000
   24       10.434332     10.434250   0.000000   0.000000
 
  0.0000000E+00  0.0000000E+00  0.2500000E+00  0.6172840E-02
    1      -42.267405    -42.267032   1.000000   1.000000
    2      -42.246991    -42.246616   1.000000   1.000000
    3      -42.217940    -42.217563   1.000000   1.000000
    4      -42.198235    -42.197857   1.000000   1.000000
    5      -41.908531    -41.907995   1.000000   1.000000
    6      -41.908399    -41.907862   1.000000   1.000000
    7       -6.355143     -6.355264   1.000000   1.000000
    8       -6.053412     -6.053507   1.000000   1.000000
    9       -0.137136     -0.137182   1.000000   1.000000
   10        1.788122      1.788056   1.000000   1.000000
   11        2.726169      2.726076   1.000000   1.000000
   12        2.726190      2.726093   1.000000   1.000000
   13        3.049705      3.049638   1.000000   1.000000
   14        3.049706      3.049642   1.000000   1.000000
   15        6.611530      6.611440   0.000000   0.000000
   16        6.962809      6.962728   0.000000   0.000000
   17        6.962814      6.962741   0.000000   0.000000
   18        7.249788      7.249719   0.000000   0.000000
   19        7.249809      7.249750   0.000000   0.000000
   20        7.381762      7.381442   0.000000   0.000000
   21        7.726230      7.725915   0.000000   0.000000
   22        9.274112      9.273639   0.000000   0.000000
   23        9.594628      9.594408   0.000000   0.000000
   24        9.594642      9.594426   0.000000   0.000000
 
  0.1111111E+00 -0.1079835E-16  0.2500000E+00  0.3703704E-01
    1      -42.266068    -42.265695   1.000000   1.000000
    2      -42.246268    -42.245893   1.000000   1.000000
    3      -42.218325    -42.217948   1.000000   1.000000
    4      -42.199084    -42.198707   1.000000   1.000000
    5      -41.908718    -41.908181   1.000000   1.000000
    6      -41.908547    -41.908010   1.000000   1.000000
    7       -6.303482     -6.303604   1.000000   1.000000
    8       -6.012812     -6.012924   1.000000   1.000000
    9       -0.054997     -0.055045   1.000000   1.000000
   10        1.769084      1.769021   1.000000   1.000000
   11        2.240197      2.240106   1.000000   1.000000
   12        2.460081      2.459996   1.000000   1.000000
   13        2.638936      2.638858   1.000000   1.000000
   14        2.913464      2.913396   1.000000   1.000000
   15        6.387630      6.387533   0.000000   0.000000
   16        7.085206      7.085041   0.000000   0.000000
   17        7.339147      7.339069   0.000000   0.000000
   18        7.347083      7.346991   0.000000   0.000000
   19        7.735550      7.735473   0.000000   0.000000
   20        7.901235      7.901022   0.000000   0.000000
   21        8.157094      8.156904   0.000000   0.000000
   22        8.918318      8.918154   0.000000   0.000000
   23        9.200078      9.199961   0.000000   0.000000
   24        9.560108      9.559861   0.000000   0.000000
 
  0.2222222E+00 -0.3328192E-16  0.2500000E+00  0.3703704E-01
    1      -42.262482    -42.262108   1.000000   1.000000
    2      -42.244522    -42.244148   1.000000   1.000000
    3      -42.219281    -42.218905   1.000000   1.000000
    4      -42.201694    -42.201317   1.000000   1.000000
    5      -41.909280    -41.908743   1.000000   1.000000
    6      -41.909043    -41.908506   1.000000   1.000000
    7       -6.161589     -6.161713   1.000000   1.000000
    8       -5.906452     -5.906580   1.000000   1.000000
    9        0.171629      0.171579   1.000000   1.000000
   10        1.208460      1.208387   1.000000   1.000000
   11        1.596730      1.596639   1.000000   1.000000
   12        1.984179      1.984104   1.000000   1.000000
   13        2.089134      2.089046   1.000000   1.000000
   14        2.565041      2.564974   1.000000   1.000000
   15        5.985877      5.985792   0.000000   0.000000
   16        6.660683      6.660557   0.000000   0.000000
   17        7.585928      7.585771   0.000000   0.000000
   18        7.913363      7.913247   0.000000   0.000000
   19        8.018880      8.018755   0.000000   0.000000
   20        8.846415      8.846306   0.000000   0.000000
   21        8.985612      8.985423   0.000000   0.000000
   22        9.015002      9.014906   0.000000   0.000000
   23        9.728401      9.728184   0.000000   0.000000
   24       10.190270     10.190166   0.000000   0.000000
 
  0.3333333E+00  0.4051048E-16  0.2500000E+00  0.3703704E-01
    1      -42.257611    -42.257237   1.000000   1.000000
    2      -42.243125    -42.242751   1.000000   1.000000
    3      -42.219721    -42.219344   1.000000   1.000000
    4      -42.205496    -42.205119   1.000000   1.000000
    5      -41.909928    -41.909390   1.000000   1.000000
    6      -41.909597    -41.909059   1.000000   1.000000
    7       -5.972767     -5.972896   1.000000   1.000000
    8       -5.782268     -5.782411   1.000000   1.000000
    9        0.250656      0.250589   1.000000   1.000000
   10        0.572390      0.572324   1.000000   1.000000
   11        0.999929      0.999832   1.000000   1.000000
   12        1.587728      1.587657   1.000000   1.000000
   13        1.986949      1.986871   1.000000   1.000000
   14        2.227790      2.227725   1.000000   1.000000
   15        5.433850      5.433803   0.000000   0.000000
   16        6.066845      6.066741   0.000000   0.000000
   17        7.572333      7.572176   0.000000   0.000000
   18        7.788819      7.788683   0.000000   0.000000
   19        8.217918      8.217808   0.000000   0.000000
   20        8.991876      8.991770   0.000000   0.000000
   21       10.001240     10.001080   0.000000   0.000000
   22       10.410615     10.411124   0.000000   0.000000
   23       10.706887     10.706613   0.000000   0.000000
   24       11.708156     11.728255   0.000000   0.000000
 
  0.4444444E+00 -0.6656385E-16  0.2500000E+00  0.3703704E-01
    1      -42.253330    -42.252956   1.000000   1.000000
    2      -42.243381    -42.243007   1.000000   1.000000
    3      -42.218914    -42.218538   1.000000   1.000000
    4      -42.209034    -42.208657   1.000000   1.000000
    5      -41.910358    -41.909820   1.000000   1.000000
    6      -41.909983    -41.909445   1.000000   1.000000
    7       -5.818331     -5.818467   1.000000   1.000000
    8       -5.710336     -5.710475   1.000000   1.000000
    9       -0.149713     -0.149782   1.000000   1.000000
   10        0.298260      0.298175   1.000000   1.000000
   11        1.204148      1.204066   1.000000   1.000000
   12        1.373280      1.373211   1.000000   1.000000
   13        1.769187      1.769104   1.000000   1.000000
   14        2.036173      2.036110   1.000000   1.000000
   15        5.019511      5.019484   0.000000   0.000000
   16        5.793659      5.793558   0.000000   0.000000
   17        7.562137      7.562005   0.000000   0.000000
   18        7.631646      7.631490   0.000000   0.000000
   19        8.188111      8.188006   0.000000   0.000000
   20        8.960303      8.960119   0.000000   0.000000
   21       10.413490     10.413316   0.000000   0.000000
   22       11.255172     11.254010   0.000000   0.000000
   23       11.417842     11.417921   0.000000   0.000000
   24       12.398490     12.415478   0.000000   0.000000
 
  0.1111111E+00  0.1111111E+00  0.2500000E+00  0.3703704E-01
    1      -42.263633    -42.263260   1.000000   1.000000
    2      -42.245012    -42.244638   1.000000   1.000000
    3      -42.219032    -42.218656   1.000000   1.000000
    4      -42.200861    -42.200484   1.000000   1.000000
    5      -41.909098    -41.908561   1.000000   1.000000
    6      -41.908917    -41.908379   1.000000   1.000000
    7       -6.206492     -6.206616   1.000000   1.000000
    8       -5.939069     -5.939196   1.000000   1.000000
    9        0.101289      0.101240   1.000000   1.000000
   10        1.542788      1.542730   1.000000   1.000000
   11        1.665990      1.665889   1.000000   1.000000
   12        2.055324      2.055250   1.000000   1.000000
   13        2.254940      2.254842   1.000000   1.000000
   14        2.581337      2.581279   1.000000   1.000000
   15        6.319307      6.319224   0.000000   0.000000
   16        6.984935      6.984874   0.000000   0.000000
   17        7.399702      7.399513   0.000000   0.000000
   18        7.448166      7.448011   0.000000   0.000000
   19        8.208537      8.208435   0.000000   0.000000
   20        8.315230      8.315145   0.000000   0.000000
   21        8.866144      8.866015   0.000000   0.000000
   22        9.053080      9.052898   0.000000   0.000000
   23        9.574479      9.574279   0.000000   0.000000
   24        9.791276      9.791100   0.000000   0.000000
 
  0.2222222E+00  0.1111111E+00  0.2500000E+00  0.7407407E-01
    1      -42.259346    -42.258972   1.000000   1.000000
    2      -42.243454    -42.243079   1.000000   1.000000
    3      -42.219708    -42.219332   1.000000   1.000000
    4      -42.204139    -42.203762   1.000000   1.000000
    5      -41.909728    -41.909190   1.000000   1.000000
    6      -41.909424    -41.908886   1.000000   1.000000
    7       -6.039364     -6.039492   1.000000   1.000000
    8       -5.822036     -5.822173   1.000000   1.000000
    9        0.338099      0.338043   1.000000   1.000000
   10        0.803431      0.803362   1.000000   1.000000
   11        1.114550      1.114449   1.000000   1.000000
   12        1.616412      1.616334   1.000000   1.000000
   13        2.034504      2.034420   1.000000   1.000000
   14        2.184890      2.184831   1.000000   1.000000
   15        5.878094      5.878045   0.000000   0.000000
   16        6.335482      6.335394   0.000000   0.000000
   17        7.588723      7.588557   0.000000   0.000000
   18        7.787073      7.786897   0.000000   0.000000
   19        8.688756      8.688611   0.000000   0.000000
   20        8.873181      8.873061   0.000000   0.000000
   21        9.240678      9.240556   0.000000   0.000000
   22        9.475996      9.476237   0.000000   0.000000
   23       10.280000     10.278998   0.000000   0.000000
   24       11.296214     11.312479   0.000000   0.000000
 
  0.3333333E+00  0.1111111E+00  0.2500000E+00  0.7407407E-01
    1      -42.254490    -42.254117   1.000000   1.000000
    2      -42.243153    -42.242779   1.000000   1.000000
    3      -42.219235    -42.218859   1.000000   1.000000
    4      -42.208051    -42.207674   1.000000   1.000000
    5      -41.910257    -41.909719   1.000000   1.000000
    6      -41.909877    -41.909340   1.000000   1.000000
    7       -5.861844     -5.861978   1.000000   1.000000
    8       -5.721930     -5.722069   1.000000   1.000000
    9        0.064272      0.064201   1.000000   1.000000
   10        0.430853      0.430770   1.000000   1.000000
   11        1.058302      1.058218   1.000000   1.000000
   12        1.234380      1.234308   1.000000   1.000000
   13        1.888412      1.888341   1.000000   1.000000
   14        1.925251      1.925179   1.000000   1.000000
   15        5.123960      5.123915   0.000000   0.000000
   16        6.185372      6.185275   0.000000   0.000000
   17        7.523372      7.523224   0.000000   0.000000
   18        7.972246      7.972083   0.000000   0.000000
   19        8.512962      8.512840   0.000000   0.000000
   20        9.264434      9.264264   0.000000   0.000000
   21        9.589317      9.589186   0.000000   0.000000
   22       10.556533     10.556399   0.000000   0.000000
   23       11.168382     11.168164   0.000000   0.000000
   24       11.431144     11.431629   0.000000   0.000000
 
  0.4444444E+00  0.1111111E+00  0.2500000E+00  0.3703704E-01
    1      -42.251860    -42.251486   1.000000   1.000000
    2      -42.243863    -42.243489   1.000000   1.000000
    3      -42.218277    -42.217901   1.000000   1.000000
    4      -42.210361    -42.209985   1.000000   1.000000
    5      -41.910488    -41.909950   1.000000   1.000000
    6      -41.910098    -41.909560   1.000000   1.000000
    7       -5.772609     -5.772746   1.000000   1.000000
    8       -5.692801     -5.692940   1.000000   1.000000
    9       -0.157509     -0.157578   1.000000   1.000000
   10        0.267192      0.267100   1.000000   1.000000
   11        1.095114      1.095048   1.000000   1.000000