 running on    8 total cores
 distrk:  each k-point on    8 cores,    1 groups
 distr:  one band on    1 cores,    8 groups
 using from now: INCAR     
 vasp.6.1.2 22Jul20 (build Mar 20 2021 11:25:07) complex                        
  
 POSCAR found type information on POSCAR LiP 
 POSCAR found :  2 types and       8 ions
 scaLAPACK will be used
 -----------------------------------------------------------------------------
|                                                                             |
|           W    W    AA    RRRRR   N    N  II  N    N   GGGG   !!!           |
|           W    W   A  A   R    R  NN   N  II  NN   N  G    G  !!!           |
|           W    W  A    A  R    R  N N  N  II  N N  N  G       !!!           |
|           W WW W  AAAAAA  RRRRR   N  N N  II  N  N N  G  GGG   !            |
|           WW  WW  A    A  R   R   N   NN  II  N   NN  G    G                |
|           W    W  A    A  R    R  N    N  II  N    N   GGGG   !!!           |
|                                                                             |
|     The value NCORE = 6 specified in the INCAR file was overwritten,        |
|     because it was not compatible with the 8 processes available:           |
|     NCORE = 1                                                               |
|     was used instead, please check that this makes sense for your           |
|     machine.                                                                |
|                                                                             |
 -----------------------------------------------------------------------------

 -----------------------------------------------------------------------------
|                                                                             |
|           W    W    AA    RRRRR   N    N  II  N    N   GGGG   !!!           |
|           W    W   A  A   R    R  NN   N  II  NN   N  G    G  !!!           |
|           W    W  A    A  R    R  N N  N  II  N N  N  G       !!!           |
|           W WW W  AAAAAA  RRRRR   N  N N  II  N  N N  G  GGG   !            |
|           WW  WW  A    A  R   R   N   NN  II  N   NN  G    G                |
|           W    W  A    A  R    R  N    N  II  N    N   GGGG   !!!           |
|                                                                             |
|     For optimal performance we recommend to set                             |
|       NCORE = 4 - approx SQRT(number of cores).                             |
|     NCORE specifies how many cores store one orbital (NPAR=cpu/NCORE).      |
|     This setting can greatly improve the performance of VASP for DFT.       |
|     The default, NCORE=1 might be grossly inefficient on modern             |
|     multi-core architectures or massively parallel machines. Do your        |
|     own testing!!!!                                                         |
|     Unfortunately you need to use the default for GW and RPA                |
|     calculations (for HF NCORE is supported but not extensively tested      |
|     yet).                                                                   |
|                                                                             |
 -----------------------------------------------------------------------------

 -----------------------------------------------------------------------------
|                                                                             |
|               ----> ADVICE to this user running VASP <----                  |
|                                                                             |
|     You have a (more or less) 'small supercell' and for smaller cells       |
|     it is recommended to use the reciprocal-space projection scheme!        |
|     The real-space optimization is not efficient for small cells and it     |
|     is also less accurate ...                                               |
|     Therefore, set LREAL=.FALSE. in the INCAR file.                         |
|                                                                             |
 -----------------------------------------------------------------------------

 LDA part: xc-table for Pade appr. of Perdew
 -----------------------------------------------------------------------------
|                                                                             |
|           W    W    AA    RRRRR   N    N  II  N    N   GGGG   !!!           |
|           W    W   A  A   R    R  NN   N  II  NN   N  G    G  !!!           |
|           W    W  A    A  R    R  N N  N  II  N N  N  G       !!!           |
|           W WW W  AAAAAA  RRRRR   N  N N  II  N  N N  G  GGG   !            |
|           WW  WW  A    A  R   R   N   NN  II  N   NN  G    G                |
|           W    W  A    A  R    R  N    N  II  N    N   GGGG   !!!           |
|                                                                             |
|     The determination of the symmetry of your systems shows a strong        |
|     dependence on the tolerance parameter SYMPREC. This is often the        |
|     result of "noise" in the structural parameters (lattice vectors         |
|     and/or ionic positions). Set NWRITE=3 for more details.                 |
|                                                                             |
 -----------------------------------------------------------------------------

 generate k-points for:    9    9    4
 POSCAR, INCAR and KPOINTS ok, starting setup
 FFT: planning ...
 WAVECAR not read
 entering main loop
       N       E                     dE             d eps       ncg     rms          rms(c)
DAV:   1     0.160902030435E+03    0.16090E+03   -0.11934E+04  3456   0.120E+03
DAV:   2     0.173842570364E+01   -0.15916E+03   -0.15047E+03  3824   0.303E+02
DAV:   3    -0.241601372820E+02   -0.25899E+02   -0.25660E+02  6440   0.702E+01
DAV:   4    -0.263787867972E+02   -0.22186E+01   -0.22055E+01  4824   0.289E+01
DAV:   5    -0.265327343294E+02   -0.15395E+00   -0.15394E+00  5560   0.607E+00    0.150E+01
RMM:   6    -0.270576670823E+02   -0.52493E+00   -0.15636E+00  4199   0.616E+00    0.764E+00
RMM:   7    -0.277304835540E+02   -0.67282E+00   -0.47251E-01  4646   0.411E+00    0.301E+00
RMM:   8    -0.277905030932E+02   -0.60020E-01   -0.40822E-01  5366   0.290E+00    0.125E+00
RMM:   9    -0.277994669214E+02   -0.89638E-02   -0.93971E-02  5627   0.171E+00    0.550E-01
RMM:  10    -0.278079542413E+02   -0.84873E-02   -0.42195E-02  5944   0.993E-01    0.271E-01
RMM:  11    -0.278098947587E+02   -0.19405E-02   -0.14381E-02  6031   0.567E-01    0.204E-01
RMM:  12    -0.278105887314E+02   -0.69397E-03   -0.50651E-03  5872   0.424E-01    0.517E-02
RMM:  13    -0.278110985513E+02   -0.50982E-03   -0.28986E-03  6080   0.256E-01    0.169E-02
RMM:  14    -0.278112687747E+02   -0.17022E-03   -0.13677E-03  5949   0.161E-01    0.207E-02
RMM:  15    -0.278113403602E+02   -0.71585E-04   -0.61795E-04  5289   0.105E-01    0.182E-02
RMM:  16    -0.278113758961E+02   -0.35536E-04   -0.32062E-04  5141   0.755E-02    0.254E-02
RMM:  17    -0.278113900270E+02   -0.14131E-04   -0.17885E-04  5002   0.619E-02    0.145E-02
RMM:  18    -0.278114009266E+02   -0.10900E-04   -0.10148E-04  4497   0.455E-02    0.128E-02
RMM:  19    -0.278114071744E+02   -0.62478E-05   -0.69085E-05  4187   0.385E-02
   1 F= -.27811407E+02 E0= -.27811407E+02  d E =0.000000E+00  mag=    -0.0001
