       N       E                     dE             d eps       ncg     rms          rms(c)
DAV:   1     0.477049337666E+02    0.47705E+02   -0.53003E+03  4632   0.775E+02
DAV:   2    -0.104715828419E+02   -0.58177E+02   -0.55445E+02  6224   0.198E+02
DAV:   3    -0.152319531466E+02   -0.47604E+01   -0.47234E+01  6968   0.419E+01
DAV:   4    -0.153212190801E+02   -0.89266E-01   -0.89238E-01  5248   0.688E+00
DAV:   5    -0.153221821816E+02   -0.96310E-03   -0.96310E-03  6376   0.549E-01    0.116E+01
RMM:   6    -0.141855256761E+02    0.11367E+01   -0.19706E+00  5122   0.804E+00    0.495E+00
RMM:   7    -0.143130939553E+02   -0.12757E+00   -0.57523E-02  5804   0.185E+00    0.211E+00
RMM:   8    -0.143198481268E+02   -0.67542E-02   -0.29538E-02  6393   0.140E+00    0.116E+00
RMM:   9    -0.143321282921E+02   -0.12280E-01   -0.24036E-02  6469   0.136E+00    0.235E-01
RMM:  10    -0.143329231127E+02   -0.79482E-03   -0.39762E-03  7120   0.457E-01    0.137E-01
RMM:  11    -0.143336013386E+02   -0.67823E-03   -0.32817E-03  6672   0.388E-01    0.188E-01
RMM:  12    -0.143334110841E+02    0.19025E-03   -0.85420E-04  6730   0.224E-01    0.796E-02
RMM:  13    -0.143333774658E+02    0.33618E-04   -0.43260E-04  7100   0.149E-01    0.157E-02
RMM:  14    -0.143333985017E+02   -0.21036E-04   -0.15587E-04  6647   0.782E-02    0.164E-02
RMM:  15    -0.143334036062E+02   -0.51044E-05   -0.60502E-05  6302   0.502E-02
   1 F= -.14333404E+02 E0= -.14333404E+02  d E =0.000000E+00  mag=     0.0004
