 running on    8 total cores
 distrk:  each k-point on    8 cores,    1 groups
 distr:  one band on    1 cores,    8 groups
 using from now: INCAR     
 vasp.6.1.2 22Jul20 (build Mar 20 2021 11:25:07) complex                        
  
 POSCAR found type information on POSCAR LiP O 
 POSCAR found :  3 types and      16 ions
 scaLAPACK will be used
 -----------------------------------------------------------------------------
|                                                                             |
|           W    W    AA    RRRRR   N    N  II  N    N   GGGG   !!!           |
|           W    W   A  A   R    R  NN   N  II  NN   N  G    G  !!!           |
|           W    W  A    A  R    R  N N  N  II  N N  N  G       !!!           |
|           W WW W  AAAAAA  RRRRR   N  N N  II  N  N N  G  GGG   !            |
|           WW  WW  A    A  R   R   N   NN  II  N   NN  G    G                |
|           W    W  A    A  R    R  N    N  II  N    N   GGGG   !!!           |
|                                                                             |
|     The value NCORE = 6 specified in the INCAR file was overwritten,        |
|     because it was not compatible with the 8 processes available:           |
|     NCORE = 1                                                               |
|     was used instead, please check that this makes sense for your           |
|     machine.                                                                |
|                                                                             |
 -----------------------------------------------------------------------------

 -----------------------------------------------------------------------------
|                                                                             |
|           W    W    AA    RRRRR   N    N  II  N    N   GGGG   !!!           |
|           W    W   A  A   R    R  NN   N  II  NN   N  G    G  !!!           |
|           W    W  A    A  R    R  N N  N  II  N N  N  G       !!!           |
|           W WW W  AAAAAA  RRRRR   N  N N  II  N  N N  G  GGG   !            |
|           WW  WW  A    A  R   R   N   NN  II  N   NN  G    G                |
|           W    W  A    A  R    R  N    N  II  N    N   GGGG   !!!           |
|                                                                             |
|     For optimal performance we recommend to set                             |
|       NCORE = 4 - approx SQRT(number of cores).                             |
|     NCORE specifies how many cores store one orbital (NPAR=cpu/NCORE).      |
|     This setting can greatly improve the performance of VASP for DFT.       |
|     The default, NCORE=1 might be grossly inefficient on modern             |
|     multi-core architectures or massively parallel machines. Do your        |
|     own testing!!!!                                                         |
|     Unfortunately you need to use the default for GW and RPA                |
|     calculations (for HF NCORE is supported but not extensively tested      |
|     yet).                                                                   |
|                                                                             |
 -----------------------------------------------------------------------------

 LDA part: xc-table for Pade appr. of Perdew
 -----------------------------------------------------------------------------
|                                                                             |
|           W    W    AA    RRRRR   N    N  II  N    N   GGGG   !!!           |
|           W    W   A  A   R    R  NN   N  II  NN   N  G    G  !!!           |
|           W    W  A    A  R    R  N N  N  II  N N  N  G       !!!           |
|           W WW W  AAAAAA  RRRRR   N  N N  II  N  N N  G  GGG   !            |
|           WW  WW  A    A  R   R   N   NN  II  N   NN  G    G                |
|           W    W  A    A  R    R  N    N  II  N    N   GGGG   !!!           |
|                                                                             |
|     The determination of the symmetry of your systems shows a strong        |
|     dependence on the tolerance parameter SYMPREC. This is often the        |
|     result of "noise" in the structural parameters (lattice vectors         |
|     and/or ionic positions). Set NWRITE=3 for more details.                 |
|                                                                             |
 -----------------------------------------------------------------------------

 generate k-points for:    6    6    5
 POSCAR, INCAR and KPOINTS ok, starting setup
 FFT: planning ...
 WAVECAR not read
 entering main loop
       N       E                     dE             d eps       ncg     rms          rms(c)
DAV:   1     0.598992091521E+03    0.59899E+03   -0.36026E+04 10752   0.141E+03
DAV:   2    -0.431262248608E+02   -0.64212E+03   -0.60565E+03 12352   0.367E+02
DAV:   3    -0.102754459476E+03   -0.59628E+02   -0.59261E+02 14880   0.105E+02
DAV:   4    -0.108103931121E+03   -0.53495E+01   -0.53163E+01 18720   0.264E+01
DAV:   5    -0.108597931927E+03   -0.49400E+00   -0.49380E+00 14920   0.531E+00    0.346E+01
RMM:   6    -0.989368891302E+02    0.96610E+01   -0.38796E+01 11735   0.216E+01    0.134E+01
RMM:   7    -0.100027225936E+03   -0.10903E+01   -0.34998E+00 15526   0.718E+00    0.722E+00
RMM:   8    -0.100205839537E+03   -0.17861E+00   -0.85715E-01 17068   0.380E+00    0.372E+00
RMM:   9    -0.100281275929E+03   -0.75436E-01   -0.30589E-01 17221   0.280E+00    0.741E-01
RMM:  10    -0.100307197855E+03   -0.25922E-01   -0.21476E-01 19790   0.157E+00    0.351E-01
RMM:  11    -0.100321527418E+03   -0.14330E-01   -0.95027E-02 20257   0.969E-01    0.264E-01
RMM:  12    -0.100327454716E+03   -0.59273E-02   -0.38248E-02 20661   0.606E-01    0.156E-01
RMM:  13    -0.100329609741E+03   -0.21550E-02   -0.14979E-02 20197   0.402E-01    0.678E-02
RMM:  14    -0.100330533622E+03   -0.92388E-03   -0.74636E-03 20697   0.277E-01    0.292E-02
RMM:  15    -0.100330893276E+03   -0.35965E-03   -0.32146E-03 20290   0.173E-01    0.236E-02
RMM:  16    -0.100331053805E+03   -0.16053E-03   -0.14501E-03 19857   0.114E-01    0.148E-02
RMM:  17    -0.100331116176E+03   -0.62371E-04   -0.57030E-04 19368   0.768E-02    0.892E-03
RMM:  18    -0.100331145300E+03   -0.29124E-04   -0.27544E-04 18635   0.516E-02    0.728E-03
RMM:  19    -0.100331153707E+03   -0.84071E-05   -0.99523E-05 17183   0.365E-02
   1 F= -.10033115E+03 E0= -.10033115E+03  d E =0.000000E+00  mag=    -0.0000
