 running on   12 total cores
 distrk:  each k-point on   12 cores,    1 groups
 distr:  one band on    6 cores,    2 groups
 using from now: INCAR     
 vasp.6.1.2 22Jul20 (build Mar 20 2021 11:25:07) complex                        
  
 POSCAR found type information on POSCAR LiP O 
 POSCAR found :  3 types and      16 ions
 scaLAPACK will be used
 LDA part: xc-table for Pade appr. of Perdew
 generate k-points for:    7    6    5
 POSCAR, INCAR and KPOINTS ok, starting setup
 FFT: planning ...
 WAVECAR not read
 entering main loop
       N       E                     dE             d eps       ncg     rms          rms(c)
DAV:   1     0.628282131970E+03    0.62828E+03   -0.37131E+04  9984   0.154E+03
DAV:   2    -0.430992355694E+02   -0.67138E+03   -0.63803E+03 11620   0.399E+02
DAV:   3    -0.103026898631E+03   -0.59928E+02   -0.59629E+02 13940   0.113E+02
DAV:   4    -0.108625058889E+03   -0.55982E+01   -0.55741E+01 17464   0.288E+01
DAV:   5    -0.109153512406E+03   -0.52845E+00   -0.52834E+00 14184   0.591E+00    0.380E+01
RMM:   6    -0.991537763187E+02    0.99997E+01   -0.42382E+01 11005   0.244E+01    0.156E+01
RMM:   7    -0.100250475101E+03   -0.10967E+01   -0.49488E+00 14381   0.886E+00    0.812E+00
RMM:   8    -0.100483561208E+03   -0.23309E+00   -0.11019E+00 16524   0.460E+00    0.394E+00
RMM:   9    -0.100554301461E+03   -0.70740E-01   -0.41866E-01 16596   0.325E+00    0.105E+00
RMM:  10    -0.100591630641E+03   -0.37329E-01   -0.28417E-01 18793   0.192E+00    0.373E-01
RMM:  11    -0.100608818419E+03   -0.17188E-01   -0.13420E-01 19292   0.120E+00    0.313E-01
RMM:  12    -0.100615970312E+03   -0.71519E-02   -0.51231E-02 19365   0.753E-01    0.197E-01
RMM:  13    -0.100618480943E+03   -0.25106E-02   -0.19200E-02 18990   0.512E-01    0.963E-02
RMM:  14    -0.100619709162E+03   -0.12282E-02   -0.10444E-02 19074   0.363E-01    0.323E-02
RMM:  15    -0.100620189569E+03   -0.48041E-03   -0.45630E-03 18768   0.229E-01    0.323E-02
RMM:  16    -0.100620400141E+03   -0.21057E-03   -0.21208E-03 18458   0.154E-01    0.214E-02
RMM:  17    -0.100620486312E+03   -0.86171E-04   -0.87457E-04 18009   0.108E-01    0.117E-02
RMM:  18    -0.100620536272E+03   -0.49960E-04   -0.49642E-04 17831   0.736E-02    0.102E-02
RMM:  19    -0.100620555481E+03   -0.19209E-04   -0.18094E-04 16557   0.499E-02    0.120E-02
RMM:  20    -0.100620565383E+03   -0.99015E-05   -0.80248E-05 15021   0.388E-02
   1 F= -.10062057E+03 E0= -.10062057E+03  d E =0.000000E+00  mag=     0.0001
