 running on    8 total cores
 distrk:  each k-point on    8 cores,    1 groups
 distr:  one band on    1 cores,    8 groups
 using from now: INCAR     
 vasp.6.1.2 22Jul20 (build Mar 20 2021 11:25:07) complex                        
  
 POSCAR found type information on POSCAR LiN 
 POSCAR found :  2 types and       4 ions
 scaLAPACK will be used
 -----------------------------------------------------------------------------
|                                                                             |
|           W    W    AA    RRRRR   N    N  II  N    N   GGGG   !!!           |
|           W    W   A  A   R    R  NN   N  II  NN   N  G    G  !!!           |
|           W    W  A    A  R    R  N N  N  II  N N  N  G       !!!           |
|           W WW W  AAAAAA  RRRRR   N  N N  II  N  N N  G  GGG   !            |
|           WW  WW  A    A  R   R   N   NN  II  N   NN  G    G                |
|           W    W  A    A  R    R  N    N  II  N    N   GGGG   !!!           |
|                                                                             |
|     The value NCORE = 6 specified in the INCAR file was overwritten,        |
|     because it was not compatible with the 8 processes available:           |
|     NCORE = 1                                                               |
|     was used instead, please check that this makes sense for your           |
|     machine.                                                                |
|                                                                             |
 -----------------------------------------------------------------------------

 -----------------------------------------------------------------------------
|                                                                             |
|           W    W    AA    RRRRR   N    N  II  N    N   GGGG   !!!           |
|           W    W   A  A   R    R  NN   N  II  NN   N  G    G  !!!           |
|           W    W  A    A  R    R  N N  N  II  N N  N  G       !!!           |
|           W WW W  AAAAAA  RRRRR   N  N N  II  N  N N  G  GGG   !            |
|           WW  WW  A    A  R   R   N   NN  II  N   NN  G    G                |
|           W    W  A    A  R    R  N    N  II  N    N   GGGG   !!!           |
|                                                                             |
|     For optimal performance we recommend to set                             |
|       NCORE = 4 - approx SQRT(number of cores).                             |
|     NCORE specifies how many cores store one orbital (NPAR=cpu/NCORE).      |
|     This setting can greatly improve the performance of VASP for DFT.       |
|     The default, NCORE=1 might be grossly inefficient on modern             |
|     multi-core architectures or massively parallel machines. Do your        |
|     own testing!!!!                                                         |
|     Unfortunately you need to use the default for GW and RPA                |
|     calculations (for HF NCORE is supported but not extensively tested      |
|     yet).                                                                   |
|                                                                             |
 -----------------------------------------------------------------------------

 -----------------------------------------------------------------------------
|                                                                             |
|               ----> ADVICE to this user running VASP <----                  |
|                                                                             |
|     You have a (more or less) 'small supercell' and for smaller cells       |
|     it is recommended to use the reciprocal-space projection scheme!        |
|     The real-space optimization is not efficient for small cells and it     |
|     is also less accurate ...                                               |
|     Therefore, set LREAL=.FALSE. in the INCAR file.                         |
|                                                                             |
 -----------------------------------------------------------------------------

 LDA part: xc-table for Pade appr. of Perdew
 generate k-points for:   11   11    7
 POSCAR, INCAR and KPOINTS ok, starting setup
 FFT: planning ...
 WAVECAR not read
 entering main loop
       N       E                     dE             d eps       ncg     rms          rms(c)
DAV:   1     0.787239582259E+02    0.78724E+02   -0.84750E+03 14992   0.105E+03
DAV:   2    -0.240981909588E+02   -0.10282E+03   -0.99321E+02 20392   0.250E+02
DAV:   3    -0.287165677330E+02   -0.46184E+01   -0.46026E+01 21496   0.547E+01
DAV:   4    -0.288586161263E+02   -0.14205E+00   -0.14199E+00 21032   0.837E+00
DAV:   5    -0.288600515416E+02   -0.14354E-02   -0.14354E-02 20568   0.810E-01    0.133E+01
RMM:   6    -0.274689855505E+02    0.13911E+01   -0.32253E+00 16473   0.113E+01    0.612E+00
RMM:   7    -0.273727543832E+02    0.96231E-01   -0.53638E-01 18691   0.613E+00    0.357E+00
RMM:   8    -0.273452795206E+02    0.27475E-01   -0.19930E-01 20059   0.340E+00    0.178E+00
RMM:   9    -0.273546008327E+02   -0.93213E-02   -0.43132E-02 21486   0.172E+00    0.659E-01
RMM:  10    -0.273556905212E+02   -0.10897E-02   -0.12369E-02 22943   0.836E-01    0.158E-01
RMM:  11    -0.273565029933E+02   -0.81247E-03   -0.30125E-03 23568   0.439E-01    0.822E-02
RMM:  12    -0.273568165872E+02   -0.31359E-03   -0.14710E-03 25112   0.260E-01    0.421E-02
RMM:  13    -0.273569220712E+02   -0.10548E-03   -0.52803E-04 24628   0.152E-01    0.127E-02
RMM:  14    -0.273569629714E+02   -0.40900E-04   -0.26646E-04 23952   0.102E-01    0.803E-03
RMM:  15    -0.273569794836E+02   -0.16512E-04   -0.11847E-04 21758   0.645E-02    0.447E-03
RMM:  16    -0.273569865015E+02   -0.70179E-05   -0.51875E-05 19157   0.444E-02
   1 F= -.27356987E+02 E0= -.27356987E+02  d E =0.000000E+00  mag=    -0.0000
