       N       E                     dE             d eps       ncg     rms          rms(c)
DAV:   1     0.621683287399E+03    0.62168E+03   -0.36585E+04  9984   0.152E+03
DAV:   2    -0.405011479344E+02   -0.66218E+03   -0.62860E+03 11716   0.391E+02
DAV:   3    -0.102343041607E+03   -0.61842E+02   -0.61505E+02 13868   0.114E+02
DAV:   4    -0.107959986463E+03   -0.56169E+01   -0.55921E+01 17896   0.289E+01
DAV:   5    -0.108561856114E+03   -0.60187E+00   -0.60174E+00 14256   0.605E+00    0.353E+01
RMM:   6    -0.987313063378E+02    0.98305E+01   -0.43504E+01 10947   0.242E+01    0.141E+01
RMM:   7    -0.998436381833E+02   -0.11123E+01   -0.44517E+00 14462   0.838E+00    0.743E+00
RMM:   8    -0.100047033534E+03   -0.20340E+00   -0.10948E+00 16386   0.447E+00    0.374E+00
RMM:   9    -0.100120584699E+03   -0.73551E-01   -0.38493E-01 16293   0.322E+00    0.985E-01
RMM:  10    -0.100155467546E+03   -0.34883E-01   -0.27773E-01 18607   0.189E+00    0.372E-01
RMM:  11    -0.100173475424E+03   -0.18008E-01   -0.13655E-01 19165   0.121E+00    0.296E-01
RMM:  12    -0.100180814950E+03   -0.73395E-02   -0.52687E-02 19361   0.763E-01    0.186E-01
RMM:  13    -0.100183489793E+03   -0.26748E-02   -0.20911E-02 18978   0.515E-01    0.851E-02
RMM:  14    -0.100184847281E+03   -0.13575E-02   -0.10950E-02 19070   0.367E-01    0.359E-02
RMM:  15    -0.100185355143E+03   -0.50786E-03   -0.47597E-03 18770   0.232E-01    0.320E-02
RMM:  16    -0.100185588674E+03   -0.23353E-03   -0.22983E-03 18451   0.155E-01    0.212E-02
RMM:  17    -0.100185655167E+03   -0.66493E-04   -0.81715E-04 18261   0.107E-01    0.138E-02
RMM:  18    -0.100185715439E+03   -0.60271E-04   -0.49686E-04 17800   0.777E-02    0.112E-02
RMM:  19    -0.100185737178E+03   -0.21739E-04   -0.22334E-04 17274   0.535E-02    0.996E-03
RMM:  20    -0.100185746461E+03   -0.92835E-05   -0.80582E-05 14163   0.391E-02
   1 F= -.10018575E+03 E0= -.10018575E+03  d E =0.000000E+00  mag=     0.0001
