       N       E                     dE             d eps       ncg     rms          rms(c)
DAV:   1     0.107585000776E+04    0.10759E+04   -0.69313E+04  5856   0.134E+03
DAV:   2    -0.289378953583E+02   -0.11048E+04   -0.10186E+04  6840   0.294E+02
DAV:   3    -0.166208688938E+03   -0.13727E+03   -0.13548E+03  7908   0.973E+01
DAV:   4    -0.182332570540E+03   -0.16124E+02   -0.16021E+02 10688   0.291E+01
DAV:   5    -0.185265984595E+03   -0.29334E+01   -0.29319E+01  9464   0.835E+00    0.357E+01
DAV:   6    -0.185433135128E+03   -0.16715E+00   -0.93047E+00  7616   0.717E+00    0.197E+01
DAV:   7    -0.187649646676E+03   -0.22165E+01   -0.34142E+00  7480   0.450E+00    0.119E+01
DAV:   8    -0.188472491559E+03   -0.82284E+00   -0.14777E+00  7056   0.316E+00    0.250E+00
DAV:   9    -0.188535349769E+03   -0.62858E-01   -0.20444E-01  8144   0.135E+00    0.124E+00
DAV:  10    -0.188545954039E+03   -0.10604E-01   -0.42651E-02  7704   0.527E-01    0.443E-01
DAV:  11    -0.188549706715E+03   -0.37527E-02   -0.61293E-03  7096   0.254E-01    0.209E-01
DAV:  12    -0.188551407757E+03   -0.17010E-02   -0.21518E-03  7896   0.133E-01    0.107E-01
DAV:  13    -0.188552234426E+03   -0.82667E-03   -0.61783E-04  7136   0.651E-02    0.434E-02
DAV:  14    -0.188552522572E+03   -0.28815E-03   -0.27746E-04  7208   0.423E-02    0.230E-02
DAV:  15    -0.188552596474E+03   -0.73902E-04   -0.84692E-05  6928   0.238E-02    0.122E-02
DAV:  16    -0.188552614360E+03   -0.17886E-04   -0.17829E-05  5288   0.128E-02    0.556E-03
DAV:  17    -0.188552619031E+03   -0.46715E-05   -0.54213E-06  4480   0.711E-03
   1 F= -.18855262E+03 E0= -.18855262E+03  d E =0.000000E+00  mag=    -0.0002
