    1    1    1    2
  0.1931587E+02  0.2927602E-09  0.2927602E-09  0.2927602E-09  0.5000000E-15
  1.000000000000000E-004
  CAR 
 unknown system                          
      3     84      8
 
  0.0000000E+00  0.0000000E+00  0.0000000E+00  0.4551661E-03
    1      -45.688229    -45.685054   1.000000   1.000000
    2       -2.859362     -2.858727   1.000000   1.000000
    3       15.880417     15.880242   0.000000   0.000000
    4       15.880417     15.880242   0.000000   0.000000
    5       15.880519     15.880246   0.000000   0.000000
    6       20.751736     20.752548   0.000000   0.000000
    7       20.751736     20.752548   0.000000   0.000000
    8       20.751776     20.752629   0.000000   0.000000
 
  0.7692308E-01  0.2048880E-17 -0.2048880E-17  0.5461994E-02
    1      -45.686938    -45.683763   1.000000   1.000000
    2       -2.745712     -2.745085   1.000000   1.000000
    3       15.083968     15.084018   0.000000   0.000000
    4       15.313278     15.313184   0.000000   0.000000
    5       15.674570     15.674384   0.000000   0.000000
    6       19.224353     19.224643   0.000000   0.000000
    7       19.439364     19.440093   0.000000   0.000000
    8       20.843153     20.843267   0.000000   0.000000
 
  0.1538462E+00  0.9329023E-18 -0.9329023E-18  0.5461994E-02
    1      -45.683146    -45.679969   1.000000   1.000000
    2       -2.403720     -2.403117   1.000000   1.000000
    3       12.925649     12.926035   0.000000   0.000000
    4       14.232208     14.232237   0.000000   0.000000
    5       15.116377     15.116182   0.000000   0.000000
    6       17.933290     17.934003   0.000000   0.000000
    7       18.268687     18.269139   0.000000   0.000000
    8       20.550298     20.550484   0.000000   0.000000
 
  0.2307692E+00  0.1471026E-16  0.1304531E-16  0.5461994E-02
    1      -45.677910    -45.674730   1.000000   1.000000
    2       -1.834423     -1.833859   1.000000   1.000000
    3       10.379002     10.379358   0.000000   0.000000
    4       13.194846     13.194943   0.000000   0.000000
    5       14.404634     14.404445   0.000000   0.000000
    6       16.704474     16.705181   0.000000   0.000000
    7       18.039524     18.040286   0.000000   0.000000
    8       20.895948     20.896163   0.000000   0.000000
 
  0.3076923E+00  0.1865805E-17 -0.1865805E-17  0.5461994E-02
    1      -45.672328    -45.669147   1.000000   1.000000
    2       -1.045880     -1.045371   1.000000   1.000000
    3        7.974485      7.974905   0.000000   0.000000
    4       12.367269     12.367401   0.000000   0.000000
    5       13.749321     13.749140   0.000000   0.000000
    6       15.778004     15.778708   0.000000   0.000000
    7       18.117367     18.117729   0.000000   0.000000
    8       21.700139     21.700374   0.000000   0.000000
 
  0.3846154E+00  0.6063993E-17 -0.6063993E-17  0.5461994E-02
    1      -45.667686    -45.664503   1.000000   1.000000
    2       -0.083159     -0.082731   1.044514   1.044587
    3        5.898842      5.899351   0.000000   0.000000
    4       11.800817     11.800969   0.000000   0.000000
    5       13.269976     13.269802   0.000000   0.000000
    6       15.159064     15.159766   0.000000   0.000000
    7       18.322770     18.323241   0.000000   0.000000
    8       22.803899     22.804160   0.000000   0.000000
 
  0.4615385E+00  0.1667649E-16  0.3883466E-16  0.5461994E-02
    1      -45.665055    -45.661872   1.000000   1.000000
    2        0.822273      0.822584   0.409307   0.408652
    3        4.429036      4.429663   0.000000   0.000000
    4       11.514260     11.514419   0.000000   0.000000
    5       13.020261     13.020090   0.000000   0.000000
    6       14.849320     14.850022   0.000000   0.000000
    7       18.492486     18.493059   0.000000   0.000000
    8       23.886044     23.886353   0.000000   0.000000
 
  0.7692308E-01  0.7692308E-01  0.8445966E-15  0.1092399E-01
    1      -45.684349    -45.681172   1.000000   1.000000
    2       -2.517624     -2.517013   1.000000   1.000000
    3       14.065496     14.065808   0.000000   0.000000
    4       14.079001     14.079089   0.000000   0.000000
    5       15.034628     15.034520   0.000000   0.000000
    6       18.418367     18.418485   0.000000   0.000000
    7       18.699853     18.700414   0.000000   0.000000
    8       20.621636     20.622085   0.000000   0.000000
 
  0.1538462E+00  0.7692308E-01  0.8179570E-15  0.2184797E-01
    1      -45.679856    -45.676677   1.000000   1.000000
    2       -2.061292     -2.060712   1.000000   1.000000
    3       11.669451     11.669815   0.000000   0.000000
    4       13.008318     13.008580   0.000000   0.000000
    5       14.182054     14.182008   0.000000   0.000000
    6       18.042615     18.043170   0.000000   0.000000
    7       18.109183     18.109447   0.000000   0.000000
    8       20.752353     20.752905   0.000000   0.000000
 
  0.2307692E+00  0.7692308E-01  0.8180574E-15  0.2184797E-01
    1      -45.674403    -45.671223   1.000000   1.000000
    2       -1.378625     -1.378091   1.000000   1.000000
    3        9.173695      9.174053   0.000000   0.000000
    4       12.108208     12.108444   0.000000   0.000000
    5       13.367426     13.367421   0.000000   0.000000
    6       17.343670     17.344214   0.000000   0.000000
    7       18.118420     18.118685   0.000000   0.000000
    8       21.309512     21.310172   0.000000   0.000000
 
  0.3076923E+00  0.7692308E-01  0.8266033E-15  0.2184797E-01
    1      -45.669312    -45.666131   1.000000   1.000000
    2       -0.488623     -0.488155   1.006947   1.006964
    3        6.916902      6.917342   0.000000   0.000000
    4       11.438650     11.438905   0.000000   0.000000
    5       12.728778     12.728798   0.000000   0.000000
    6       16.732512     16.733007   0.000000   0.000000
    7       18.352600     18.352862   0.000000   0.000000
    8       22.209228     22.209804   0.000000   0.000000
 
  0.3846154E+00  0.7692308E-01  0.8587579E-15  0.2184797E-01
    1      -45.665704    -45.662521   1.000000   1.000000
    2        0.512196      0.512566   0.891969   0.891488
    3        5.077454      5.077995   0.000000   0.000000
    4       11.028723     11.028993   0.000000   0.000000
    5       12.329422     12.329455   0.000000   0.000000
    6       16.340553     16.341039   0.000000   0.000000
    7       18.627898     18.628285   0.000000   0.000000
    8       23.302503     23.302975   0.000000   0.000000
 
  0.4615385E+00  0.7692308E-01  0.8481454E-15  0.1092399E-01
    1      -45.664364    -45.661180   1.000000   1.000000
    2        1.111116      1.111394   0.003777   0.003613
    3        4.196778      4.197412   0.000000   0.000000
    4       10.891052     10.891328   0.000000   0.000000
    5       12.194125     12.194162   0.000000   0.000000
    6       16.206833     16.207318   0.000000   0.000000
    7       18.754141     18.754586   0.000000   0.000000
    8       24.131997     24.132661   0.000000   0.000000
 
  0.1538462E+00  0.1538462E+00  0.5271694E-14  0.1092399E-01
    1      -45.675172    -45.671992   1.000000   1.000000
    2       -1.489253     -1.488710   1.000000   1.000000
    3       10.140118     10.140353   0.000000   0.000000
    4       11.190169     11.190559   0.000000   0.000000
    5       13.328408     13.328440   0.000000   0.000000
    6       18.044582     18.044649   0.000000   0.000000
    7       18.560249     18.561010   0.000000   0.000000
    8       21.301336     21.301721   0.000000   0.000000
 
  0.2307692E+00  0.1538462E+00  0.5244038E-14  0.2184797E-01
    1      -45.670226    -45.667045   1.000000   1.000000
    2       -0.692805     -0.692315   1.003199   1.003205
    3        8.001145      8.001458   0.000000   0.000000
    4       10.190292     10.190716   0.000000   0.000000
    5       12.659732     12.659808   0.000000   0.000000
    6       18.109539     18.109839   0.000000   0.000000
    7       18.764970     18.765306   0.000000   0.000000
    8       22.064431     22.065088   0.000000   0.000000
 
  0.3076923E+00  0.1538462E+00  0.5276041E-14  0.2184797E-01
    1      -45.666135    -45.662952   1.000000   1.000000
    2        0.292898      0.293312   0.971381   0.971163
    3        5.972168      5.972574   0.000000   0.000000
    4        9.611953      9.612384   0.000000   0.000000
    5       12.187726     12.187829   0.000000   0.000000
    6       18.015934     18.016397   0.000000   0.000000
    7       19.147245     19.147376   0.000000   0.000000
    8       22.839354     22.839895   0.000000   0.000000
 
  0.3846154E+00  0.1538462E+00  0.5169418E-14  0.2184797E-01
    1      -45.663825    -45.660641   1.000000   1.000000
    2        1.258792      1.259101   0.008926   0.008799
    3        4.465283      4.465800   0.000000   0.000000
    4        9.329086      9.329523   0.000000   0.000000
    5       11.944295     11.944413   0.000000   0.000000
    6       17.901761     17.902280   0.000000   0.000000
    7       19.560777     19.560922   0.000000   0.000000
    8       23.403815     23.404655   0.000000   0.000000
 
  0.2307692E+00  0.2307692E+00 -0.4609090E-14  0.1092399E-01
    1      -45.666317    -45.663134   1.000000   1.000000
    2        0.215301      0.215731   0.985797   0.985619
    3        6.589470      6.589735   0.000000   0.000000
    4        8.760851      8.761428   0.000000   0.000000
    5       12.192507     12.192637   0.000000   0.000000
    6       18.565847     18.565977   0.000000   0.000000
    7       19.470132     19.470644   0.000000   0.000000
    8       23.270800     23.271124   0.000000   0.000000
 
  0.3076923E+00  0.2307692E+00 -0.4647459E-14  0.2184797E-01
    1      -45.663519    -45.660336   1.000000   1.000000
    2        1.287806      1.288159   0.032625   0.032443
    3        4.998898      4.999219   0.000000   0.000000
    4        8.080598      8.081214   0.000000   0.000000
    5       11.902392     11.902560   0.000000   0.000000
    6       18.926587     18.926881   0.000000   0.000000
    7       20.131093     20.131483   0.000000   0.000000
    8       23.085686     23.085876   0.000000   0.000000
 
  0.3846154E+00  0.2307692E+00 -0.4576987E-14  0.1092399E-01
    1      -45.662541    -45.659358   1.000000   1.000000
    2        2.030324      2.030599  -0.004011  -0.004004
    3        4.048380      4.048780   0.000000   0.000000
    4        7.884046      7.884669   0.000000   0.000000
    5       11.803353     11.803536   0.000000   0.000000
    6       19.028411     19.028816   0.000000   0.000000
    7       20.779199     20.779519   0.000000   0.000000
    8       22.088169     22.088354   0.000000   0.000000
 
  0.3076923E+00  0.3076923E+00 -0.1147539E-15  0.1092399E-01
    1      -45.662048    -45.658863   1.000000   1.000000
    2        2.433596      2.433890  -0.002790  -0.002785
    3        3.862800      3.863075   0.000000   0.000000
    4        7.292413      7.293151   0.000000   0.000000
    5       11.760831     11.761036   0.000000   0.000000
    6       19.899144     19.899317   0.000000   0.000000
    7       20.635017     20.635510   0.000000   0.000000
    8       21.626018     21.626257   0.000000   0.000000
 
  0.7692308E-01  0.7692308E-01  0.7692308E-01  0.3641329E-02
    1      -45.680977    -45.677799   1.000000   1.000000
    2       -2.176030     -2.175443   1.000000   1.000000
    3       12.970749     12.970881   0.000000   0.000000
    4       12.970749     12.970881   0.000000   0.000000
    5       13.174771     13.175174   0.000000   0.000000
    6       18.732966     18.733142   0.000000   0.000000
    7       18.732967     18.733142   0.000000   0.000000
    8       22.177609     22.177831   0.000000   0.000000
 
  0.1538462E+00  0.7692308E-01  0.7692308E-01  0.1092399E-01
    1      -45.676211    -45.673030   1.000000   1.000000
    2       -1.605697     -1.605148   1.000000   1.000000
    3       10.448885     10.449173   0.000000   0.000000
    4       11.918231     11.918388   0.000000   0.000000
    5       12.326556     12.326866   0.000000   0.000000
    6       18.843896     18.844133   0.000000   0.000000
    7       19.053115     19.053354   0.000000   0.000000
    8       22.016873     22.017168   0.000000   0.000000
 
  0.2307692E+00  0.7692308E-01  0.7692308E-01  0.1092399E-01
    1      -45.671149    -45.667968   1.000000   1.000000
    2       -0.812150     -0.811655   1.001222   1.001226
    3        8.048846      8.049199   0.000000   0.000000
    4       11.081525     11.081696   0.000000   0.000000
    5       11.665075     11.665427   0.000000   0.000000
    6       18.625204     18.625494   0.000000   0.000000
    7       19.293911     19.294334   0.000000   0.000000
    8       22.363587     22.363865   0.000000   0.000000
 
  0.3076923E+00  0.7692308E-01  0.7692308E-01  0.1092399E-01
    1      -45.666967    -45.663784   1.000000   1.000000
    2        0.166621      0.167038   1.033721   1.033594
    3        5.964061      5.964500   0.000000   0.000000
    4       10.509606     10.509785   0.000000   0.000000
    5       11.209005     11.209389   0.000000   0.000000
    6       18.297404     18.297720   0.000000   0.000000
    7       19.541995     19.542307   0.000000   0.000000
    8       23.295781     23.296066   0.000000   0.000000
 
  0.3846154E+00  0.7692308E-01  0.7692308E-01  0.1092399E-01
    1      -45.664591    -45.661408   1.000000   1.000000
    2        1.114053      1.114362   0.079175   0.078941
    3        4.455803      4.456353   0.000000   0.000000
    4       10.220447     10.220629   0.000000   0.000000
    5       10.976832     10.977233   0.000000   0.000000
    6       18.092098     18.092423   0.000000   0.000000
    7       19.728648     19.729053   0.000000   0.000000
    8       24.330292     24.330623   0.000000   0.000000
 
 -0.7692308E-01  0.7692308E-01  0.7692308E-01  0.2730997E-02
    1      -45.685551    -45.682375   1.000000   1.000000
    2       -2.631194     -2.630575   1.000000   1.000000
    3       14.673486     14.673536   0.000000   0.000000
    4       14.673545     14.673551   0.000000   0.000000
    5       15.386316     15.386373   0.000000   0.000000
    6       18.166546     18.166641   0.000000   0.000000
    7       19.906367     19.906879   0.000000   0.000000
    8       19.906388     19.906898   0.000000   0.000000
 
  0.1538462E+00  0.1538462E+00  0.7692308E-01  0.1092399E-01
    1      -45.671824    -45.668643   1.000000   1.000000
    2       -0.920254     -0.919750   1.000523   1.000525
    3        8.998534      8.998771   0.000000   0.000000
    4       10.029863     10.030167   0.000000   0.000000
    5       11.600498     11.600887   0.000000   0.000000
    6       19.668152     19.668474   0.000000   0.000000
    7       19.785003     19.785048   0.000000   0.000000
    8       22.799144     22.799527   0.000000   0.000000
 
  0.2307692E+00  0.1538462E+00  0.7692308E-01  0.2184797E-01
    1      -45.667676    -45.664494   1.000000   1.000000
    2       -0.015178     -0.014736   1.053649   1.053578
    3        6.980177      6.980484   0.000000   0.000000
    4        9.108253      9.108572   0.000000   0.000000
    5       11.103333     11.103784   0.000000   0.000000
    6       19.997915     19.998247   0.000000   0.000000
    7       20.368374     20.368453   0.000000   0.000000
    8       23.411592     23.412164   0.000000   0.000000
 
  0.3076923E+00  0.1538462E+00  0.7692308E-01  0.2184797E-01
    1      -45.664807    -45.661623   1.000000   1.000000
    2        1.037797      1.038156   0.189249   0.188941
    3        5.145471      5.145871   0.000000   0.000000
    4        8.639832      8.640150   0.000000   0.000000
    5       10.800967     10.801461   0.000000   0.000000
    6       19.989635     19.989961   0.000000   0.000000
    7       20.857900     20.858052   0.000000   0.000000
    8       24.278030     24.278746   0.000000   0.000000
 
  0.3846154E+00  0.1538462E+00  0.7692308E-01  0.1092399E-01
    1      -45.663699    -45.660515   1.000000   1.000000
    2        1.725995      1.726270  -0.011883  -0.011869
    3        4.188912      4.189397   0.000000   0.000000
    4        8.488003      8.488320   0.000000   0.000000
    5       10.700290     10.700798   0.000000   0.000000
    6       19.955718     19.956056   0.000000   0.000000
    7       21.071171     21.071363   0.000000   0.000000
    8       25.047476     25.047988   0.000000   0.000000
 
 -0.1538462E+00  0.1538462E+00  0.7692308E-01  0.1092399E-01
    1      -45.681893    -45.678715   1.000000   1.000000
    2       -2.288028     -2.287432   1.000000   1.000000
    3       12.864885     12.865168   0.000000   0.000000
    4       13.518664     13.518807   0.000000   0.000000
    5       14.956840     14.956793   0.000000   0.000000
    6       17.004338     17.004420   0.000000   0.000000
    7       18.901197     18.901775   0.000000   0.000000
    8       20.128377     20.128987   0.000000   0.000000
 
  0.2307692E+00  0.2307692E+00  0.7692308E-01  0.1092399E-01
    1      -45.664837    -45.661655   1.000000   1.000000
    2        0.997986      0.998365   0.233261   0.232936
    3        5.694675      5.694938   0.000000   0.000000
    4        7.777332      7.777778   0.000000   0.000000
    5       10.759674     10.760196   0.000000   0.000000
    6       21.033321     21.033657   0.000000   0.000000
    7       21.174099     21.174187   0.000000   0.000000
    8       24.580159     24.580522   0.000000   0.000000
 
  0.3076923E+00  0.2307692E+00  0.7692308E-01  0.2184797E-01
    1      -45.663235    -45.660051   1.000000   1.000000
    2        2.098382      2.098683  -0.009416  -0.009407
    3        4.308736      4.309052   0.000000   0.000000
    4        7.245118      7.245596   0.000000   0.000000
    5       10.588610     10.589171   0.000000   0.000000
    6       21.334020     21.334363   0.000000   0.000000
    7       22.098442     22.098558   0.000000   0.000000
    8       24.434245     24.434408   0.000000   0.000000
 
 -0.2307692E+00  0.2307692E+00  0.7692308E-01  0.1092399E-01
    1      -45.676753    -45.673573   1.000000   1.000000
    2       -1.716243     -1.715683   1.000000   1.000000
    3       10.412137     10.412483   0.000000   0.000000
    4       12.442239     12.442441   0.000000   0.000000
    5       14.343594     14.343473   0.000000   0.000000
    6       16.841178     16.841268   0.000000   0.000000
    7       17.748117     17.748717   0.000000   0.000000
    8       20.693236     20.694092   0.000000   0.000000
 
 -0.1538462E+00  0.2307692E+00  0.7692308E-01  0.1092399E-01
    1      -45.677587    -45.674407   1.000000   1.000000
    2       -1.828215     -1.827648   1.000000   1.000000
    3       11.446881     11.447103   0.000000   0.000000
    4       11.941316     11.941673   0.000000   0.000000
    5       14.539209     14.539161   0.000000   0.000000
    6       16.139498     16.139595   0.000000   0.000000
    7       18.829888     18.830842   0.000000   0.000000
    8       20.605619     20.605951   0.000000   0.000000
 
  0.3076923E+00  0.3076923E+00  0.7692308E-01  0.3641329E-02
    1      -45.662673    -45.659489   1.000000   1.000000
    2        3.257634      3.257907   0.000000   0.000000
    3        3.257663      3.257931   0.000000   0.000000
    4        6.739990      6.740546   0.000000   0.000000
    5       10.519008     10.519596   0.000000   0.000000
    6       22.143041     22.143402   0.000000   0.000000
    7       23.012472     23.012627   0.000000   0.000000
    8       23.012515     23.012632   0.000000   0.000000
 
 -0.3076923E+00  0.3076923E+00  0.7692308E-01  0.1092399E-01
    1      -45.671262    -45.668080   1.000000   1.000000
    2       -0.923431     -0.922925   1.000000   1.000000
    3        8.033668      8.034084   0.000000   0.000000
    4       11.593650     11.593881   0.000000   0.000000
    5       13.725789     13.725676   0.000000   0.000000
    6       16.851696     16.852304   0.000000   0.000000
    7       17.141599     17.141720   0.000000   0.000000
    8       21.448405     21.448999   0.000000   0.000000
 
 -0.2307692E+00  0.3076923E+00  0.7692308E-01  0.2184797E-01
    1      -45.672352    -45.669173   1.000000   1.000000
    2       -1.139736     -1.139215   1.000000   1.000000
    3        9.214820      9.215143   0.000000   0.000000
    4       10.891425     10.891775   0.000000   0.000000
    5       13.987571     13.987501   0.000000   0.000000
    6       16.115069     16.115181   0.000000   0.000000
    7       18.390026     18.390701   0.000000   0.000000
    8       21.324279     21.324961   0.000000   0.000000
 
 -0.3846154E+00  0.3846154E+00  0.7692308E-01  0.1092399E-01
    1      -45.666712    -45.663528   1.000000   1.000000
    2        0.047360      0.047788   1.052974   1.052990
    3        5.962445      5.962946   0.000000   0.000000
    4       11.015866     11.016113   0.000000   0.000000
    5       13.265166     13.265067   0.000000   0.000000
    6       16.247219     16.247829   0.000000   0.000000
    7       17.611897     17.612101   0.000000   0.000000
    8       22.276012     22.276623   0.000000   0.000000
 
 -0.3076923E+00  0.3846154E+00  0.7692308E-01  0.2184797E-01
    1      -45.667464    -45.664281   1.000000   1.000000
    2       -0.239167     -0.238705   1.028884   1.028903
    3        7.016357      7.016763   0.000000   0.000000
    4       10.190419     10.190783   0.000000   0.000000
    5       13.440599     13.440556   0.000000   0.000000
    6       16.482088     16.482309   0.000000   0.000000
    7       18.038651     18.039093   0.000000   0.000000
    8       21.938458     21.939061   0.000000   0.000000
 
 -0.2307692E+00  0.3846154E+00  0.7692308E-01  0.1092399E-01
    1      -45.667717    -45.664535   1.000000   1.000000
    2       -0.335463     -0.334991   1.024500   1.024513
    3        7.758634      7.758896   0.000000   0.000000
    4        9.409296      9.409829   0.000000   0.000000
    5       13.668498     13.668427   0.000000   0.000000
    6       16.022665     16.022808   0.000000   0.000000
    7       18.809693     18.810386   0.000000   0.000000
    8       22.439799     22.440072   0.000000   0.000000
 
 -0.4615385E+00  0.4615385E+00  0.7692308E-01  0.1092399E-01
    1      -45.664143    -45.660959   1.000000   1.000000
    2        0.969087      0.969402   0.187805   0.187362
    3        4.481227      4.481842   0.000000   0.000000
    4       10.724275     10.724529   0.000000   0.000000
    5       13.024152     13.024058   0.000000   0.000000
    6       15.943618     15.944230   0.000000   0.000000
    7       17.988662     17.988965   0.000000   0.000000
    8       23.035976     23.037622   0.000000   0.000000
 
 -0.3846154E+00  0.4615385E+00  0.7692308E-01  0.2184797E-01
    1      -45.663960    -45.660777   1.000000   1.000000
    2        0.784927      0.785300   0.474488   0.473971
    3        5.180469      5.180971   0.000000   0.000000
    4        9.768466      9.768838   0.000000   0.000000
    5       13.076107     13.076080   0.000000   0.000000
    6       16.753574     16.754049   0.000000   0.000000
    7       18.117028     18.117231   0.000000   0.000000
    8       21.905959     21.906975   0.000000   0.000000
 
 -0.3076923E+00  0.4615385E+00  0.7692308E-01  0.2184797E-01
    1      -45.663857    -45.660674   1.000000   1.000000
    2        0.668828      0.669237   0.606330   0.605890
    3        5.985637      5.985964   0.000000   0.000000
    4        8.640890      8.641459   0.000000   0.000000
    5       13.324655     13.324607   0.000000   0.000000
    6       16.435242     16.435437   0.000000   0.000000
    7       19.006356     19.007008   0.000000   0.000000
    8       22.107256     22.107444   0.000000   0.000000
 
 -0.4615385E+00 -0.4615385E+00  0.7692308E-01  0.1092399E-01
    1      -45.662709    -45.659525   1.000000   1.000000
    2        1.415753      1.416035  -0.031442  -0.031387
    3        4.274934      4.275528   0.000000   0.000000
    4        9.627215      9.627590   0.000000   0.000000
    5       12.950354     12.950331   0.000000   0.000000
    6       16.791617     16.792270   0.000000   0.000000
    7       18.346267     18.346398   0.000000   0.000000
    8       21.550790     21.551005   0.000000   0.000000
 
 -0.3846154E+00 -0.4615385E+00  0.7692308E-01  0.2184797E-01
    1      -45.661666    -45.658482   1.000000   1.000000
    2        1.689381      1.689696  -0.029781  -0.029772
    3        4.503087      4.503517   0.000000   0.000000
    4        8.313089      8.313663   0.000000   0.000000
    5       13.114732     13.114697   0.000000   0.000000
    6       16.888560     16.888895   0.000000   0.000000
    7       19.436287     19.436814   0.000000   0.000000
    8       20.541985     20.542203   0.000000   0.000000
 
 -0.3076923E+00 -0.4615385E+00  0.7692308E-01  0.1092399E-01
    1      -45.661286    -45.658101   1.000000   1.000000
    2        1.764764      1.765108  -0.032561  -0.032550
    3        4.764021      4.764294   0.000000   0.000000
    4        7.672585      7.673310   0.000000   0.000000
    5       13.219805     13.219765   0.000000   0.000000
    6       16.947431     16.947606   0.000000   0.000000
    7       19.184551     19.185105   0.000000   0.000000
    8       20.887790     20.888178   0.000000   0.000000
 
 -0.3846154E+00 -0.3846154E+00  0.7692308E-01  0.1092399E-01
    1      -45.660362    -45.657177   1.000000   1.000000
    2        2.637179      2.637461  -0.000289  -0.000287
    3        3.810603      3.810912   0.000000   0.000000
    4        7.378939      7.379702   0.000000   0.000000
    5       13.170164     13.170132   0.000000   0.000000
    6       17.482124     17.482343   0.000000   0.000000
    7       18.801081     18.801284   0.000000   0.000000
    8       20.458917     20.459666   0.000000   0.000000
 
  0.1538462E+00  0.1538462E+00  0.1538462E+00  0.3641329E-02
    1      -45.668240    -45.665058   1.000000   1.000000
    2       -0.119646     -0.119194   1.064642   1.064602
    3        8.118379      8.118617   0.000000   0.000000
    4        8.118379      8.118617   0.000000   0.000000
    5       10.723285     10.723935   0.000000   0.000000
    6       20.977031     20.977123   0.000000   0.000000
    7       20.977031     20.977123   0.000000   0.000000
    8       24.958124     24.958333   0.000000   0.000000
 
  0.2307692E+00  0.1538462E+00  0.1538462E+00  0.1092399E-01
    1      -45.665308    -45.662125   1.000000   1.000000
    2        0.895183      0.895569   0.323593   0.323233
    3        6.133002      6.133292   0.000000   0.000000
    4        7.524613      7.524853   0.000000   0.000000
    5       10.309177     10.309926   0.000000   0.000000
    6       21.696704     21.696851   0.000000   0.000000
    7       21.957112     21.957294   0.000000   0.000000
    8       25.395479     25.396006   0.000000   0.000000
 
  0.3076923E+00  0.1538462E+00  0.1538462E+00  0.1092399E-01
    1      -45.663665    -45.660481   1.000000   1.000000
    2        1.971203      1.971505  -0.011649  -0.011641
    3        4.540044      4.540417   0.000000   0.000000
    4        7.226143      7.226384   0.000000   0.000000
    5       10.121222     10.122014   0.000000   0.000000
    6       21.978956     21.979142   0.000000   0.000000
    7       22.496009     22.496239   0.000000   0.000000
    8       26.059091     26.059654   0.000000   0.000000
 
 -0.1538462E+00  0.1538462E+00  0.1538462E+00  0.2730997E-02
    1      -45.678435    -45.675256   1.000000   1.000000
    2       -1.940561     -1.939987   1.000000   1.000000
    3       12.299131     12.299383   0.000000   0.000000
    4       12.299179     12.299408   0.000000   0.000000
    5       14.592029     14.592074   0.000000   0.000000
    6       15.055944     15.056050   0.000000   0.000000
    7       20.401246     20.401582   0.000000   0.000000
    8       20.401271     20.401587   0.000000   0.000000
 
  0.2307692E+00  0.2307692E+00  0.1538462E+00  0.1092399E-01
    1      -45.663659    -45.660475   1.000000   1.000000
    2        2.016148      2.016474  -0.013500  -0.013492
    3        5.093063      5.093325   0.000000   0.000000
    4        6.346370      6.346664   0.000000   0.000000
    5        9.977221      9.978087   0.000000   0.000000
    6       22.854479     22.854662   0.000000   0.000000
    7       23.328972     23.329064   0.000000   0.000000
    8       26.425418     26.425535   0.000000   0.000000
 
  0.3076923E+00  0.2307692E+00  0.1538462E+00  0.1092399E-01
    1      -45.663051    -45.659867   1.000000   1.000000
    2        2.954108      2.954377   0.000000   0.000000
    3        4.062890      4.063188   0.000000   0.000000
    4        6.054149      6.054456   0.000000   0.000000
    5        9.881104      9.882005   0.000000   0.000000
    6       23.252670     23.252898   0.000000   0.000000
    7       24.092394     24.092513   0.000000   0.000000
    8       25.746409     25.746524   0.000000   0.000000
 
 -0.2307692E+00  0.2307692E+00  0.1538462E+00  0.1092399E-01
    1      -45.673547    -45.670366   1.000000   1.000000
    2       -1.361313     -1.360772   1.000000   1.000000
    3       10.457330     10.457647   0.000000   0.000000
    4       11.191304     11.191590   0.000000   0.000000
    5       14.076421     14.076532   0.000000   0.000000
    6       14.613221     14.613283   0.000000   0.000000
    7       19.838011     19.838480   0.000000   0.000000
    8       21.028156     21.028778   0.000000   0.000000
 
 -0.3076923E+00  0.3076923E+00  0.1538462E+00  0.1092399E-01
    1      -45.668384    -45.665202   1.000000   1.000000
    2       -0.556458     -0.555967   1.013467   1.013482
    3        8.209764      8.210142   0.000000   0.000000
    4       10.326375     10.326685   0.000000   0.000000