       N       E                     dE             d eps       ncg     rms          rms(c)
DAV:   1     0.127346071682E+00    0.12735E+00   -0.70023E+02  2752   0.257E+02
DAV:   2    -0.156947426557E+01   -0.16968E+01   -0.16810E+01  3960   0.341E+01
DAV:   3    -0.159858034119E+01   -0.29106E-01   -0.29079E-01  2960   0.302E+00
DAV:   4    -0.159898834455E+01   -0.40800E-03   -0.40768E-03  4120   0.312E-01
DAV:   5    -0.159899282948E+01   -0.44849E-05   -0.44846E-05  3056   0.158E-02    0.545E+00
RMM:   6    -0.182932305229E+01   -0.23033E+00   -0.53298E-02  3233   0.170E+00    0.258E+00
RMM:   7    -0.189994210083E+01   -0.70619E-01   -0.16478E-02  2858   0.992E-01    0.158E-01
RMM:   8    -0.190097842192E+01   -0.10363E-02   -0.44364E-03  3182   0.562E-01    0.917E-02
RMM:   9    -0.190127548742E+01   -0.29707E-03   -0.17023E-03  3748   0.327E-01    0.337E-02
RMM:  10    -0.190158117150E+01   -0.30568E-03   -0.14229E-03  3501   0.285E-01    0.286E-02
RMM:  11    -0.190163032829E+01   -0.49157E-04   -0.20328E-04  3804   0.116E-01    0.227E-02
RMM:  12    -0.190165507127E+01   -0.24743E-04   -0.14752E-04  3596   0.893E-02    0.798E-03
RMM:  13    -0.190166300857E+01   -0.79373E-05   -0.30204E-05  3435   0.441E-02
   1 F= -.19016630E+01 E0= -.19016630E+01  d E =0.000000E+00  mag=    -0.0001
