       N       E                     dE             d eps       ncg     rms          rms(c)
DAV:   1     0.549056299771E+03    0.54906E+03   -0.42150E+04 35928   0.141E+03
DAV:   2    -0.678915517231E+02   -0.61695E+03   -0.59985E+03 45048   0.331E+02
DAV:   3    -0.108102878557E+03   -0.40211E+02   -0.39907E+02 42824   0.913E+01
DAV:   4    -0.108748125041E+03   -0.64525E+00   -0.64258E+00 44508   0.122E+01
DAV:   5    -0.108763053356E+03   -0.14928E-01   -0.14907E-01 43236   0.176E+00    0.407E+01
DAV:   6    -0.908145362573E+02    0.17949E+02   -0.58648E+01 40580   0.360E+01    0.210E+01
DAV:   7    -0.951824481281E+02   -0.43679E+01   -0.10084E+01 41992   0.132E+01    0.631E+00
DAV:   8    -0.961960848185E+02   -0.10136E+01   -0.22007E+00 43048   0.582E+00    0.290E+00
DAV:   9    -0.961830896066E+02    0.12995E-01   -0.11971E-01 42008   0.203E+00    0.142E+00
DAV:  10    -0.961817363219E+02    0.13533E-02   -0.28541E-02 48552   0.105E+00    0.449E-01
DAV:  11    -0.961822716545E+02   -0.53533E-03   -0.43179E-03 41816   0.369E-01    0.256E-01
DAV:  12    -0.961826636184E+02   -0.39196E-03   -0.15911E-03 45272   0.231E-01    0.126E-01
DAV:  13    -0.961827663310E+02   -0.10271E-03   -0.23917E-04 40984   0.954E-02    0.502E-02
DAV:  14    -0.961827810877E+02   -0.14757E-04   -0.87731E-05 43280   0.512E-02    0.175E-02
DAV:  15    -0.961827844880E+02   -0.34004E-05   -0.11186E-05 27848   0.232E-02
   1 F= -.96182784E+02 E0= -.96182784E+02  d E =0.000000E+00  mag=    -0.0003
