       N       E                     dE             d eps       ncg     rms          rms(c)
DAV:   1     0.259931336644E+03    0.25993E+03   -0.17828E+04 23088   0.149E+03
DAV:   2    -0.150191905344E+02   -0.27495E+03   -0.26586E+03 27764   0.374E+02
DAV:   3    -0.375597196615E+02   -0.22541E+02   -0.22387E+02 39112   0.893E+01
DAV:   4    -0.391239232888E+02   -0.15642E+01   -0.15607E+01 32910   0.214E+01
DAV:   5    -0.391658035826E+02   -0.41880E-01   -0.41877E-01 33284   0.305E+00    0.179E+01
RMM:   6    -0.380048936767E+02    0.11609E+01   -0.49593E+00 25435   0.121E+01    0.792E+00
RMM:   7    -0.386312288795E+02   -0.62634E+00   -0.87160E-01 29129   0.591E+00    0.394E+00
RMM:   8    -0.387108647894E+02   -0.79636E-01   -0.40023E-01 34862   0.366E+00    0.157E+00
RMM:   9    -0.387212760306E+02   -0.10411E-01   -0.14076E-01 36942   0.234E+00    0.406E-01
RMM:  10    -0.387325828330E+02   -0.11307E-01   -0.75049E-02 41065   0.138E+00    0.206E-01
RMM:  11    -0.387369608623E+02   -0.43780E-02   -0.28480E-02 42202   0.809E-01    0.155E-01
RMM:  12    -0.387385985776E+02   -0.16377E-02   -0.12627E-02 43611   0.486E-01    0.116E-01
RMM:  13    -0.387390297136E+02   -0.43114E-03   -0.42963E-03 41045   0.348E-01    0.574E-02
RMM:  14    -0.387393948822E+02   -0.36517E-03   -0.24857E-03 41444   0.247E-01    0.116E-02
RMM:  15    -0.387395314094E+02   -0.13653E-03   -0.12324E-03 39882   0.146E-01    0.110E-02
RMM:  16    -0.387395840177E+02   -0.52608E-04   -0.49306E-04 38580   0.943E-02    0.101E-02
RMM:  17    -0.387395999567E+02   -0.15939E-04   -0.18833E-04 37528   0.652E-02    0.464E-03
RMM:  18    -0.387396069776E+02   -0.70209E-05   -0.73166E-05 30262   0.450E-02
   1 F= -.38739607E+02 E0= -.38739607E+02  d E =0.000000E+00  mag=    -0.0000
