 running on   12 total cores
 distrk:  each k-point on   12 cores,    1 groups
 distr:  one band on    6 cores,    2 groups
 using from now: INCAR     
 vasp.6.1.2 22Jul20 (build Mar 20 2021 11:25:07) complex                        
  
 POSCAR found type information on POSCAR P N O 
 POSCAR found :  3 types and       6 ions
 scaLAPACK will be used
 -----------------------------------------------------------------------------
|                                                                             |
|               ----> ADVICE to this user running VASP <----                  |
|                                                                             |
|     You have a (more or less) 'small supercell' and for smaller cells       |
|     it is recommended to use the reciprocal-space projection scheme!        |
|     The real-space optimization is not efficient for small cells and it     |
|     is also less accurate ...                                               |
|     Therefore, set LREAL=.FALSE. in the INCAR file.                         |
|                                                                             |
 -----------------------------------------------------------------------------

 LDA part: xc-table for Pade appr. of Perdew
 generate k-points for:    8    8   10
 POSCAR, INCAR and KPOINTS ok, starting setup
 FFT: planning ...
 WAVECAR not read
 entering main loop
       N       E                     dE             d eps       ncg     rms          rms(c)
DAV:   1     0.188607481762E+03    0.18861E+03   -0.16905E+04 28512   0.133E+03
DAV:   2    -0.388207829848E+02   -0.22743E+03   -0.21992E+03 39080   0.308E+02
DAV:   3    -0.499503130921E+02   -0.11130E+02   -0.11080E+02 36252   0.742E+01
DAV:   4    -0.500827063128E+02   -0.13239E+00   -0.13223E+00 35524   0.894E+00
DAV:   5    -0.500853317852E+02   -0.26255E-02   -0.26249E-02 35808   0.121E+00    0.300E+01
RMM:   6    -0.436092378639E+02    0.64761E+01   -0.20093E+01 28880   0.264E+01    0.135E+01
RMM:   7    -0.438152482711E+02   -0.20601E+00   -0.55532E+00 32748   0.143E+01    0.544E+00
RMM:   8    -0.437896549717E+02    0.25593E-01   -0.43770E-01 33302   0.493E+00    0.327E+00
RMM:   9    -0.437916060582E+02   -0.19511E-02   -0.14028E-01 33988   0.268E+00    0.902E-01
RMM:  10    -0.437915714836E+02    0.34575E-04   -0.24865E-02 36094   0.114E+00    0.270E-01
RMM:  11    -0.437917959952E+02   -0.22451E-03   -0.14433E-02 35046   0.715E-01    0.238E-01
RMM:  12    -0.437918485800E+02   -0.52585E-04   -0.15537E-03 35218   0.297E-01    0.121E-01
RMM:  13    -0.437918418029E+02    0.67771E-05   -0.52563E-04 34880   0.166E-01    0.315E-02
RMM:  14    -0.437918541980E+02   -0.12395E-04   -0.10460E-04 36034   0.694E-02    0.168E-02
RMM:  15    -0.437918538054E+02    0.39256E-06   -0.19651E-05 25460   0.307E-02
   1 F= -.43791854E+02 E0= -.43791854E+02  d E =0.000000E+00  mag=    -0.0001
