   12   12    1    2
  0.1018999E+02  0.5375962E-09  0.5375962E-09  0.4805615E-09  0.5000000E-15
  1.000000000000000E-004
  CAR 
 unknown system                          
     56     64     40
 
  0.0000000E+00  0.0000000E+00  0.0000000E+00  0.2915452E-02
    1      -40.588709    -40.588503   1.000000   1.000000
    2      -40.570650    -40.570443   1.000000   1.000000
    3      -40.569574    -40.569368   1.000000   1.000000
    4      -40.568948    -40.568741   1.000000   1.000000
    5      -17.126102    -17.126153   1.000000   1.000000
    6      -16.502107    -16.502171   1.000000   1.000000
    7      -15.159412    -15.159490   1.000000   1.000000
    8      -15.137318    -15.137396   1.000000   1.000000
    9      -12.979111    -12.979168   1.000000   1.000000
   10      -11.407348    -11.407405   1.000000   1.000000
   11       -7.187248     -7.187278   1.000000   1.000000
   12       -3.979837     -3.979868   1.000000   1.000000
   13       -3.741373     -3.741400   1.000000   1.000000
   14       -3.117429     -3.117460   1.000000   1.000000
   15       -3.106551     -3.106581   1.000000   1.000000
   16       -1.982832     -1.982883   1.000000   1.000000
   17       -1.045748     -1.045782   1.000000   1.000000
   18       -1.015548     -1.015572   1.000000   1.000000
   19       -0.131691     -0.131732   1.000000   1.000000
   20        0.031909      0.031876   1.000000   1.000000
   21        0.216116      0.216079   1.000000   1.000000
   22        0.915594      0.915532   1.000000   1.000000
   23        0.929515      0.929454   1.000000   1.000000
   24        1.002190      1.002131   1.000000   1.000000
   25        1.158520      1.158470   1.000000   1.000000
   26        1.764423      1.764366   1.000000   1.000000
   27        1.803715      1.803670   1.000000   1.000000
   28        2.460103      2.460062   1.000000   1.000000
   29        7.848091      7.848123   0.000000   0.000000
   30        9.259248      9.259292   0.000000   0.000000
   31        9.539001      9.539003   0.000000   0.000000
   32       10.866090     10.865805   0.000000   0.000000
   33       10.979067     10.979039   0.000000   0.000000
   34       11.869568     11.869546   0.000000   0.000000
   35       11.889779     11.889646   0.000000   0.000000
   36       12.826688     12.829162   0.000000   0.000000
   37       12.950459     12.951309   0.000000   0.000000
   38       13.083650     13.096321   0.000000   0.000000
   39       13.199439     13.199517   0.000000   0.000000
   40       13.529174     13.835302   0.000000   0.000000
 
  0.1428571E+00 -0.8069949E-17  0.0000000E+00  0.1166181E-01
    1      -40.588064    -40.587858   1.000000   1.000000
    2      -40.572562    -40.572355   1.000000   1.000000
    3      -40.569570    -40.569364   1.000000   1.000000
    4      -40.567775    -40.567568   1.000000   1.000000
    5      -17.106941    -17.106993   1.000000   1.000000
    6      -16.520097    -16.520160   1.000000   1.000000
    7      -15.164693    -15.164770   1.000000   1.000000
    8      -15.140409    -15.140487   1.000000   1.000000
    9      -12.982318    -12.982374   1.000000   1.000000
   10      -11.405912    -11.405969   1.000000   1.000000
   11       -7.190543     -7.190572   1.000000   1.000000
   12       -3.969038     -3.969066   1.000000   1.000000
   13       -3.716871     -3.716901   1.000000   1.000000
   14       -3.139661     -3.139692   1.000000   1.000000
   15       -3.037911     -3.037943   1.000000   1.000000
   16       -2.002218     -2.002267   1.000000   1.000000
   17       -1.133116     -1.133144   1.000000   1.000000
   18       -0.801797     -0.801830   1.000000   1.000000
   19       -0.104049     -0.104090   1.000000   1.000000
   20        0.063291      0.063256   1.000000   1.000000
   21        0.209382      0.209347   1.000000   1.000000
   22        0.736251      0.736195   1.000000   1.000000
   23        0.859706      0.859652   1.000000   1.000000
   24        0.990057      0.989996   1.000000   1.000000
   25        1.121801      1.121750   1.000000   1.000000
   26        1.715073      1.715018   1.000000   1.000000
   27        1.855628      1.855579   1.000000   1.000000
   28        2.456231      2.456191   1.000000   1.000000
   29        8.078013      8.078040  -0.000000  -0.000000
   30        9.260798      9.260810   0.000000   0.000000
   31        9.628526      9.628514   0.000000   0.000000
   32       10.723504     10.723517   0.000000   0.000000
   33       11.024667     11.024634   0.000000   0.000000
   34       11.522711     11.522664   0.000000   0.000000
   35       11.955462     11.955633   0.000000   0.000000
   36       12.350110     12.350098   0.000000   0.000000
   37       12.789641     12.789890   0.000000   0.000000
   38       12.950526     12.949780   0.000000   0.000000
   39       13.094247     13.091545   0.000000   0.000000
   40       14.168502     13.924348   0.000000   0.000000
 
  0.2857143E+00  0.6681806E-17  0.0000000E+00  0.1166181E-01
    1      -40.586158    -40.585952   1.000000   1.000000
    2      -40.575699    -40.575492   1.000000   1.000000
    3      -40.569250    -40.569044   1.000000   1.000000
    4      -40.566774    -40.566567   1.000000   1.000000
    5      -17.058248    -17.058301   1.000000   1.000000
    6      -16.565936    -16.565999   1.000000   1.000000
    7      -15.176120    -15.176197   1.000000   1.000000
    8      -15.147420    -15.147498   1.000000   1.000000
    9      -12.988816    -12.988872   1.000000   1.000000
   10      -11.402968    -11.403025   1.000000   1.000000
   11       -7.197083     -7.197112   1.000000   1.000000
   12       -3.963717     -3.963742   1.000000   1.000000
   13       -3.626713     -3.626749   1.000000   1.000000
   14       -3.225360     -3.225393   1.000000   1.000000
   15       -2.838081     -2.838116   1.000000   1.000000
   16       -2.061899     -2.061947   1.000000   1.000000
   17       -1.042973     -1.043004   1.000000   1.000000
   18       -0.561651     -0.561690   1.000000   1.000000
   19       -0.119872     -0.119912   1.000000   1.000000
   20        0.109484      0.109445   1.000000   1.000000
   21        0.221878      0.221844   1.000000   1.000000
   22        0.416479      0.416434   1.000000   1.000000
   23        0.706571      0.706522   1.000000   1.000000
   24        0.918730      0.918681   1.000000   1.000000
   25        1.050313      1.050254   1.000000   1.000000
   26        1.594601      1.594550   1.000000   1.000000
   27        1.977487      1.977430   1.000000   1.000000
   28        2.444831      2.444790   1.000000   1.000000
   29        8.631678      8.631693   0.000000   0.000000
   30        9.240561      9.240563   0.000000   0.000000
   31        9.842114      9.842124   0.000000   0.000000
   32       10.508527     10.508509   0.000000   0.000000
   33       10.907316     10.907321   0.000000   0.000000
   34       11.070938     11.070743   0.000000   0.000000
   35       11.581206     11.581181   0.000000   0.000000
   36       12.039469     12.039133   0.000000   0.000000
   37       12.348227     12.348128   0.000000   0.000000
   38       13.006113     13.005121   0.000000   0.000000
   39       13.153803     13.153878   0.000000   0.000000
   40       13.959993     13.943646   0.000000   0.000000
 
  0.4285714E+00 -0.3964242E-16  0.0000000E+00  0.1166181E-01
    1      -40.583521    -40.583315   1.000000   1.000000
    2      -40.579023    -40.578817   1.000000   1.000000
    3      -40.568985    -40.568778   1.000000   1.000000
    4      -40.566361    -40.566155   1.000000   1.000000
    5      -17.010659    -17.010713   1.000000   1.000000
    6      -16.611468    -16.611530   1.000000   1.000000
    7      -15.185191    -15.185268   1.000000   1.000000
    8      -15.153184    -15.153261   1.000000   1.000000
    9      -12.993570    -12.993627   1.000000   1.000000
   10      -11.401108    -11.401165   1.000000   1.000000
   11       -7.201518     -7.201546   1.000000   1.000000
   12       -3.974401     -3.974423   1.000000   1.000000
   13       -3.493976     -3.494018   1.000000   1.000000
   14       -3.336249     -3.336281   1.000000   1.000000
   15       -2.627441     -2.627482   1.000000   1.000000
   16       -2.142171     -2.142216   1.000000   1.000000
   17       -0.850004     -0.850041   1.000000   1.000000
   18       -0.448994     -0.449041   1.000000   1.000000
   19       -0.182949     -0.182977   1.000000   1.000000
   20        0.015535      0.015500   1.000000   1.000000
   21        0.086465      0.086431   1.000000   1.000000
   22        0.399212      0.399167   1.000000   1.000000
   23        0.679211      0.679168   1.000000   1.000000
   24        0.841480      0.841435   1.000000   1.000000
   25        0.988047      0.987985   1.000000   1.000000
   26        1.477058      1.477013   1.000000   1.000000
   27        2.079922      2.079858   1.000000   1.000000
   28        2.431567      2.431526   1.000000   1.000000
   29        8.948184      8.948195   0.000000   0.000000
   30        9.518822      9.518832   0.000000   0.000000
   31        9.981913      9.981891   0.000000   0.000000
   32       10.282412     10.282411   0.000000   0.000000
   33       10.668736     10.668623   0.000000   0.000000
   34       10.899245     10.899304   0.000000   0.000000
   35       11.122173     11.122199   0.000000   0.000000
   36       11.883300     11.883356   0.000000   0.000000
   37       12.010307     12.010028   0.000000   0.000000
   38       13.254192     13.250479   0.000000   0.000000
   39       13.448138     13.447701   0.000000   0.000000
   40       13.998937     13.975819   0.000000   0.000000
 
  0.1428571E+00  0.1428571E+00  0.0000000E+00  0.5830904E-02
    1      -40.586698    -40.586492   1.000000   1.000000
    2      -40.575019    -40.574813   1.000000   1.000000
    3      -40.569475    -40.569268   1.000000   1.000000
    4      -40.566743    -40.566537   1.000000   1.000000
    5      -17.070073    -17.070125   1.000000   1.000000
    6      -16.558802    -16.558865   1.000000   1.000000
    7      -15.175265    -15.175341   1.000000   1.000000
    8      -15.139471    -15.139549   1.000000   1.000000
    9      -12.983881    -12.983938   1.000000   1.000000
   10      -11.404164    -11.404221   1.000000   1.000000
   11       -7.191084     -7.191112   1.000000   1.000000
   12       -3.982672     -3.982698   1.000000   1.000000
   13       -3.644738     -3.644772   1.000000   1.000000
   14       -3.188110     -3.188143   1.000000   1.000000
   15       -2.953198     -2.953232   1.000000   1.000000
   16       -2.051678     -2.051726   1.000000   1.000000
   17       -1.086933     -1.086963   1.000000   1.000000
   18       -0.518708     -0.518749   1.000000   1.000000
   19       -0.014402     -0.014447   1.000000   1.000000
   20       -0.007063     -0.007097   1.000000   1.000000
   21        0.232994      0.232960   1.000000   1.000000
   22        0.554000      0.553948   1.000000   1.000000
   23        0.609922      0.609880   1.000000   1.000000
   24        1.008398      1.008352   1.000000   1.000000
   25        1.036530      1.036466   1.000000   1.000000
   26        1.614190      1.614140   1.000000   1.000000
   27        1.966809      1.966753   1.000000   1.000000
   28        2.463905      2.463863   1.000000   1.000000
   29        8.451182      8.451200   0.000000   0.000000
   30        9.220817      9.220834   0.000000   0.000000
   31        9.750876      9.750870   0.000000   0.000000
   32       10.563974     10.563973   0.000000   0.000000
   33       10.922884     10.922954   0.000000   0.000000
   34       11.491754     11.491772   0.000000   0.000000
   35       11.590800     11.590973   0.000000   0.000000
   36       12.065692     12.065314   0.000000   0.000000
   37       12.396459     12.398391   0.000000   0.000000
   38       12.643241     12.643180   0.000000   0.000000
   39       13.032705     13.031619   0.000000   0.000000
   40       14.310084     14.309988   0.000000   0.000000
 
  0.2857143E+00  0.1428571E+00  0.0000000E+00  0.1166181E-01
    1      -40.584302    -40.584096   1.000000   1.000000
    2      -40.578084    -40.577877   1.000000   1.000000
    3      -40.569351    -40.569145   1.000000   1.000000
    4      -40.566181    -40.565974   1.000000   1.000000
    5      -17.020633    -17.020686   1.000000   1.000000
    6      -16.603800    -16.603862   1.000000   1.000000
    7      -15.202272    -15.202348   1.000000   1.000000
    8      -15.131063    -15.131141   1.000000   1.000000
    9      -12.990559    -12.990616   1.000000   1.000000
   10      -11.401769    -11.401826   1.000000   1.000000
   11       -7.197756     -7.197784   1.000000   1.000000
   12       -3.982160     -3.982182   1.000000   1.000000
   13       -3.538526     -3.538563   1.000000   1.000000
   14       -3.263229     -3.263265   1.000000   1.000000
   15       -2.759213     -2.759250   1.000000   1.000000
   16       -2.108605     -2.108650   1.000000   1.000000
   17       -0.905657     -0.905693   1.000000   1.000000
   18       -0.356617     -0.356669   1.000000   1.000000
   19       -0.162254     -0.162283   1.000000   1.000000
   20       -0.090850     -0.090881   1.000000   1.000000
   21        0.295883      0.295837   1.000000   1.000000
   22        0.343261      0.343224   1.000000   1.000000
   23        0.562218      0.562177   1.000000   1.000000
   24        0.894522      0.894478   1.000000   1.000000
   25        1.032532      1.032469   1.000000   1.000000
   26        1.486964      1.486919   1.000000   1.000000
   27        2.070972      2.070910   1.000000   1.000000
   28        2.455060      2.455017   1.000000   1.000000
   29        8.936640      8.936650   0.000000   0.000000
   30        9.221848      9.221876   0.000000   0.000000
   31        9.890248      9.890225   0.000000   0.000000
   32       10.375918     10.375873   0.000000   0.000000
   33       10.750529     10.750521   0.000000   0.000000
   34       11.038796     11.038841   0.000000   0.000000
   35       11.335567     11.335627   0.000000   0.000000
   36       11.893333     11.893454   0.000000   0.000000
   37       12.194625     12.194368   0.000000   0.000000
   38       12.687917     12.688584   0.000000   0.000000
   39       13.165278     13.165493   0.000000   0.000000
   40       14.499354     14.292572   0.000000   0.000000
 
  0.4285714E+00  0.1428571E+00  0.0000000E+00  0.1166181E-01
    1      -40.582350    -40.582144   1.000000   1.000000
    2      -40.580096    -40.579890   1.000000   1.000000
    3      -40.569297    -40.569090   1.000000   1.000000
    4      -40.566103    -40.565896   1.000000   1.000000
    5      -17.000306    -17.000361   1.000000   1.000000
    6      -16.616572    -16.616633   1.000000   1.000000
    7      -15.220764    -15.220840   1.000000   1.000000
    8      -15.126044    -15.126122   1.000000   1.000000
    9      -12.997476    -12.997533   1.000000   1.000000
   10      -11.400216    -11.400273   1.000000   1.000000
   11       -7.206161     -7.206189   1.000000   1.000000
   12       -3.969397     -3.969418   1.000000   1.000000
   13       -3.435722     -3.435770   1.000000   1.000000
   14       -3.346495     -3.346525   1.000000   1.000000
   15       -2.583977     -2.584018   1.000000   1.000000
   16       -2.148752     -2.148796   1.000000   1.000000
   17       -0.786364     -0.786403   1.000000   1.000000
   18       -0.532772     -0.532813   1.000000   1.000000
   19       -0.226260     -0.226289   1.000000   1.000000
   20       -0.107981     -0.108013   1.000000   1.000000
   21        0.197533      0.197487   1.000000   1.000000
   22        0.387770      0.387732   1.000000   1.000000
   23        0.673064      0.673023   1.000000   1.000000
   24        0.814367      0.814320   1.000000   1.000000
   25        1.027058      1.026996   1.000000   1.000000
   26        1.455062      1.455018   1.000000   1.000000
   27        2.085392      2.085328   1.000000   1.000000
   28        2.440441      2.440398   1.000000   1.000000
   29        9.012632      9.012635   0.000000   0.000000
   30        9.493055      9.493082   0.000000   0.000000
   31       10.001285     10.001342   0.000000   0.000000
   32       10.147257     10.147266   0.000000   0.000000
   33       10.465743     10.465598   0.000000   0.000000
   34       11.017839     11.017844   0.000000   0.000000
   35       11.365035     11.365157   0.000000   0.000000
   36       11.750092     11.750253   0.000000   0.000000
   37       12.048223     12.051940   0.000000   0.000000
   38       13.033929     13.075803   0.000000   0.000000
   39       13.422757     13.422733   0.000000   0.000000
   40       14.161852     14.223571   0.000000   0.000000
 
 -0.4285714E+00  0.1428571E+00  0.0000000E+00  0.1166181E-01
    1      -40.584782    -40.584576   1.000000   1.000000
    2      -40.577129    -40.576923   1.000000   1.000000
    3      -40.569535    -40.569328   1.000000   1.000000
    4      -40.566429    -40.566222   1.000000   1.000000
    5      -17.031454    -17.031508   1.000000   1.000000
    6      -16.580462    -16.580524   1.000000   1.000000
    7      -15.222686    -15.222762   1.000000   1.000000
    8      -15.122418    -15.122496   1.000000   1.000000
    9      -12.999970    -13.000027   1.000000   1.000000
   10      -11.400393    -11.400450   1.000000   1.000000
   11       -7.210175     -7.210203   1.000000   1.000000
   12       -3.940263     -3.940285   1.000000   1.000000
   13       -3.541698     -3.541742   1.000000   1.000000
   14       -3.262510     -3.262541   1.000000   1.000000
   15       -2.628817     -2.628857   1.000000   1.000000
   16       -2.100983     -2.101029   1.000000   1.000000
   17       -0.926919     -0.926953   1.000000   1.000000
   18       -0.642950     -0.642984   1.000000   1.000000
   19       -0.232040     -0.232074   1.000000   1.000000
   20       -0.007105     -0.007141   1.000000   1.000000
   21        0.213500      0.213456   1.000000   1.000000
   22        0.397839      0.397801   1.000000   1.000000
   23        0.748278      0.748230   1.000000   1.000000
   24        0.837100      0.837054   1.000000   1.000000
   25        1.062098      1.062037   1.000000   1.000000
   26        1.543952      1.543903   1.000000   1.000000
   27        1.996887      1.996827   1.000000   1.000000
   28        2.429962      2.429922   1.000000   1.000000
   29        8.965312      8.965322   0.000000   0.000000
   30        9.366763      9.366774   0.000000   0.000000
   31        9.927185      9.927142   0.000000   0.000000
   32       10.157518     10.157603   0.000000   0.000000
   33       10.659031     10.658994   0.000000   0.000000
   34       10.933596     10.933651   0.000000   0.000000
   35       11.734133     11.734156   0.000000   0.000000
   36       11.830392     11.830619   0.000000   0.000000
   37       12.246852     12.246940   0.000000   0.000000
   38       13.190345     13.190333   0.000000   0.000000
   39       13.459319     13.477039   0.000000   0.000000
   40       13.950764     13.904426   0.000000   0.000000
 
 -0.2857143E+00  0.1428571E+00  0.0000000E+00  0.1166181E-01
    1      -40.587008    -40.586801   1.000000   1.000000
    2      -40.573796    -40.573590   1.000000   1.000000
    3      -40.570086    -40.569880   1.000000   1.000000
    4      -40.567057    -40.566850   1.000000   1.000000
    5      -17.080225    -17.080278   1.000000   1.000000
    6      -16.533075    -16.533138   1.000000   1.000000
    7      -15.208395    -15.208471   1.000000   1.000000
    8      -15.121120    -15.121198   1.000000   1.000000
    9      -12.995709    -12.995766   1.000000   1.000000
   10      -11.402559    -11.402616   1.000000   1.000000
   11       -7.206004     -7.206033   1.000000   1.000000
   12       -3.916196     -3.916221   1.000000   1.000000
   13       -3.684727     -3.684765   1.000000   1.000000
   14       -3.162362     -3.162394   1.000000   1.000000
   15       -2.826392     -2.826428   1.000000   1.000000
   16       -2.015490     -2.015538   1.000000   1.000000
   17       -1.061138     -1.061167   1.000000   1.000000
   18       -0.822601     -0.822631   1.000000   1.000000
   19       -0.214498     -0.214536   1.000000   1.000000
   20        0.121787      0.121749   1.000000   1.000000
   21        0.237458      0.237416   1.000000   1.000000
   22        0.470823      0.470781   1.000000   1.000000
   23        0.843423      0.843370   1.000000   1.000000
   24        0.966244      0.966187   1.000000   1.000000
   25        1.108998      1.108941   1.000000   1.000000
   26        1.655039      1.654986   1.000000   1.000000
   27        1.875942      1.875891   1.000000   1.000000
   28        2.427678      2.427638   1.000000   1.000000
   29        8.489495      8.489515   0.000000   0.000000
   30        9.341425      9.341430   0.000000   0.000000
   31        9.781241      9.781216   0.000000   0.000000
   32       10.466558     10.466593   0.000000   0.000000
   33       10.961453     10.961496   0.000000   0.000000
   34       11.026238     11.026082   0.000000   0.000000
   35       11.757065     11.757345   0.000000   0.000000
   36       12.339561     12.339420   0.000000   0.000000
   37       12.568361     12.567208   0.000000   0.000000
   38       13.127503     13.126618   0.000000   0.000000
   39       13.461956     13.457297   0.000000   0.000000
   40       13.993104     13.826104   0.000000   0.000000
 
 -0.1428571E+00  0.1428571E+00  0.0000000E+00  0.5830904E-02
    1      -40.588162    -40.587956   1.000000   1.000000
    2      -40.571259    -40.571053   1.000000   1.000000
    3      -40.570660    -40.570454   1.000000   1.000000
    4      -40.567846    -40.567639   1.000000   1.000000
    5      -17.110673    -17.110724   1.000000   1.000000
    6      -16.509310    -16.509374   1.000000   1.000000
    7      -15.185198    -15.185274   1.000000   1.000000
    8      -15.126481    -15.126559   1.000000   1.000000
    9      -12.987563    -12.987620   1.000000   1.000000
   10      -11.405215    -11.405272   1.000000   1.000000
   11       -7.196965     -7.196994   1.000000   1.000000
   12       -3.932945     -3.932974   1.000000   1.000000
   13       -3.745641     -3.745672   1.000000   1.000000
   14       -3.115916     -3.115947   1.000000   1.000000
   15       -2.995607     -2.995640   1.000000   1.000000
   16       -1.980437     -1.980487   1.000000   1.000000
   17       -1.038450     -1.038483   1.000000   1.000000
   18       -0.997535     -0.997559   1.000000   1.000000
   19       -0.192655     -0.192695   1.000000   1.000000
   20        0.060517      0.060483   1.000000   1.000000
   21        0.269302      0.269262   1.000000   1.000000
   22        0.703737      0.703685   1.000000   1.000000
   23        0.930972      0.930913   1.000000   1.000000
   24        1.003415      1.003351   1.000000   1.000000
   25        1.137747      1.137697   1.000000   1.000000
   26        1.726955      1.726899   1.000000   1.000000
   27        1.814560      1.814513   1.000000   1.000000
   28        2.438871      2.438832   1.000000   1.000000
   29        8.093345      8.093371  -0.000000  -0.000000
   30        9.308712      9.308722   0.000000   0.000000
   31        9.632934      9.632959   0.000000   0.000000
   32       10.836973     10.836963   0.000000   0.000000
   33       10.963905     10.963918   0.000000   0.000000
   34       11.271384     11.271378   0.000000   0.000000
   35       11.871357     11.871378   0.000000   0.000000
   36       12.538466     12.537280   0.000000   0.000000
   37       12.920191     12.920684   0.000000   0.000000
   38       13.268169     13.327072   0.000000   0.000000
   39       13.396155     13.386819   0.000000   0.000000
   40       13.972838     14.048915   0.000000   0.000000
 
  0.2857143E+00  0.2857143E+00  0.0000000E+00  0.5830904E-02
    1      -40.581589    -40.581383   1.000000   1.000000
    2      -40.580709    -40.580502   1.000000   1.000000
    3      -40.569634    -40.569427   1.000000   1.000000
    4      -40.565915    -40.565708   1.000000   1.000000
    5      -16.996549    -16.996604   1.000000   1.000000
    6      -16.617177    -16.617238   1.000000   1.000000
    7      -15.241254    -15.241328   1.000000   1.000000
    8      -15.110078    -15.110157   1.000000   1.000000
    9      -12.999287    -12.999344   1.000000   1.000000
   10      -11.399815    -11.399872   1.000000   1.000000
   11       -7.208178     -7.208206   1.000000   1.000000
   12       -3.968725     -3.968746   1.000000   1.000000
   13       -3.434458     -3.434502   1.000000   1.000000
   14       -3.295103     -3.295140   1.000000   1.000000
   15       -2.620319     -2.620358   1.000000   1.000000
   16       -2.127413     -2.127457   1.000000   1.000000
   17       -0.766810     -0.766850   1.000000   1.000000
   18       -0.559358     -0.559395   1.000000   1.000000
   19       -0.327191     -0.327216   1.000000   1.000000
   20        0.015315      0.015278   1.000000   1.000000
   21        0.089078      0.089032   1.000000   1.000000
   22        0.533485      0.533446   1.000000   1.000000
   23        0.540984      0.540944   1.000000   1.000000
   24        0.821988      0.821941   1.000000   1.000000
   25        1.070898      1.070836   1.000000   1.000000
   26        1.441031      1.440988   1.000000   1.000000
   27        2.085956      2.085892   1.000000   1.000000
   28        2.458070      2.458026   1.000000   1.000000
   29        9.145337      9.145353   0.000000   0.000000
   30        9.218271      9.218280   0.000000   0.000000
   31        9.925741      9.925746   0.000000   0.000000
   32       10.227274     10.227270   0.000000   0.000000
   33       10.365060     10.365000   0.000000   0.000000
   34       11.286179     11.286211   0.000000   0.000000
   35       11.425299     11.425309   0.000000   0.000000
   36       11.656282     11.656307   0.000000   0.000000
   37       12.355829     12.356329   0.000000   0.000000
   38       12.507368     12.507073   0.000000   0.000000
   39       13.272464     13.272179   0.000000   0.000000
   40       14.337140     14.335651   0.000000   0.000000
 
  0.4285714E+00  0.2857143E+00  0.0000000E+00  0.1166181E-01
    1      -40.583281    -40.583074   1.000000   1.000000
    2      -40.578457    -40.578250   1.000000   1.000000
    3      -40.570149    -40.569943   1.000000   1.000000
    4      -40.565955    -40.565748   1.000000   1.000000
    5      -17.009886    -17.009940   1.000000   1.000000
    6      -16.590200    -16.590262   1.000000   1.000000
    7      -15.265669    -15.265743   1.000000   1.000000
    8      -15.098467    -15.098546   1.000000   1.000000
    9      -13.008909    -13.008965   1.000000   1.000000
   10      -11.398388    -11.398445   1.000000   1.000000
   11       -7.220185     -7.220213   1.000000   1.000000
   12       -3.938402     -3.938422   1.000000   1.000000
   13       -3.428753     -3.428805   1.000000   1.000000
   14       -3.266242     -3.266272   1.000000   1.000000
   15       -2.517694     -2.517736   1.000000   1.000000
   16       -2.109859     -2.109903   1.000000   1.000000
   17       -0.827052     -0.827087   1.000000   1.000000
   18       -0.694870     -0.694902   1.000000   1.000000
   19       -0.418924     -0.418947   1.000000   1.000000
   20       -0.106877     -0.106918   1.000000   1.000000
   21        0.149413      0.149370   1.000000   1.000000
   22        0.549419      0.549380   1.000000   1.000000
   23        0.720865      0.720822   1.000000   1.000000
   24        0.766531      0.766482   1.000000   1.000000
   25        1.107296      1.107234   1.000000   1.000000
   26        1.495048      1.495001   1.000000   1.000000
   27        2.007152      2.007092   1.000000   1.000000
   28        2.448305      2.448261   1.000000   1.000000
   29        9.173280      9.173232   0.000000   0.000000
   30        9.404520      9.404507   0.000000   0.000000
   31        9.715347      9.715351   0.000000   0.000000
   32       10.155623     10.155655   0.000000   0.000000
   33       10.481406     10.481370   0.000000   0.000000
   34       11.030528     11.030524   0.000000   0.000000
   35       11.547112     11.547074   0.000000   0.000000
   36       11.880836     11.880514   0.000000   0.000000
   37       12.395911     12.393361   0.000000   0.000000
   38       12.918676     12.916216   0.000000   0.000000
   39       13.358677     13.365278   0.000000   0.000000
   40       14.366249     14.155011   0.000000   0.000000
 
 -0.4285714E+00  0.2857143E+00  0.0000000E+00  0.1166181E-01
    1      -40.585414    -40.585208   1.000000   1.000000
    2      -40.575251    -40.575044   1.000000   1.000000
    3      -40.570967    -40.570760   1.000000   1.000000
    4      -40.566274    -40.566068   1.000000   1.000000
    5      -17.045407    -17.045460   1.000000   1.000000
    6      -16.548421    -16.548484   1.000000   1.000000
    7      -15.266467    -15.266541   1.000000   1.000000
    8      -15.095537    -15.095616   1.000000   1.000000
    9      -13.012217    -13.012273   1.000000   1.000000
   10      -11.398682    -11.398739   1.000000   1.000000
   11       -7.224146     -7.224174   1.000000   1.000000
   12       -3.910237     -3.910257   1.000000   1.000000
   13       -3.545366     -3.545415   1.000000   1.000000
   14       -3.172736     -3.172769   1.000000   1.000000
   15       -2.568131     -2.568171   1.000000   1.000000
   16       -2.055961     -2.056006   1.000000   1.000000
   17       -0.949358     -0.949389   1.000000   1.000000
   18       -0.812200     -0.812228   1.000000   1.000000
   19       -0.327650     -0.327682   1.000000   1.000000