 running on   24 total cores
 distrk:  each k-point on   24 cores,    1 groups
 distr:  one band on    6 cores,    4 groups
 using from now: INCAR     
 vasp.5.4.4.18Apr17-6-g9f103f2a35 (build Aug 12 2020 11:57:02) complex          
  
 POSCAR found type information on POSCAR  Li P 
 POSCAR found :  2 types and      16 ions
 scaLAPACK will be used
 LDA part: xc-table for Pade appr. of Perdew
 generate k-points for:    6    6    4
 POSCAR, INCAR and KPOINTS ok, starting setup
 FFT: planning ...
 WAVECAR not read
 entering main loop
       N       E                     dE             d eps       ncg     rms          rms(c)
DAV:   1     0.402835541087E+03    0.40284E+03   -0.26026E+04  9856   0.144E+03
DAV:   2    -0.603469376461E+01   -0.40887E+03   -0.37900E+03 11156   0.340E+02
DAV:   3    -0.589236631283E+02   -0.52889E+02   -0.52104E+02 14276   0.936E+01
DAV:   4    -0.665954841474E+02   -0.76718E+01   -0.76122E+01 17912   0.356E+01
DAV:   5    -0.674514726513E+02   -0.85599E+00   -0.85567E+00 14632   0.832E+00    0.128E+01
RMM:   6    -0.671216457328E+02    0.32983E+00   -0.50663E-01 12304   0.262E+00    0.784E+00
RMM:   7    -0.670375742150E+02    0.84072E-01   -0.61225E-01 12447   0.242E+00    0.492E-01
RMM:   8    -0.670343259710E+02    0.32482E-02   -0.78594E-02 14294   0.104E+00    0.238E-01
RMM:   9    -0.670371519429E+02   -0.28260E-02   -0.30837E-02 14336   0.554E-01    0.169E-01
RMM:  10    -0.670385548437E+02   -0.14029E-02   -0.13235E-02 15212   0.356E-01    0.106E-01
RMM:  11    -0.670391420964E+02   -0.58725E-03   -0.56351E-03 14101   0.231E-01    0.401E-02
RMM:  12    -0.670393596393E+02   -0.21754E-03   -0.24577E-03 13890   0.161E-01    0.848E-03
RMM:  13    -0.670394929466E+02   -0.13331E-03   -0.12954E-03 13728   0.115E-01    0.154E-02
RMM:  14    -0.670395518681E+02   -0.58922E-04   -0.64170E-04 13001   0.853E-02    0.128E-02
RMM:  15    -0.670395888332E+02   -0.36965E-04   -0.33554E-04 11430   0.658E-02    0.201E-02
RMM:  16    -0.670395945476E+02   -0.57144E-05   -0.16278E-04  9886   0.544E-02    0.912E-03
RMM:  17    -0.670396035398E+02   -0.89923E-05   -0.13322E-04 10622   0.487E-02    0.564E-03
RMM:  18    -0.670396086125E+02   -0.50726E-05   -0.74867E-05  9387   0.422E-02
   1 F= -.67039609E+02 E0= -.67039609E+02  d E =-.670396E+02  mag=    -0.0000
 curvature:   0.00 expect dE= 0.000E+00 dE for cont linesearch  0.000E+00
 trial: gam= 0.00000 g(F)=  0.122E-03 g(S)=  0.943E-03 ort = 0.000E+00 (trialstep = 0.100E+01)
 search vector abs. value=  0.107E-02
 bond charge predicted
       N       E                     dE             d eps       ncg     rms          rms(c)
DAV:   1    -0.670411155465E+02   -0.15120E-02   -0.32938E-02 12076   0.890E-01    0.174E-01
RMM:   2    -0.670405263821E+02    0.58916E-03   -0.28354E-03 13375   0.223E-01    0.108E-01
RMM:   3    -0.670403349012E+02    0.19148E-03   -0.13632E-03 13166   0.114E-01    0.374E-02
RMM:   4    -0.670403361624E+02   -0.12612E-05   -0.13137E-04 11326   0.469E-02    0.267E-02
RMM:   5    -0.670403484233E+02   -0.12261E-04   -0.76111E-05 10964   0.336E-02    0.997E-03
RMM:   6    -0.670403399246E+02    0.84987E-05    0.71207E-06  6749   0.231E-02
   2 F= -.67040340E+02 E0= -.67040340E+02  d E =-.731312E-03  mag=    -0.0000
 trial-energy change:   -0.000731  1 .order   -0.000772   -0.001065   -0.000479
 step:   1.8166(harm=  1.8166)  dis= 0.00111  next Energy=   -67.040576 (dE=-0.968E-03)
 bond charge predicted
       N       E                     dE             d eps       ncg     rms          rms(c)
DAV:   1    -0.670408858241E+02   -0.53740E-03   -0.20822E-02 11192   0.724E-01    0.138E-01
RMM:   2    -0.670405481075E+02    0.33772E-03   -0.18894E-03 13421   0.179E-01    0.892E-02
RMM:   3    -0.670404341457E+02    0.11396E-03   -0.90706E-04 13307   0.957E-02    0.313E-02
RMM:   4    -0.670404427754E+02   -0.86297E-05   -0.13831E-04 10244   0.446E-02    0.230E-02
RMM:   5    -0.670404569595E+02   -0.14184E-04   -0.87167E-05 11432   0.340E-02    0.976E-03
RMM:   6    -0.670404477579E+02    0.92016E-05    0.10928E-05  6658   0.230E-02
   3 F= -.67040448E+02 E0= -.67040448E+02  d E =-.839145E-03  mag=    -0.0000
 curvature:  -0.91 expect dE=-0.464E-03 dE for cont linesearch -0.179E-05
 trial: gam= 0.52247 g(F)=  0.425E-03 g(S)=  0.858E-04 ort =-0.458E-04 (trialstep = 0.116E+01)
 search vector abs. value=  0.754E-03
 bond charge predicted
       N       E                     dE             d eps       ncg     rms          rms(c)
DAV:   1    -0.670405902708E+02   -0.13331E-03   -0.41147E-02 10548   0.999E-01    0.102E-01
RMM:   2    -0.670407198101E+02   -0.12954E-03   -0.27477E-03 12101   0.214E-01    0.417E-02
RMM:   3    -0.670406724537E+02    0.47356E-04   -0.36328E-04 14256   0.737E-02    0.351E-02
RMM:   4    -0.670406735620E+02   -0.11083E-05   -0.95360E-05 11071   0.357E-02
   4 F= -.67040674E+02 E0= -.67040674E+02  d E =-.225804E-03  mag=    -0.0000
 trial-energy change:   -0.000226  1 .order   -0.000295   -0.000566   -0.000023
 step:   1.2129(harm=  1.2129)  dis= 0.00226  next Energy=   -67.040743 (dE=-0.295E-03)
 bond charge predicted
       N       E                     dE             d eps       ncg     rms          rms(c)
DAV:   1    -0.670406846993E+02   -0.12246E-04   -0.18272E-04 14088   0.490E-02    0.672E-03
RMM:   2    -0.670406854605E+02   -0.76126E-06   -0.72769E-06  6078   0.150E-02
   5 F= -.67040685E+02 E0= -.67040685E+02  d E =-.237703E-03  mag=    -0.0000
 curvature:  -0.94 expect dE=-0.600E-04 dE for cont linesearch -0.238E-06
 trial: gam=-0.01185 g(F)=  0.235E-04 g(S)=  0.405E-04 ort =-0.138E-04 (trialstep = 0.117E+01)
 search vector abs. value=  0.644E-04
 bond charge predicted
       N       E                     dE             d eps       ncg     rms          rms(c)
DAV:   1    -0.670407817001E+02   -0.97001E-04   -0.59597E-03 10392   0.419E-01    0.457E-02
RMM:   2    -0.670407541871E+02    0.27513E-04   -0.20929E-04 12367   0.675E-02    0.266E-02
RMM:   3    -0.670407457342E+02    0.84529E-05   -0.10485E-04 12047   0.354E-02    0.870E-03
RMM:   4    -0.670407430114E+02    0.27228E-05   -0.15157E-07  6010   0.191E-02
   6 F= -.67040743E+02 E0= -.67040743E+02  d E =-.575509E-04  mag=     0.0000
 trial-energy change:   -0.000058  1 .order   -0.000055   -0.000075   -0.000035
 step:   2.2218(harm=  2.2218)  dis= 0.00078  next Energy=   -67.040757 (dE=-0.712E-04)
 bond charge predicted
       N       E                     dE             d eps       ncg     rms          rms(c)
DAV:   1    -0.670407789427E+02   -0.33209E-04   -0.47011E-03 10268   0.374E-01    0.398E-02
RMM:   2    -0.670407614829E+02    0.17460E-04   -0.21895E-04 12708   0.666E-02    0.242E-02
RMM:   3    -0.670407569419E+02    0.45410E-05   -0.10807E-04 12319   0.367E-02    0.945E-03
RMM:   4    -0.670407544911E+02    0.24507E-05    0.10423E-06  6197   0.207E-02
   7 F= -.67040754E+02 E0= -.67040754E+02  d E =-.690306E-04  mag=     0.0000
 curvature:  -1.12 expect dE=-0.693E-04 dE for cont linesearch -0.509E-06
 trial: gam= 1.06322 g(F)=  0.429E-04 g(S)=  0.192E-04 ort =-0.542E-05 (trialstep = 0.722E+00)
 search vector abs. value=  0.123E-03
 reached required accuracy - stopping structural energy minimisation
