unknown system                          
           1
     4.970385    0.000000    0.000000
     0.000000    5.593872    0.000000
     0.000000    4.836985    9.037780
   Li   P 
   8   8
Direct configuration=     1
   0.61175300  0.21700800  0.67070000
   0.11175300  0.78299200  0.82930000
   0.38824700  0.78299200  0.32930000
   0.88824700  0.21700800  0.17070000
   0.34168400  0.22576800  0.97021400
   0.84168400  0.77423200  0.52978600
   0.65831600  0.77423200  0.02978600
   0.15831600  0.22576800  0.47021400
   0.10509600  0.31664500  0.70708400
   0.60509600  0.68335500  0.79291600
   0.89490400  0.68335500  0.29291600
   0.39490400  0.31664500  0.20708400
   0.84397300  0.30318200  0.88825800
   0.34397300  0.69681800  0.61174200
   0.15602700  0.69681800  0.11174200
   0.65602700  0.30318200  0.38825800
unknown system                          
           1
     4.963549    0.000000    0.000000
     0.000000    5.589855    0.000098
     0.000000    4.833671    9.031901
   Li   P 
   8   8
Direct configuration=     2
   0.61182097  0.21700820  0.67073779
   0.11182097  0.78299180  0.82926221
   0.38817903  0.78299180  0.32926221
   0.88817903  0.21700820  0.17073779
   0.34165113  0.22585103  0.97014777
   0.84165113  0.77414897  0.52985223
   0.65834887  0.77414897  0.02985223
   0.15834887  0.22585103  0.47014777
   0.10500234  0.31657815  0.70707020
   0.60500234  0.68342185  0.79292980
   0.89499766  0.68342185  0.29292980
   0.39499766  0.31657815  0.20707020
   0.84399092  0.30312087  0.88832552
   0.34399092  0.69687913  0.61167448
   0.15600908  0.69687913  0.11167448
   0.65600908  0.30312087  0.38832552
unknown system                          
           1
     4.957967    0.000000    0.000000
     0.000000    5.586575    0.000179
     0.000000    4.830964    9.027100
   Li   P 
   8   8
Direct configuration=     3
   0.61187654  0.21700837  0.67076866
   0.11187654  0.78299163  0.82923134
   0.38812346  0.78299163  0.32923134
   0.88812346  0.21700837  0.17076866
   0.34162426  0.22591887  0.97009365
   0.84162426  0.77408113  0.52990635
   0.65837574  0.77408113  0.02990635
   0.15837574  0.22591887  0.47009365
   0.10492575  0.31652352  0.70705893
   0.60492575  0.68347648  0.79294107
   0.89507425  0.68347648  0.29294107
   0.39507425  0.31652352  0.20705893
   0.84400558  0.30307091  0.88838069
   0.34400558  0.69692909  0.61161931
   0.15599442  0.69692909  0.11161931
   0.65599442  0.30307091  0.38838069
unknown system                          
           1
     4.954620    0.000000    0.000000
     0.000000    5.586436    0.000307
     0.000000    4.831051    9.027140
   Li   P 
   8   8
Direct configuration=     4
   0.61194541  0.21698441  0.67082910
   0.11194541  0.78301559  0.82917090
   0.38805459  0.78301559  0.32917090
   0.88805459  0.21698441  0.17082910
   0.34159395  0.22600583  0.97000570
   0.84159395  0.77399417  0.52999430
   0.65840605  0.77399417  0.02999430
   0.15840605  0.22600583  0.47000570
   0.10481241  0.31623523  0.70699094
   0.60481241  0.68376477  0.79300906
   0.89518759  0.68376477  0.29300906
   0.39518759  0.31623523  0.20699094
   0.84400305  0.30277468  0.88862032
   0.34400305  0.69722532  0.61137968
   0.15599695  0.69722532  0.11137968
   0.65599695  0.30277468  0.38862032
unknown system                          
           1
     4.954477    0.000000    0.000000
     0.000000    5.586430    0.000313
     0.000000    4.831055    9.027141
   Li   P 
   8   8
Direct configuration=     5
   0.61194835  0.21698339  0.67083168
   0.11194835  0.78301661  0.82916832
   0.38805165  0.78301661  0.32916832
   0.88805165  0.21698339  0.17083168
   0.34159266  0.22600953  0.97000195
   0.84159266  0.77399047  0.52999805
   0.65840734  0.77399047  0.02999805
   0.15840734  0.22600953  0.47000195
   0.10480758  0.31622295  0.70698804
   0.60480758  0.68377705  0.79301196
   0.89519242  0.68377705  0.29301196
   0.39519242  0.31622295  0.20698804
   0.84400294  0.30276206  0.88863053
   0.34400294  0.69723794  0.61136947
   0.15599706  0.69723794  0.11136947
   0.65599706  0.30276206  0.38863053
unknown system                          
           1
     4.956037    0.000000    0.000000
     0.000000    5.587553    0.000560
     0.000000    4.832425    9.028910
   Li   P 
   8   8
Direct configuration=     6
   0.61193914  0.21697719  0.67086474
   0.11193914  0.78302281  0.82913526
   0.38806086  0.78302281  0.32913526
   0.88806086  0.21697719  0.17086474
   0.34160160  0.22603776  0.96995634
   0.84160160  0.77396224  0.53004366
   0.65839840  0.77396224  0.03004366
   0.15839840  0.22603776  0.46995634
   0.10478187  0.31626727  0.70697162
   0.60478187  0.68373273  0.79302838
   0.89521813  0.68373273  0.29302838
   0.39521813  0.31626727  0.20697162
   0.84399197  0.30277259  0.88864227
   0.34399197  0.69722741  0.61135773
   0.15600803  0.69722741  0.11135773
   0.65600803  0.30277259  0.38864227
unknown system                          
           1
     4.957430    0.000000    0.000000
     0.000000    5.588556    0.000781
     0.000000    4.833650    9.030490
   Li   P 
   8   8
Direct configuration=     7
   0.61193092  0.21697164  0.67089428
   0.11193092  0.78302836  0.82910572
   0.38806908  0.78302836  0.32910572
   0.88806908  0.21697164  0.17089428
   0.34160958  0.22606299  0.96991558
   0.84160958  0.77393701  0.53008442
   0.65839042  0.77393701  0.03008442
   0.15839042  0.22606299  0.46991558
   0.10475889  0.31630687  0.70695695
   0.60475889  0.68369313  0.79304305
   0.89524111  0.68369313  0.29304305
   0.39524111  0.31630687  0.20695695
   0.84398216  0.30278200  0.88865277
   0.34398216  0.69721800  0.61134723
   0.15601784  0.69721800  0.11134723
   0.65601784  0.30278200  0.38865277
