    4    4    1    2
  0.1124079E+02  0.3267362E-09  0.3300365E-09  0.4988583E-09  0.5000000E-15
  1.000000000000000E-004
  CAR 
 unknown system                          
     18    424     14
 
  0.0000000E+00  0.0000000E+00  0.0000000E+00  0.1180638E-02
    1      -43.216243    -43.215996   1.000000   1.000000
    2      -21.726914    -21.726915   1.000000   1.000000
    3      -17.358258    -17.358262   1.000000   1.000000
    4       -6.714815     -6.714815   1.000000   1.000000
    5       -5.109746     -5.109744   1.000000   1.000000
    6       -5.041659     -5.041662   1.000000   1.000000
    7       -3.623592     -3.623596   1.000000   1.000000
    8        0.698602      0.698596   1.000000   1.000000
    9        0.775522      0.775516   1.000000   1.000000
   10        6.388793      6.388790   0.000000   0.000000
   11        6.441873      6.441866   0.000000   0.000000
   12        6.754706      6.754704   0.000000   0.000000
   13       10.228366     10.228313   0.000000   0.000000
   14       11.611215     11.610915   0.000000   0.000000
 
  0.9090909E-01 -0.5038507E-17  0.1664555E-16  0.2361275E-02
    1      -43.215776    -43.215529   1.000000   1.000000
    2      -21.709955    -21.709955   1.000000   1.000000
    3      -17.348706    -17.348711   1.000000   1.000000
    4       -6.675601     -6.675601   1.000000   1.000000
    5       -5.198663     -5.198665   1.000000   1.000000
    6       -5.085969     -5.085968   1.000000   1.000000
    7       -3.627183     -3.627188   1.000000   1.000000
    8        0.601084      0.601079   1.000000   1.000000
    9        0.669030      0.669024   1.000000   1.000000
   10        6.284985      6.284983   0.000000   0.000000
   11        6.523147      6.523149   0.000000   0.000000
   12        6.898808      6.898799   0.000000   0.000000
   13       10.437266     10.437218   0.000000   0.000000
   14       11.652238     11.651200   0.000000   0.000000
 
  0.1818182E+00 -0.2032090E-16  0.3565842E-16  0.2361275E-02
    1      -43.214532    -43.214284   1.000000   1.000000
    2      -21.663929    -21.663932   1.000000   1.000000
    3      -17.322898    -17.322903   1.000000   1.000000
    4       -6.572649     -6.572650   1.000000   1.000000
    5       -5.467528     -5.467531   1.000000   1.000000
    6       -5.151226     -5.151223   1.000000   1.000000
    7       -3.639139     -3.639143   1.000000   1.000000
    8        0.206184      0.206178   1.000000   1.000000
    9        0.540384      0.540378   1.000000   1.000000
   10        6.035221      6.035219   0.000000   0.000000
   11        6.504952      6.504952   0.000000   0.000000
   12        7.474339      7.474023   0.000000   0.000000
   13       10.977364     10.977204   0.000000   0.000000
   14       11.763313     11.762468   0.000000   0.000000
 
  0.2727273E+00 -0.1260217E-16  0.8684111E-16  0.2361275E-02
    1      -43.212889    -43.212641   1.000000   1.000000
    2      -21.602613    -21.602616   1.000000   1.000000
    3      -17.288932    -17.288937   1.000000   1.000000
    4       -6.466740     -6.466741   1.000000   1.000000
    5       -5.755992     -5.755994   1.000000   1.000000
    6       -5.226781     -5.226778   1.000000   1.000000
    7       -3.664051     -3.664054   1.000000   1.000000
    8       -0.279056     -0.279062   1.000000   1.000000
    9        0.385422      0.385416   1.000000   1.000000
   10        5.629678      5.629676   0.000000   0.000000
   11        6.522653      6.522653   0.000000   0.000000
   12        8.202888      8.202219   0.000000   0.000000
   13       11.520488     11.518983   0.000000   0.000000
   14       11.979755     11.974769   0.000000   0.000000
 
  0.3636364E+00 -0.4427571E-16  0.9374074E-16  0.2361275E-02
    1      -43.211400    -43.211153   1.000000   1.000000
    2      -21.545308    -21.545310   1.000000   1.000000
    3      -17.257551    -17.257556   1.000000   1.000000
    4       -6.485305     -6.485306   1.000000   1.000000
    5       -5.861581     -5.861584   1.000000   1.000000
    6       -5.294236     -5.294233   1.000000   1.000000
    7       -3.704002     -3.704005   1.000000   1.000000
    8       -0.692321     -0.692328   1.000000   1.000000
    9        0.250125      0.250118   1.000000   1.000000
   10        5.243344      5.243342   0.000000   0.000000
   11        6.539050      6.539050   0.000000   0.000000
   12        8.731689      8.731659   0.000000   0.000000
   13       11.707559     11.707476   0.000000   0.000000
   14       12.128603     12.126550   0.000000   0.000000
 
  0.4545455E+00 -0.2128637E-16  0.8944458E-16  0.2361275E-02
    1      -43.210513    -43.210266   1.000000   1.000000
    2      -21.510714    -21.510715   1.000000   1.000000
    3      -17.238813    -17.238817   1.000000   1.000000
    4       -6.577931     -6.577933   1.000000   1.000000
    5       -5.819880     -5.819884   1.000000   1.000000
    6       -5.334142     -5.334140   1.000000   1.000000
    7       -3.740854     -3.740857   1.000000   1.000000
    8       -0.924428     -0.924435   1.000000   1.000000
    9        0.173266      0.173259   1.000000   1.000000
   10        5.012088      5.012087   0.000000   0.000000
   11        6.546109      6.546110   0.000000   0.000000
   12        8.919691      8.919679   0.000000   0.000000
   13       11.706348     11.706388   0.000000   0.000000
   14       12.370531     12.370408   0.000000   0.000000
 
 -0.1400560E-17  0.9090909E-01  0.1987889E-16  0.2361275E-02
    1      -43.215783    -43.215535   1.000000   1.000000
    2      -21.710667    -21.710667   1.000000   1.000000
    3      -17.349115    -17.349120   1.000000   1.000000
    4       -6.676763     -6.676764   1.000000   1.000000
    5       -5.213994     -5.213991   1.000000   1.000000
    6       -5.066939     -5.066943   1.000000   1.000000
    7       -3.627496     -3.627500   1.000000   1.000000
    8        0.572056      0.572049   1.000000   1.000000
    9        0.703178      0.703174   1.000000   1.000000
   10        6.276744      6.276746   0.000000   0.000000
   11        6.533184      6.533181   0.000000   0.000000
   12        6.895151      6.895142   0.000000   0.000000
   13       10.434986     10.434953   0.000000   0.000000
   14       11.653301     11.652174   0.000000   0.000000
 
  0.9090909E-01  0.9090909E-01  0.2479126E-16  0.2361275E-02
    1      -43.215743    -43.215496   1.000000   1.000000
    2      -21.708309    -21.708309   1.000000   1.000000
    3      -17.350408    -17.350413   1.000000   1.000000
    4       -6.656772     -6.656772   1.000000   1.000000
    5       -5.162288     -5.162286   1.000000   1.000000
    6       -5.136476     -5.136479   1.000000   1.000000
    7       -3.650676     -3.650680   1.000000   1.000000
    8        0.526654      0.526649   1.000000   1.000000
    9        0.766457      0.766452   1.000000   1.000000
   10        6.227517      6.227517   0.000000   0.000000
   11        6.657849      6.657847   0.000000   0.000000
   12        6.866750      6.866755   0.000000   0.000000
   13       10.388076     10.388023   0.000000   0.000000
   14       11.591403     11.591369   0.000000   0.000000
 
  0.1818182E+00  0.9090909E-01  0.7701642E-16  0.2361275E-02
    1      -43.214844    -43.214597   1.000000   1.000000
    2      -21.674751    -21.674751   1.000000   1.000000
    3      -17.333934    -17.333938   1.000000   1.000000
    4       -6.565877     -6.565878   1.000000   1.000000
    5       -5.370933     -5.370938   1.000000   1.000000
    6       -5.175741     -5.175738   1.000000   1.000000
    7       -3.680859     -3.680862   1.000000   1.000000
    8        0.271689      0.271684   1.000000   1.000000
    9        0.675067      0.675061   1.000000   1.000000
   10        6.133312      6.133309   0.000000   0.000000
   11        6.534859      6.534859   0.000000   0.000000
   12        7.321988      7.321845   0.000000   0.000000
   13       10.737314     10.737253   0.000000   0.000000
   14       11.622382     11.622250   0.000000   0.000000
 
  0.2727273E+00  0.9090909E-01  0.6738857E-16  0.2361275E-02
    1      -43.213375    -43.213128   1.000000   1.000000
    2      -21.619800    -21.619803   1.000000   1.000000
    3      -17.304819    -17.304824   1.000000   1.000000
    4       -6.441989     -6.441991   1.000000   1.000000
    5       -5.660209     -5.660212   1.000000   1.000000
    6       -5.245197     -5.245193   1.000000   1.000000
    7       -3.717102     -3.717106   1.000000   1.000000
    8       -0.117647     -0.117652   1.000000   1.000000
    9        0.495951      0.495945   1.000000   1.000000
   10        5.809507      5.809504   0.000000   0.000000
   11        6.496538      6.496539   0.000000   0.000000
   12        8.023628      8.022982   0.000000   0.000000
   13       11.252957     11.252460   0.000000   0.000000
   14       11.800926     11.801996   0.000000   0.000000
 
  0.3636364E+00  0.9090909E-01  0.8816599E-16  0.2361275E-02
    1      -43.211806    -43.211559   1.000000   1.000000
    2      -21.560527    -21.560530   1.000000   1.000000
    3      -17.272159    -17.272164   1.000000   1.000000
    4       -6.399325     -6.399327   1.000000   1.000000
    5       -5.834975     -5.834977   1.000000   1.000000
    6       -5.326315     -5.326312   1.000000   1.000000
    7       -3.760641     -3.760644   1.000000   1.000000
    8       -0.515601     -0.515606   1.000000   1.000000
    9        0.305757      0.305750   1.000000   1.000000
   10        5.403452      5.403449   0.000000   0.000000
   11        6.479385      6.479385   0.000000   0.000000
   12        8.727920      8.727858   0.000000   0.000000
   13       11.562065     11.558520   0.000000   0.000000
   14       11.987363     11.989385   0.000000   0.000000
 
  0.4545455E+00  0.9090909E-01  0.1169248E-15  0.2361275E-02
    1      -43.210648    -43.210401   1.000000   1.000000
    2      -21.515989    -21.515990   1.000000   1.000000
    3      -17.246295    -17.246299   1.000000   1.000000
    4       -6.497203     -6.497205   1.000000   1.000000
    5       -5.814213     -5.814216   1.000000   1.000000
    6       -5.381778     -5.381776   1.000000   1.000000
    7       -3.799180     -3.799182   1.000000   1.000000
    8       -0.801784     -0.801790   1.000000   1.000000
    9        0.157658      0.157651   1.000000   1.000000
   10        5.093922      5.093920   0.000000   0.000000
   11        6.451031      6.451030   0.000000   0.000000
   12        9.119335      9.119315   0.000000   0.000000
   13       11.750256     11.750274   0.000000   0.000000
   14       12.097973     12.098056   0.000000   0.000000
 
 -0.4545455E+00  0.9090909E-01 -0.4543690E-16  0.2361275E-02
    1      -43.210257    -43.210009   1.000000   1.000000
    2      -21.501068    -21.501069   1.000000   1.000000
    3      -17.235577    -17.235581   1.000000   1.000000
    4       -6.560404     -6.560406   1.000000   1.000000
    5       -5.785062     -5.785065   1.000000   1.000000
    6       -5.396348     -5.396346   1.000000   1.000000
    7       -3.797180     -3.797183   1.000000   1.000000
    8       -0.904584     -0.904591   1.000000   1.000000
    9        0.087008      0.087002   1.000000   1.000000
   10        4.985768      4.985767   0.000000   0.000000
   11        6.424029      6.424027   0.000000   0.000000
   12        9.214544      9.214531   0.000000   0.000000
   13       11.766896     11.766852   0.000000   0.000000
   14       12.370343     12.369582   0.000000   0.000000
 
 -0.3636364E+00  0.9090909E-01 -0.1667811E-16  0.2361275E-02
    1      -43.210764    -43.210516   1.000000   1.000000
    2      -21.521000    -21.521002   1.000000   1.000000
    3      -17.243536    -17.243540   1.000000   1.000000
    4       -6.525795     -6.525796   1.000000   1.000000
    5       -5.804582     -5.804586   1.000000   1.000000
    6       -5.382295     -5.382292   1.000000   1.000000
    7       -3.739869     -3.739872   1.000000   1.000000
    8       -0.802533     -0.802540   1.000000   1.000000
    9        0.113982      0.113976   1.000000   1.000000
   10        5.108351      5.108349   0.000000   0.000000
   11        6.408851      6.408849   0.000000   0.000000
   12        9.125702      9.125692   0.000000   0.000000
   13       11.777097     11.777066   0.000000   0.000000
   14       12.323311     12.315714   0.000000   0.000000
 
 -0.2727273E+00  0.9090909E-01  0.6749005E-17  0.2361275E-02
    1      -43.212004    -43.211756   1.000000   1.000000
    2      -21.568830    -21.568832   1.000000   1.000000
    3      -17.267637    -17.267642   1.000000   1.000000
    4       -6.478986     -6.478987   1.000000   1.000000
    5       -5.779266     -5.779268   1.000000   1.000000
    6       -5.327761     -5.327759   1.000000   1.000000
    7       -3.669238     -3.669241   1.000000   1.000000
    8       -0.513038     -0.513045   1.000000   1.000000
    9        0.235091      0.235085   1.000000   1.000000
   10        5.416511      5.416509   0.000000   0.000000
   11        6.402520      6.402518   0.000000   0.000000
   12        8.725976      8.725715   0.000000   0.000000
   13       11.772946     11.769715   0.000000   0.000000
   14       12.217236     12.204989   0.000000   0.000000
 
 -0.1818182E+00  0.9090909E-01 -0.4046348E-17  0.2361275E-02
    1      -43.213582    -43.213335   1.000000   1.000000
    2      -21.628629    -21.628632   1.000000   1.000000
    3      -17.300059    -17.300064   1.000000   1.000000
    4       -6.531433     -6.531433   1.000000   1.000000
    5       -5.602627     -5.602629   1.000000   1.000000
    6       -5.232342     -5.232341   1.000000   1.000000
    7       -3.626772     -3.626776   1.000000   1.000000
    8       -0.100564     -0.100571   1.000000   1.000000
    9        0.412457      0.412451   1.000000   1.000000
   10        5.813051      5.813050   0.000000   0.000000
   11        6.394386      6.394384   0.000000   0.000000
   12        8.022501      8.021722   0.000000   0.000000
   13       11.410787     11.410751   0.000000   0.000000
   14       12.010203     12.008966   0.000000   0.000000
 
 -0.9090909E-01  0.9090909E-01  0.7728017E-16  0.2361275E-02
    1      -43.214985    -43.214738   1.000000   1.000000
    2      -21.681252    -21.681252   1.000000   1.000000
    3      -17.330379    -17.330384   1.000000   1.000000
    4       -6.624513     -6.624513   1.000000   1.000000
    5       -5.371644     -5.371643   1.000000   1.000000
    6       -5.125413     -5.125415   1.000000   1.000000
    7       -3.616597     -3.616602   1.000000   1.000000
    8        0.318267      0.318261   1.000000   1.000000
    9        0.580726      0.580721   1.000000   1.000000
   10        6.175918      6.175918   0.000000   0.000000
   11        6.389611      6.389608   0.000000   0.000000
   12        7.321698      7.321479   0.000000   0.000000
   13       10.837369     10.837334   0.000000   0.000000
   14       11.799804     11.797910   0.000000   0.000000
 
 -0.1797785E-18  0.1818182E+00  0.4641430E-16  0.2361275E-02
    1      -43.214605    -43.214358   1.000000   1.000000
    2      -21.666839    -21.666840   1.000000   1.000000
    3      -17.324483    -17.324488   1.000000   1.000000
    4       -6.576814     -6.576814   1.000000   1.000000
    5       -5.483802     -5.483799   1.000000   1.000000
    6       -5.122567     -5.122572   1.000000   1.000000
    7       -3.640228     -3.640232   1.000000   1.000000
    8        0.185032      0.185025   1.000000   1.000000
    9        0.579767      0.579762   1.000000   1.000000
   10        6.024567      6.024569   0.000000   0.000000
   11        6.519406      6.519401   0.000000   0.000000
   12        7.468146      7.467804   0.000000   0.000000
   13       10.967752     10.967593   0.000000   0.000000
   14       11.768334     11.767904   0.000000   0.000000
 
  0.9090909E-01  0.1818182E+00  0.5892799E-16  0.2361275E-02
    1      -43.214891    -43.214644   1.000000   1.000000
    2      -21.676856    -21.676857   1.000000   1.000000
    3      -17.335077    -17.335081   1.000000   1.000000
    4       -6.568731     -6.568732   1.000000   1.000000
    5       -5.380996     -5.380993   1.000000   1.000000
    6       -5.157165     -5.157170   1.000000   1.000000
    7       -3.681766     -3.681770   1.000000   1.000000
    8        0.270047      0.270042   1.000000   1.000000
    9        0.689465      0.689461   1.000000   1.000000
   10        6.130039      6.130040   0.000000   0.000000
   11        6.537238      6.537234   0.000000   0.000000
   12        7.319762      7.319548   0.000000   0.000000
   13       10.728667     10.728601   0.000000   0.000000
   14       11.627779     11.627734   0.000000   0.000000
 
  0.1818182E+00  0.1818182E+00  0.6554525E-16  0.2361275E-02
    1      -43.214438    -43.214190   1.000000   1.000000
    2      -21.657813    -21.657815   1.000000   1.000000
    3      -17.329872    -17.329877   1.000000   1.000000
    4       -6.498649     -6.498649   1.000000   1.000000
    5       -5.429258     -5.429258   1.000000   1.000000
    6       -5.232462     -5.232462   1.000000   1.000000
    7       -3.738447     -3.738451   1.000000   1.000000
    8        0.088313      0.088308   1.000000   1.000000
    9        0.752691      0.752686   1.000000   1.000000
   10        6.152166      6.152165   0.000000   0.000000
   11        6.400207      6.400204   0.000000   0.000000
   12        7.567056      7.566837   0.000000   0.000000
   13       10.788127     10.788140   0.000000   0.000000
   14       11.628529     11.628536   0.000000   0.000000
 
  0.2727273E+00  0.1818182E+00  0.1332554E-15  0.2361275E-02
    1      -43.213277    -43.213030   1.000000   1.000000
    2      -21.615127    -21.615130   1.000000   1.000000
    3      -17.310384    -17.310389   1.000000   1.000000
    4       -6.392935     -6.392936   1.000000   1.000000
    5       -5.611251     -5.611254   1.000000   1.000000
    6       -5.306011     -5.306008   1.000000   1.000000
    7       -3.802974     -3.802977   1.000000   1.000000
    8       -0.205569     -0.205573   1.000000   1.000000
    9        0.660748      0.660743   1.000000   1.000000
   10        5.937574      5.937570   0.000000   0.000000
   11        6.318505      6.318505   0.000000   0.000000
   12        8.124366      8.123732   0.000000   0.000000
   13       11.039503     11.039628   0.000000   0.000000
   14       11.835703     11.837742   0.000000   0.000000
 
  0.3636364E+00  0.1818182E+00  0.1044504E-15  0.2361275E-02
    1      -43.211885    -43.211638   1.000000   1.000000
    2      -21.561986    -21.561989   1.000000   1.000000
    3      -17.282823    -17.282828   1.000000   1.000000
    4       -6.334971     -6.334974   1.000000   1.000000
    5       -5.734788     -5.734791   1.000000   1.000000
    6       -5.414938     -5.414935   1.000000   1.000000
    7       -3.874365     -3.874369   1.000000   1.000000
    8       -0.496291     -0.496296   1.000000   1.000000
    9        0.440260      0.440253   1.000000   1.000000
   10        5.561603      5.561599   0.000000   0.000000
   11        6.273807      6.273806   0.000000   0.000000
   12        8.903274      8.903103   0.000000   0.000000
   13       11.242002     11.240509   0.000000   0.000000
   14       12.124752     12.118325   0.000000   0.000000
 
  0.4545455E+00  0.1818182E+00  0.2019688E-15  0.2361275E-02
    1      -43.210653    -43.210405   1.000000   1.000000
    2      -21.515176    -21.515177   1.000000   1.000000
    3      -17.255718    -17.255723   1.000000   1.000000
    4       -6.383011     -6.383014   1.000000   1.000000
    5       -5.761653     -5.761654   1.000000   1.000000
    6       -5.474926     -5.474924   1.000000   1.000000
    7       -3.941000     -3.941003   1.000000   1.000000
    8       -0.700558     -0.700563   1.000000   1.000000
    9        0.176525      0.176518   1.000000   1.000000
   10        5.220583      5.220580   0.000000   0.000000
   11        6.213402      6.213400   0.000000   0.000000
   12        9.597093      9.597050   0.000000   0.000000
   13       11.516949     11.516956   0.000000   0.000000
   14       11.985936     11.986941   0.000000   0.000000
 
 -0.4545455E+00  0.1818182E+00  0.2604399E-16  0.2361275E-02
    1      -43.210011    -43.209764   1.000000   1.000000
    2      -21.490161    -21.490161   1.000000   1.000000
    3      -17.237767    -17.237772   1.000000   1.000000
    4       -6.446364     -6.446365   1.000000   1.000000
    5       -5.798375     -5.798375   1.000000   1.000000
    6       -5.454669     -5.454669   1.000000   1.000000
    7       -3.958587     -3.958590   1.000000   1.000000
    8       -0.776890     -0.776895   1.000000   1.000000
    9       -0.041207     -0.041213   1.000000   1.000000
   10        5.025559      5.025556   0.000000   0.000000
   11        6.173358      6.173356   0.000000   0.000000
   12        9.873853      9.873994   0.000000   0.000000
   13       11.905169     11.904459   0.000000   0.000000
   14       12.070016     12.112884   0.000000   0.000000
 
 -0.3636364E+00  0.1818182E+00  0.6545197E-17  0.2361275E-02
    1      -43.210130    -43.209883   1.000000   1.000000
    2      -21.495299    -21.495300   1.000000   1.000000
    3      -17.234717    -17.234722   1.000000   1.000000
    4       -6.470861     -6.470862   1.000000   1.000000
    5       -5.777638     -5.777639   1.000000   1.000000
    6       -5.486872     -5.486871   1.000000   1.000000
    7       -3.884088     -3.884092   1.000000   1.000000
    8       -0.741314     -0.741321   1.000000   1.000000
    9       -0.124350     -0.124356   1.000000   1.000000
   10        5.027460      5.027458   0.000000   0.000000
   11        6.179740      6.179737   0.000000   0.000000
   12        9.839218      9.839197   0.000000   0.000000
   13       11.857502     11.853436   0.000000   0.000000
   14       12.380555     12.375350   0.000000   0.000000
 
 -0.2727273E+00  0.1818182E+00 -0.8034274E-17  0.2361275E-02
    1      -43.210997    -43.210750   1.000000   1.000000
    2      -21.528889    -21.528890   1.000000   1.000000
    3      -17.247763    -17.247768   1.000000   1.000000
    4       -6.470540     -6.470541   1.000000   1.000000
    5       -5.698467     -5.698470   1.000000   1.000000
    6       -5.529225     -5.529223   1.000000   1.000000
    7       -3.758841     -3.758845   1.000000   1.000000
    8       -0.628403     -0.628410   1.000000   1.000000
    9       -0.018085     -0.018090   1.000000   1.000000
   10        5.208669      5.208668   0.000000   0.000000
   11        6.231553      6.231549   0.000000   0.000000
   12        9.485294      9.485172   0.000000   0.000000
   13       11.824370     11.791814   0.000000   0.000000
   14       12.468072     12.471590   0.000000   0.000000
 
 -0.1818182E+00  0.1818182E+00  0.1197127E-16  0.2361275E-02
    1      -43.212295    -43.212048   1.000000   1.000000
    2      -21.579500    -21.579501   1.000000   1.000000
    3      -17.272574    -17.272578   1.000000   1.000000
    4       -6.485439     -6.485439   1.000000   1.000000
    5       -5.687212     -5.687212   1.000000   1.000000
    6       -5.388006     -5.388007   1.000000   1.000000
    7       -3.662700     -3.662704   1.000000   1.000000
    8       -0.418482     -0.418490   1.000000   1.000000
    9        0.212773      0.212768   1.000000   1.000000
   10        5.499720      5.499719   0.000000   0.000000
   11        6.310151      6.310147   0.000000   0.000000
   12        8.786699      8.785042   0.000000   0.000000
   13       11.886202     11.866323   0.000000   0.000000
   14       12.300072     12.316877   0.000000   0.000000
 
 -0.9090909E-01  0.1818182E+00  0.5736699E-16  0.2361275E-02
    1      -43.213634    -43.213387   1.000000   1.000000
    2      -21.630799    -21.630802   1.000000   1.000000
    3      -17.301207    -17.301212   1.000000   1.000000
    4       -6.534406     -6.534406   1.000000   1.000000
    5       -5.615410     -5.615408   1.000000   1.000000
    6       -5.210832     -5.210835   1.000000   1.000000
    7       -3.627346     -3.627350   1.000000   1.000000
    8       -0.114293     -0.114300   1.000000   1.000000
    9        0.439509      0.439504   1.000000   1.000000
   10        5.804822      5.804823   0.000000   0.000000
   11        6.407179      6.407174   0.000000   0.000000
   12        8.020213      8.019374   0.000000   0.000000
   13       11.405795     11.405607   0.000000   0.000000
   14       12.010648     12.009481   0.000000   0.000000
 
 -0.1580338E-17  0.2727273E+00  0.9868573E-16  0.2361275E-02
    1      -43.213075    -43.212828   1.000000   1.000000
    2      -21.608528    -21.608531   1.000000   1.000000
    3      -17.292123    -17.292127   1.000000   1.000000
    4       -6.472538     -6.472537   1.000000   1.000000
    5       -5.771506     -5.771503   1.000000   1.000000
    6       -5.191959     -5.191964   1.000000   1.000000
    7       -3.665869     -3.665873   1.000000   1.000000
    8       -0.290920     -0.290928   1.000000   1.000000
    9        0.431612      0.431607   1.000000   1.000000
   10        5.621072      5.621074   0.000000   0.000000
   11        6.542254      6.542251   0.000000   0.000000
   12        8.202088      8.201408   0.000000   0.000000
   13       11.504407     11.500414   0.000000   0.000000
   14       11.989132     11.983602   0.000000   0.000000
 
  0.9090909E-01  0.2727273E+00  0.1085497E-15  0.2361275E-02
    1      -43.213531    -43.213284   1.000000   1.000000
    2      -21.624879    -21.624882   1.000000   1.000000
    3      -17.307541    -17.307545   1.000000   1.000000
    4       -6.446525     -6.446525   1.000000   1.000000
    5       -5.666584     -5.666581   1.000000   1.000000
    6       -5.223379     -5.223383   1.000000   1.000000
    7       -3.719276     -3.719280   1.000000   1.000000
    8       -0.111197     -0.111204   1.000000   1.000000
    9        0.517940      0.517935   1.000000   1.000000
   10        5.807212      5.807213   0.000000   0.000000
   11        6.503216      6.503212   0.000000   0.000000
   12        8.018977      8.018377   0.000000   0.000000
   13       11.229642     11.228842   0.000000   0.000000
   14       11.820567     11.821188   0.000000   0.000000
 
  0.1818182E+00  0.2727273E+00  0.1591354E-15  0.2361275E-02
    1      -43.213390    -43.213142   1.000000   1.000000
    2      -21.618055    -21.618058   1.000000   1.000000
    3      -17.311939    -17.311944   1.000000   1.000000
    4       -6.394050     -6.394051   1.000000   1.000000
    5       -5.606202     -5.606200   1.000000   1.000000
    6       -5.304804     -5.304806   1.000000   1.000000
    7       -3.804495     -3.804499   1.000000   1.000000
    8       -0.191431     -0.191437   1.000000   1.000000
    9        0.661740      0.661735   1.000000   1.000000
   10        5.945565      5.945566   0.000000   0.000000
   11        6.311222      6.311216   0.000000   0.000000
   12        8.120088      8.119551   0.000000   0.000000
   13       11.027211     11.027238   0.000000   0.000000
   14       11.849046     11.850004   0.000000   0.000000
 
  0.2727273E+00  0.2727273E+00  0.9727540E-16  0.2361275E-02
    1      -43.212668    -43.212420   1.000000   1.000000
    2      -21.589887    -21.589890   1.000000   1.000000
    3      -17.304030    -17.304035   1.000000   1.000000
    4       -6.340857     -6.340858   1.000000   1.000000
    5       -5.650460     -5.650461   1.000000   1.000000
    6       -5.348640     -5.348639   1.000000   1.000000
    7       -3.906364     -3.906367   1.000000   1.000000
    8       -0.429669     -0.429672   1.000000   1.000000
    9        0.742028      0.742023   1.000000   1.000000
   10        5.974554      5.974551   0.000000   0.000000
   11        6.068442      6.068438   0.000000   0.000000
   12        8.446929      8.446278   0.000000   0.000000
   13       10.939375     10.939876   0.000000   0.000000
   14       12.086557     12.088318   0.000000   0.000000
 
  0.3636364E+00  0.2727273E+00  0.1154031E-15  0.2361275E-02
    1      -43.211611    -43.211363   1.000000   1.000000
    2      -21.549078    -21.549083   1.000000   1.000000
    3      -17.286281    -17.286286   1.000000   1.000000
    4       -6.343204     -6.343205   1.000000   1.000000
    5       -5.629899     -5.629901   1.000000   1.000000
    6       -5.443118     -5.443115   1.000000   1.000000
    7       -4.018422     -4.018426   1.000000   1.000000
    8       -0.664034     -0.664038   1.000000   1.000000
    9        0.645504      0.645499   1.000000   1.000000
   10        5.683089      5.683083   0.000000   0.000000
   11        6.013541      6.013538   0.000000   0.000000
   12        9.051265      9.050583   0.000000   0.000000
   13       10.975126     10.976838   0.000000   0.000000
   14       12.482216     12.693835   0.000000   0.000000
 
  0.4545455E+00  0.2727273E+00  0.2902595E-15  0.2361275E-02
    1      -43.210566    -43.210318   1.000000   1.000000
    2      -21.508524    -21.508528   1.000000   1.000000
    3      -17.264202    -17.264207   1.000000   1.000000
    4       -6.366806     -6.366808   1.000000   1.000000
    5       -5.671378     -5.671377   1.000000   1.000000
    6       -5.458885     -5.458886   1.000000   1.000000
    7       -4.128111     -4.128115   1.000000   1.000000
    8       -0.798985     -0.798988   1.000000   1.000000
    9        0.387051      0.387044   1.000000   1.000000
   10        5.372456      5.372451   0.000000   0.000000
   11        5.939924      5.939920   0.000000   0.000000
   12        9.910462      9.909731   0.000000   0.000000
   13       11.080665     11.077504   0.000000   0.000000
   14       12.874289     12.165497   0.000000   0.000000
 