       N       E                     dE             d eps       ncg     rms          rms(c)
DAV:   1     0.875318234227E+02    0.87532E+02   -0.84486E+03 23768   0.119E+03
DAV:   2    -0.228955111588E+02   -0.11043E+03   -0.10691E+03 31136   0.271E+02
DAV:   3    -0.284754496265E+02   -0.55799E+01   -0.55577E+01 33514   0.660E+01
DAV:   4    -0.286991195137E+02   -0.22367E+00   -0.22355E+00 36170   0.111E+01
DAV:   5    -0.287021274421E+02   -0.30079E-02   -0.30077E-02 32956   0.133E+00    0.128E+01
RMM:   6    -0.275157028401E+02    0.11864E+01   -0.39231E+00 25729   0.138E+01    0.591E+00
RMM:   7    -0.274588974799E+02    0.56805E-01   -0.68231E-01 30790   0.763E+00    0.339E+00
RMM:   8    -0.274410679518E+02    0.17830E-01   -0.28427E-01 34032   0.426E+00    0.168E+00
RMM:   9    -0.274545075577E+02   -0.13440E-01   -0.76813E-02 36629   0.236E+00    0.645E-01
RMM:  10    -0.274555012648E+02   -0.99371E-03   -0.25215E-02 38580   0.125E+00    0.154E-01
RMM:  11    -0.274570115705E+02   -0.15103E-02   -0.10687E-02 40985   0.717E-01    0.907E-02
RMM:  12    -0.274577185736E+02   -0.70700E-03   -0.49917E-03 43541   0.450E-01    0.551E-02
RMM:  13    -0.274579775257E+02   -0.25895E-03   -0.20955E-03 42960   0.288E-01    0.207E-02
RMM:  14    -0.274581000371E+02   -0.12251E-03   -0.97288E-04 41961   0.202E-01    0.151E-02
RMM:  15    -0.274581551223E+02   -0.55085E-04   -0.45365E-04 39277   0.132E-01    0.905E-03
RMM:  16    -0.274581790670E+02   -0.23945E-04   -0.20774E-04 36208   0.910E-02    0.232E-03
RMM:  17    -0.274581907681E+02   -0.11701E-04   -0.94313E-05 31361   0.672E-02    0.222E-03
RMM:  18    -0.274581950092E+02   -0.42411E-05   -0.42002E-05 27738   0.544E-02
   1 F= -.27458195E+02 E0= -.27458195E+02  d E =0.000000E+00  mag=     0.0000
