       N       E                     dE             d eps       ncg     rms          rms(c)
DAV:   1     0.111185346862E+04    0.11119E+04   -0.61684E+04 21328   0.152E+03
DAV:   2    -0.620496505643E+02   -0.11739E+04   -0.11039E+04 25768   0.391E+02
DAV:   3    -0.174127067126E+03   -0.11208E+03   -0.11136E+03 27416   0.124E+02
DAV:   4    -0.183698051117E+03   -0.95710E+01   -0.95298E+01 39976   0.295E+01
DAV:   5    -0.185308535894E+03   -0.16105E+01   -0.16100E+01 30360   0.696E+00    0.492E+01
DAV:   6    -0.165624736949E+03    0.19684E+02   -0.89947E+01 26676   0.319E+01    0.241E+01
DAV:   7    -0.167665456943E+03   -0.20407E+01   -0.73356E+00 27896   0.910E+00    0.872E+00
DAV:   8    -0.167953289449E+03   -0.28783E+00   -0.78429E-01 28528   0.353E+00    0.437E+00
DAV:   9    -0.168091592641E+03   -0.13830E+00   -0.13760E-01 29200   0.161E+00    0.164E+00
DAV:  10    -0.168118309539E+03   -0.26717E-01   -0.52373E-02 26840   0.110E+00    0.497E-01
DAV:  11    -0.168129047615E+03   -0.10738E-01   -0.11499E-02 26712   0.442E-01    0.296E-01
DAV:  12    -0.168131789345E+03   -0.27417E-02   -0.20653E-03 28152   0.204E-01    0.152E-01
DAV:  13    -0.168133154799E+03   -0.13655E-02   -0.11660E-03 24920   0.130E-01    0.476E-02
DAV:  14    -0.168133335124E+03   -0.18032E-03   -0.13854E-04 27800   0.591E-02    0.220E-02
DAV:  15    -0.168133397663E+03   -0.62539E-04   -0.68417E-05 22168   0.362E-02    0.135E-02
DAV:  16    -0.168133405048E+03   -0.73856E-05   -0.80306E-06 18304   0.143E-02
   1 F= -.16813341E+03 E0= -.16813341E+03  d E =0.000000E+00  mag=    -0.0012
