 running on   48 total cores
 distrk:  each k-point on   48 cores,    1 groups
 distr:  one band on    6 cores,    8 groups
 using from now: INCAR     
 vasp.6.1.2 22Jul20 (build Mar 31 2021 18:09:49) complex                        
  
 POSCAR found type information on POSCAR LiP 
 POSCAR found :  2 types and      64 ions
 scaLAPACK will be used
 LDA part: xc-table for Pade appr. of Perdew
 -----------------------------------------------------------------------------
|                                                                             |
|           W    W    AA    RRRRR   N    N  II  N    N   GGGG   !!!           |
|           W    W   A  A   R    R  NN   N  II  NN   N  G    G  !!!           |
|           W    W  A    A  R    R  N N  N  II  N N  N  G       !!!           |
|           W WW W  AAAAAA  RRRRR   N  N N  II  N  N N  G  GGG   !            |
|           WW  WW  A    A  R   R   N   NN  II  N   NN  G    G                |
|           W    W  A    A  R    R  N    N  II  N    N   GGGG   !!!           |
|                                                                             |
|     The determination of the symmetry of your systems shows a strong        |
|     dependence on the tolerance parameter SYMPREC. This is often the        |
|     result of "noise" in the structural parameters (lattice vectors         |
|     and/or ionic positions). Set NWRITE=3 for more details.                 |
|                                                                             |
 -----------------------------------------------------------------------------

 generate k-points for:    3    3    3
 POSCAR, INCAR and KPOINTS ok, starting setup
 FFT: planning ...
 WAVECAR not read
 entering main loop
       N       E                     dE             d eps       ncg     rms          rms(c)
DAV:   1     0.157758591355E+04    0.15776E+04   -0.12041E+05  8456   0.128E+03
DAV:   2    -0.124376654362E+03   -0.17020E+04   -0.15952E+04  9920   0.246E+02
DAV:   3    -0.308195371279E+03   -0.18382E+03   -0.18096E+03 10608   0.836E+01
DAV:   4    -0.322224767082E+03   -0.14029E+02   -0.13964E+02 13768   0.202E+01
DAV:   5    -0.325226717671E+03   -0.30020E+01   -0.29998E+01 14800   0.560E+00    0.423E+01
DAV:   6    -0.325044579043E+03    0.18214E+00   -0.11499E+01 10120   0.615E+00    0.243E+01
DAV:   7    -0.327214133020E+03   -0.21696E+01   -0.54665E+00 10008   0.415E+00    0.138E+01
DAV:   8    -0.328334208869E+03   -0.11201E+01   -0.20144E+00  9504   0.288E+00    0.284E+00
DAV:   9    -0.328405225330E+03   -0.71016E-01   -0.25751E-01 10664   0.111E+00    0.156E+00
DAV:  10    -0.328419671262E+03   -0.14446E-01   -0.65210E-02 10616   0.508E-01    0.604E-01
DAV:  11    -0.328426182356E+03   -0.65111E-02   -0.99946E-03 10072   0.252E-01    0.217E-01
DAV:  12    -0.328428520611E+03   -0.23383E-02   -0.28376E-03 10848   0.117E-01    0.115E-01
DAV:  13    -0.328429543979E+03   -0.10234E-02   -0.71697E-04 10392   0.577E-02    0.544E-02
DAV:  14    -0.328430027184E+03   -0.48320E-03   -0.40899E-04  9456   0.386E-02    0.318E-02
DAV:  15    -0.328430137804E+03   -0.11062E-03   -0.11224E-04  9504   0.205E-02    0.176E-02
DAV:  16    -0.328430166687E+03   -0.28883E-04   -0.26442E-05  7864   0.117E-02    0.829E-03
DAV:  17    -0.328430174480E+03   -0.77932E-05   -0.85361E-06  6600   0.716E-03
   1 F= -.32843017E+03 E0= -.32843017E+03  d E =0.000000E+00  mag=     0.0003
