 vasp.5.4.4.18Apr17-6-g9f103f2a35 (build Aug 12 2020 11:57:02) complex          
  
 executed on             LinuxIFC date 2021.02.03  06:49:41
 running on   24 total cores
 distrk:  each k-point on   24 cores,    1 groups
 distr:  one band on NCORES_PER_BAND=   6 cores,    4 groups


--------------------------------------------------------------------------------------------------------


 INCAR:
 POTCAR:    PAW_PBE Li_sv 10Sep2004               
 POTCAR:    PAW_PBE O 08Apr2002                   
 POTCAR:    PAW_PBE Li_sv 10Sep2004               
   VRHFIN =Li: 1s2s2p                                                           
   LEXCH  = PE                                                                  
   EATOM  =   202.7858 eV,   14.9043 Ry                                         
                                                                                
   TITEL  = PAW_PBE Li_sv 10Sep2004                                             
   LULTRA =        F    use ultrasoft PP ?                                      
   IUNSCR =        0    unscreen: 0-lin 1-nonlin 2-no                           
   RPACOR =    0.000    partial core radius                                     
   POMASS =    7.010; ZVAL   =    3.000    mass and valenz                      
   RCORE  =    1.700    outmost cutoff radius                                   
   RWIGS  =    2.050; RWIGS  =    1.085    wigner-seitz radius (au A)           
   ENMAX  =  499.034; ENMIN  =  374.276 eV                                      
   ICORE  =        2    local potential                                         
   LCOR   =        T    correct aug charges                                     
   LPAW   =        T    paw PP                                                  
   EAUG   =  628.945                                                            
   RMAX   =    1.732    core radius for proj-oper                               
   RAUG   =    1.300    factor for augmentation sphere                          
   RDEP   =    1.728    radius for radial grids                                 
   RDEPT  =    1.329    core radius for aug-charge                              
                                                                                
   Atomic configuration                                                         
    4 entries                                                                   
     n  l   j            E        occ.                                          
     1  0  0.50       -51.8549   2.0000                                         
     2  0  0.50        -2.8742   1.0000                                         
     2  1  0.50        -1.3606   0.0000                                         
     3  2  1.50        -1.3606   0.0000                                         
   Description                                                                  
     l       E           TYP  RCUT    TYP  RCUT                                 
     0    -51.8548813     23  1.400                                             
     0     -2.8742052     23  1.700                                             
     1     -1.3605826     23  1.400                                             
     2     -1.3605826     23  1.400                                             
  local pseudopotential read in
  atomic valenz-charges read in
  non local Contribution for L=           0  read in
    real space projection operators read in
  non local Contribution for L=           0  read in
    real space projection operators read in
  non local Contribution for L=           1  read in
    real space projection operators read in
    PAW grid and wavefunctions read in
 
   number of l-projection  operators is LMAX  =           3
   number of lm-projection operators is LMMAX =           5
 
 POTCAR:    PAW_PBE O 08Apr2002                   
   VRHFIN =O: s2p4                                                              
   LEXCH  = PE                                                                  
   EATOM  =   432.3788 eV,   31.7789 Ry                                         
                                                                                
   TITEL  = PAW_PBE O 08Apr2002                                                 
   LULTRA =        F    use ultrasoft PP ?                                      
   IUNSCR =        1    unscreen: 0-lin 1-nonlin 2-no                           
   RPACOR =    1.200    partial core radius                                     
   POMASS =   16.000; ZVAL   =    6.000    mass and valenz                      
   RCORE  =    1.520    outmost cutoff radius                                   
   RWIGS  =    1.550; RWIGS  =    0.820    wigner-seitz radius (au A)           
   ENMAX  =  400.000; ENMIN  =  300.000 eV                                      
   ICORE  =        2    local potential                                         
   LCOR   =        T    correct aug charges                                     
   LPAW   =        T    paw PP                                                  
   EAUG   =  605.392                                                            
   DEXC   =    0.000                                                            
   RMAX   =    1.553    core radius for proj-oper                               
   RAUG   =    1.300    factor for augmentation sphere                          
   RDEP   =    1.550    radius for radial grids                                 
   RDEPT  =    1.329    core radius for aug-charge                              
                                                                                
   Atomic configuration                                                         
    4 entries                                                                   
     n  l   j            E        occ.                                          
     1  0  0.50      -514.6923   2.0000                                         
     2  0  0.50       -23.9615   2.0000                                         
     2  1  0.50        -9.0305   4.0000                                         
     3  2  1.50        -9.5241   0.0000                                         
   Description                                                                  
     l       E           TYP  RCUT    TYP  RCUT                                 
     0    -23.9615318     23  1.200                                             
     0     -9.5240782     23  1.200                                             
     1     -9.0304911     23  1.520                                             
     1      8.1634956     23  1.520                                             
     2     -9.5240782      7  1.500                                             
  local pseudopotential read in
  partial core-charges read in
  partial kinetic energy density read in
  kinetic energy density of atom read in
  atomic valenz-charges read in
  non local Contribution for L=           0  read in
    real space projection operators read in
  non local Contribution for L=           0  read in
    real space projection operators read in
  non local Contribution for L=           1  read in
    real space projection operators read in
  non local Contribution for L=           1  read in
    real space projection operators read in
    PAW grid and wavefunctions read in
 
   number of l-projection  operators is LMAX  =           4
   number of lm-projection operators is LMMAX =           8
 
 Optimization of the real space projectors (new method)

 maximal supplied QI-value         = 22.11
 optimisation between [QCUT,QGAM] = [ 11.50, 23.22] = [ 37.02,150.92] Ry 
 Optimized for a Real-space Cutoff    1.08 Angstroem

   l    n(q)    QCUT    max X(q) W(low)/X(q) W(high)/X(q)  e(spline) 
   0      7    11.497    10.506    0.36E-04    0.62E-04    0.14E-07
   0      7    11.497     8.367    0.65E-04    0.14E-03    0.28E-07
   1      7    11.497     8.983    0.21E-03    0.43E-03    0.90E-07
 Optimization of the real space projectors (new method)

 maximal supplied QI-value         = 24.76
 optimisation between [QCUT,QGAM] = [ 11.64, 23.27] = [ 37.91,151.63] Ry 
 Optimized for a Real-space Cutoff    1.14 Angstroem

   l    n(q)    QCUT    max X(q) W(low)/X(q) W(high)/X(q)  e(spline) 
   0      8    11.635    20.381    0.10E-03    0.33E-03    0.24E-06
   0      8    11.635    15.268    0.11E-03    0.35E-03    0.26E-06
   1      7    11.635     5.964    0.24E-03    0.31E-03    0.30E-06
   1      7    11.635     5.382    0.22E-03    0.25E-03    0.26E-06
  PAW_PBE Li_sv 10Sep2004               :
 energy of atom  1       EATOM= -202.7858
 kinetic energy error for atom=    0.0130 (will be added to EATOM!!)
  PAW_PBE O 08Apr2002                   :
 energy of atom  2       EATOM= -432.3788
 kinetic energy error for atom=    0.0208 (will be added to EATOM!!)
 
 
 POSCAR: Li1 O8                                  
  positions in direct lattice
  No initial velocities read in
 exchange correlation table for  LEXCH =        8
   RHO(1)=    0.500       N(1)  =     2000
   RHO(2)=  100.500       N(2)  =     4000
 


--------------------------------------------------------------------------------------------------------


 ion  position               nearest neighbor table
   1  0.496  0.804  0.804-   7 2.08   9 2.10   3 2.17   4 2.17   2 2.20   5 2.20
   2  0.842  0.333  0.820-   3 1.25   1 2.20
   3  0.151  0.233  0.700-   2 1.25   1 2.17
   4  0.151  0.700  0.233-   5 1.25   1 2.17
   5  0.842  0.820  0.333-   4 1.25   1 2.20
   6  0.838  0.256  0.256-   8 1.24
   7  0.154  0.741  0.741-   9 1.26   1 2.08
   8  0.142  0.153  0.153-   6 1.24
   9  0.844  0.865  0.865-   7 1.26   1 2.10
 
  LATTYP: Found a base centered monoclinic cell.
 ALAT       =     8.1929114546
 B/A-ratio  =     0.7466463321
 C/A-ratio  =     2.4197434563
 COS(beta)  =    -0.7843285427
  
  Lattice vectors:
  
 A1 = (   0.5697160000,  -0.3404670000,   5.0690740000)
 A2 = (   1.9825580000,   4.4531030000,   1.5412150000)
 A3 = (  -9.7848150000,  -8.2559470000, -15.1366180000)


Analysis of symmetry for initial positions (statically):
=====================================================================
 Subroutine PRICEL returns:
 Original cell was already a primitive cell.
 

 Routine SETGRP: Setting up the symmetry group for a 
 base centered monoclinic supercell.


 Subroutine GETGRP returns: Found  2 space group operations
 (whereof  2 operations were pure point group operations)
 out of a pool of  4 trial point group operations.


The static configuration has the point symmetry C_1h.


Analysis of symmetry for dynamics (positions and initial velocities):
=====================================================================
 Subroutine PRICEL returns:
 Original cell was already a primitive cell.
 

 Routine SETGRP: Setting up the symmetry group for a 
 base centered monoclinic supercell.


 Subroutine GETGRP returns: Found  2 space group operations
 (whereof  2 operations were pure point group operations)
 out of a pool of  4 trial point group operations.


The dynamic configuration has the point symmetry C_1h.


Analysis of structural, dynamic, and magnetic symmetry:
=====================================================================
 Subroutine PRICEL returns:
 Original cell was already a primitive cell.
 

 Routine SETGRP: Setting up the symmetry group for a 
 base centered monoclinic supercell.


 Subroutine GETGRP returns: Found  2 space group operations
 (whereof  2 operations were pure point group operations)
 out of a pool of  4 trial point group operations.


The magnetic configuration has the point symmetry C_1h.


 Subroutine INISYM returns: Found  2 space group operations
 (whereof  2 operations are pure point group operations),
 and found     1 'primitive' translations

 
 
 KPOINTS: Fully automatic kpoint scheme           

Automatic generation of k-mesh.
 generate k-points for:    8    7    7
Space group operators:
 irot       det(A)        alpha          n_x          n_y          n_z        tau_x        tau_y        tau_z
    1     1.000000     0.000001     1.000000     0.000000     0.000000     0.000000     0.000000     0.000000
    2    -1.000000   180.000000     0.230962     0.783621    -0.576711     0.000000     0.000000     0.000000
 
 Subroutine IBZKPT returns following result:
 ===========================================
 
 Found    116 irreducible k-points:
 
 Following reciprocal coordinates:
            Coordinates               Weight
  0.000000  0.000000  0.000000      1.000000
  0.125000 -0.000000  0.000000      2.000000
  0.250000 -0.000000  0.000000      2.000000
  0.375000 -0.000000 -0.000000      2.000000
  0.500000 -0.000000  0.000000      1.000000
 -0.000000  0.142857  0.000000      4.000000
  0.125000  0.142857 -0.000000      4.000000
  0.250000  0.142857 -0.000000      4.000000
  0.375000  0.142857  0.000000      4.000000
  0.500000  0.142857  0.000000      4.000000
 -0.375000  0.142857  0.000000      4.000000
 -0.250000  0.142857  0.000000      4.000000
 -0.125000  0.142857  0.000000      4.000000
 -0.000000  0.285714  0.000000      4.000000
  0.125000  0.285714  0.000000      4.000000
  0.250000  0.285714 -0.000000      4.000000
  0.375000  0.285714 -0.000000      4.000000
  0.500000  0.285714  0.000000      4.000000
 -0.375000  0.285714  0.000000      4.000000
 -0.250000  0.285714  0.000000      4.000000
 -0.125000  0.285714  0.000000      4.000000
 -0.000000  0.428571 -0.000000      4.000000
  0.125000  0.428571 -0.000000      4.000000
  0.250000  0.428571 -0.000000      4.000000
  0.375000  0.428571 -0.000000      4.000000
  0.500000  0.428571  0.000000      4.000000
 -0.375000  0.428571  0.000000      4.000000
 -0.250000  0.428571  0.000000      4.000000
 -0.125000  0.428571  0.000000      4.000000
 -0.000000  0.142857  0.142857      2.000000
  0.125000  0.142857  0.142857      2.000000
  0.250000  0.142857  0.142857      2.000000
  0.375000  0.142857  0.142857      2.000000
  0.500000  0.142857  0.142857      2.000000
 -0.375000  0.142857  0.142857      2.000000
 -0.250000  0.142857  0.142857      2.000000
 -0.125000  0.142857  0.142857      2.000000
 -0.000000  0.285714  0.142857      4.000000
  0.125000  0.285714  0.142857      4.000000
  0.250000  0.285714  0.142857      4.000000
  0.375000  0.285714  0.142857      4.000000
  0.500000  0.285714  0.142857      4.000000
 -0.375000  0.285714  0.142857      4.000000
 -0.250000  0.285714  0.142857      4.000000
 -0.125000  0.285714  0.142857      4.000000
  0.000000  0.428571  0.142857      4.000000
  0.125000  0.428571  0.142857      4.000000
  0.250000  0.428571  0.142857      4.000000
  0.375000  0.428571  0.142857      4.000000
  0.500000  0.428571  0.142857      4.000000
 -0.375000  0.428571  0.142857      4.000000
 -0.250000  0.428571  0.142857      4.000000
 -0.125000  0.428571  0.142857      4.000000
 -0.000000 -0.428571  0.142857      4.000000
  0.125000 -0.428571  0.142857      4.000000
  0.250000 -0.428571  0.142857      4.000000
  0.375000 -0.428571  0.142857      4.000000
  0.500000 -0.428571  0.142857      4.000000
 -0.375000 -0.428571  0.142857      4.000000
 -0.250000 -0.428571  0.142857      4.000000
 -0.125000 -0.428571  0.142857      4.000000
  0.000000 -0.285714  0.142857      4.000000
  0.125000 -0.285714  0.142857      4.000000
  0.250000 -0.285714  0.142857      4.000000
  0.375000 -0.285714  0.142857      4.000000
  0.500000 -0.285714  0.142857      4.000000
 -0.375000 -0.285714  0.142857      4.000000
 -0.250000 -0.285714  0.142857      4.000000
 -0.125000 -0.285714  0.142857      4.000000
 -0.000000 -0.142857  0.142857      2.000000
  0.125000 -0.142857  0.142857      4.000000
  0.250000 -0.142857  0.142857      4.000000
  0.375000 -0.142857  0.142857      4.000000
  0.500000 -0.142857  0.142857      2.000000
 -0.000000  0.285714  0.285714      2.000000
  0.125000  0.285714  0.285714      2.000000
  0.250000  0.285714  0.285714      2.000000
  0.375000  0.285714  0.285714      2.000000
  0.500000  0.285714  0.285714      2.000000
 -0.375000  0.285714  0.285714      2.000000
 -0.250000  0.285714  0.285714      2.000000
 -0.125000  0.285714  0.285714      2.000000
 -0.000000  0.428571  0.285714      4.000000
  0.125000  0.428571  0.285714      4.000000
  0.250000  0.428571  0.285714      4.000000
  0.375000  0.428571  0.285714      4.000000
  0.500000  0.428571  0.285714      4.000000
 -0.375000  0.428571  0.285714      4.000000
 -0.250000  0.428571  0.285714      4.000000
 -0.125000  0.428571  0.285714      4.000000
  0.000000 -0.428571  0.285714      4.000000
  0.125000 -0.428571  0.285714      4.000000
  0.250000 -0.428571  0.285714      4.000000
  0.375000 -0.428571  0.285714      4.000000
  0.500000 -0.428571  0.285714      4.000000
 -0.375000 -0.428571  0.285714      4.000000
 -0.250000 -0.428571  0.285714      4.000000
 -0.125000 -0.428571  0.285714      4.000000
 -0.000000 -0.285714  0.285714      2.000000
  0.125000 -0.285714  0.285714      4.000000
  0.250000 -0.285714  0.285714      4.000000
  0.375000 -0.285714  0.285714      4.000000
  0.500000 -0.285714  0.285714      2.000000
 -0.000000  0.428571  0.428571      2.000000
  0.125000  0.428571  0.428571      2.000000
  0.250000  0.428571  0.428571      2.000000
  0.375000  0.428571  0.428571      2.000000
  0.500000  0.428571  0.428571      2.000000
 -0.375000  0.428571  0.428571      2.000000
 -0.250000  0.428571  0.428571      2.000000
 -0.125000  0.428571  0.428571      2.000000
  0.000000 -0.428571  0.428571      2.000000
  0.125000 -0.428571  0.428571      4.000000
  0.250000 -0.428571  0.428571      4.000000
  0.375000 -0.428571  0.428571      4.000000
  0.500000 -0.428571  0.428571      2.000000
 
 Following cartesian coordinates:
            Coordinates               Weight
  0.000000  0.000000  0.000000      1.000000
  0.028399 -0.011276 -0.003949      2.000000
  0.056797 -0.022553 -0.007898      2.000000
  0.085196 -0.033829 -0.011847      2.000000
  0.113594 -0.045106 -0.015796      1.000000
 -0.001135  0.031802  0.002264      4.000000
  0.027263  0.020526 -0.001686      4.000000
  0.055662  0.009249 -0.005635      4.000000
  0.084060 -0.002027 -0.009584      4.000000
  0.112459 -0.013304 -0.013533      4.000000
 -0.086331  0.065632  0.014111      4.000000
 -0.057932  0.054355  0.010162      4.000000
 -0.029534  0.043079  0.006213      4.000000
 -0.002270  0.063605  0.004527      4.000000
  0.026128  0.052328  0.000578      4.000000
  0.054527  0.041052 -0.003371      4.000000
  0.082925  0.029775 -0.007320      4.000000
  0.111324  0.018499 -0.011269      4.000000
 -0.087466  0.097434  0.016375      4.000000
 -0.059067  0.086158  0.012425      4.000000
 -0.030669  0.074881  0.008476      4.000000
 -0.003405  0.095407  0.006791      4.000000
  0.024993  0.084130  0.002842      4.000000
  0.053392  0.072854 -0.001107      4.000000
  0.081790  0.061578 -0.005057      4.000000
  0.110189  0.050301 -0.009006      4.000000
 -0.088601  0.129236  0.018638      4.000000
 -0.060202  0.117960  0.014689      4.000000
 -0.031804  0.106683  0.010740      4.000000
 -0.013058  0.027004  0.031463      2.000000
  0.015341  0.015728  0.027514      2.000000
  0.043739  0.004451  0.023565      2.000000
  0.072138 -0.006825  0.019616      2.000000
  0.100536 -0.018102  0.015667      2.000000
 -0.098253  0.060834  0.043311      2.000000
 -0.069855  0.049557  0.039362      2.000000
 -0.041456  0.038281  0.035413      2.000000
 -0.014193  0.058807  0.033727      4.000000
  0.014206  0.047530  0.029778      4.000000
  0.042604  0.036254  0.025829      4.000000
  0.071003  0.024977  0.021880      4.000000
  0.099401  0.013701  0.017931      4.000000
 -0.099388  0.092636  0.045574      4.000000
 -0.070990  0.081360  0.041625      4.000000
 -0.042591  0.070083  0.037676      4.000000
 -0.015328  0.090609  0.035991      4.000000
  0.013071  0.079332  0.032041      4.000000
  0.041469  0.068056  0.028092      4.000000
  0.069868  0.056780  0.024143      4.000000
  0.098266  0.045503  0.020194      4.000000
 -0.100523  0.124438  0.047838      4.000000
 -0.072125  0.113162  0.043889      4.000000
 -0.043726  0.101885  0.039940      4.000000
 -0.008517 -0.100205  0.022409      4.000000
  0.019881 -0.111481  0.018460      4.000000
  0.048280 -0.122758  0.014511      4.000000
  0.076678 -0.134034  0.010562      4.000000
  0.105077 -0.145311  0.006613      4.000000
 -0.093713 -0.066376  0.034256      4.000000
 -0.065314 -0.077652  0.030307      4.000000
 -0.036916 -0.088928  0.026358      4.000000
 -0.009652 -0.068403  0.024673      4.000000
  0.018746 -0.079679  0.020724      4.000000
  0.047145 -0.090956  0.016774      4.000000
  0.075543 -0.102232  0.012825      4.000000
  0.103942 -0.113508  0.008876      4.000000
 -0.094848 -0.034573  0.036520      4.000000
 -0.066449 -0.045850  0.032571      4.000000
 -0.038051 -0.057126  0.028622      4.000000
 -0.010787 -0.036600  0.026936      2.000000
  0.017611 -0.047877  0.022987      4.000000
  0.046010 -0.059153  0.019038      4.000000
  0.074408 -0.070430  0.015089      4.000000
  0.102807 -0.081706  0.011140      2.000000
 -0.026115  0.054009  0.062927      2.000000
  0.002283  0.042732  0.058978      2.000000
  0.030682  0.031456  0.055029      2.000000
  0.059080  0.020179  0.051079      2.000000
  0.087479  0.008903  0.047130      2.000000
 -0.111311  0.087838  0.074774      2.000000
 -0.082912  0.076562  0.070825      2.000000
 -0.054514  0.065285  0.066876      2.000000
 -0.027251  0.085811  0.065190      4.000000
  0.001148  0.074534  0.061241      4.000000
  0.029546  0.063258  0.057292      4.000000
  0.057945  0.051981  0.053343      4.000000
  0.086343  0.040705  0.049394      4.000000
 -0.112446  0.119640  0.077038      4.000000
 -0.084048  0.108364  0.073089      4.000000
 -0.055649  0.097087  0.069140      4.000000
 -0.020440 -0.105003  0.051609      4.000000
  0.007959 -0.116279  0.047660      4.000000
  0.036357 -0.127556  0.043711      4.000000
  0.064756 -0.138832  0.039762      4.000000
  0.093154 -0.150109  0.035812      4.000000
 -0.105635 -0.071174  0.063456      4.000000
 -0.077237 -0.082450  0.059507      4.000000
 -0.048838 -0.093726  0.055558      4.000000
 -0.021575 -0.073201  0.053872      2.000000
  0.006824 -0.084477  0.049923      4.000000
  0.035222 -0.095754  0.045974      4.000000
  0.063621 -0.107030  0.042025      4.000000
  0.092019 -0.118306  0.038076      2.000000
 -0.039173  0.081013  0.094390      2.000000
 -0.010775  0.069736  0.090441      2.000000
  0.017624  0.058460  0.086492      2.000000
  0.046022  0.047183  0.082543      2.000000
  0.074421  0.035907  0.078594      2.000000
 -0.124369  0.114842  0.106238      2.000000
 -0.095970  0.103566  0.102288      2.000000
 -0.067572  0.092289  0.098339      2.000000
 -0.032362 -0.109801  0.080809      2.000000
 -0.003964 -0.121077  0.076860      4.000000
  0.024435 -0.132354  0.072910      4.000000
  0.052833 -0.143630  0.068961      4.000000
  0.081232 -0.154907  0.065012      2.000000
 
 TETIRR: Found    588 inequivalent tetrahedra from     2352


--------------------------------------------------------------------------------------------------------




 Dimension of arrays:
   k-points           NKPTS =    116   k-points in BZ     NKDIM =    116   number of bands    NBANDS=     32
   number of dos      NEDOS =    301   number of ions     NIONS =      9
   non local maximal  LDIM  =      4   non local SUM 2l+1 LMDIM =      8
   total plane-waves  NPLWV =  64000
   max r-space proj   IRMAX =   3969   max aug-charges    IRDMAX=   8366
   dimension x,y,z NGX =    40 NGY =   40 NGZ =   40
   dimension x,y,z NGXF=    80 NGYF=   80 NGZF=   80
   support grid    NGXF=    80 NGYF=   80 NGZF=   80
   ions per type =               1   8
   NGX,Y,Z   is equivalent  to a cutoff of  13.15, 13.01, 13.01 a.u.
   NGXF,Y,Z  is equivalent  to a cutoff of  26.30, 26.01, 26.01 a.u.

 SYSTEM =  unknown system                          
 POSCAR =  Li1 O8                                  

 Startparameter for this run:
   NWRITE =      2    write-flag & timer
   PREC   = accura    normal or accurate (medium, high low for compatibility)
   ISTART =      0    job   : 0-new  1-cont  2-samecut
   ICHARG =      2    charge: 1-file 2-atom 10-const
   ISPIN  =      2    spin polarized calculation?
   LNONCOLLINEAR =      F non collinear calculations
   LSORBIT =      F    spin-orbit coupling
   INIWAV =      1    electr: 0-lowe 1-rand  2-diag
   LASPH  =      T    aspherical Exc in radial PAW
   METAGGA=      F    non-selfconsistent MetaGGA calc.

 Electronic Relaxation 1
   ENCUT  =  520.0 eV  38.22 Ry    6.18 a.u.   9.40  9.51  9.51*2*pi/ulx,y,z
   ENINI  =  520.0     initial cutoff
   ENAUG  =  628.9 eV  augmentation charge cutoff
   NELM   =    100;   NELMIN=  2; NELMDL= -5     # of ELM steps 
   EDIFF  = 0.1E-04   stopping-criterion for ELM
   LREAL  =      T    real-space projection
   NLSPLINE    = F    spline interpolate recip. space projectors
   LCOMPAT=      F    compatible to vasp.4.4
   GGA_COMPAT  = T    GGA compatible to vasp.4.4-vasp.4.6
   LMAXPAW     = -100 max onsite density
   LMAXMIX     =    2 max onsite mixed and CHGCAR
   VOSKOWN=      0    Vosko Wilk Nusair interpolation
   ROPT   =   -0.00025  -0.00025
 Ionic relaxation
   EDIFFG = 0.1E-03   stopping-criterion for IOM
   NSW    =     99    number of steps for IOM
   NBLOCK =      1;   KBLOCK =     99    inner block; outer block 
   IBRION =      2    ionic relax: 0-MD 1-quasi-New 2-CG
   NFREE  =      1    steps in history (QN), initial steepest desc. (CG)
   ISIF   =      3    stress and relaxation
   IWAVPR =     11    prediction:  0-non 1-charg 2-wave 3-comb
   ISYM   =      2    0-nonsym 1-usesym 2-fastsym
   LCORR  =      T    Harris-Foulkes like correction to forces

   POTIM  = 0.5000    time-step for ionic-motion
   TEIN   =    0.0    initial temperature
   TEBEG  =    0.0;   TEEND  =   0.0 temperature during run
   SMASS  =  -3.00    Nose mass-parameter (am)
   estimated Nose-frequenzy (Omega)   =  0.10E-29 period in steps =****** mass=  -0.585E-27a.u.
   SCALEE = 1.0000    scale energy and forces
   NPACO  =    256;   APACO  = 16.0  distance and # of slots for P.C.
   PSTRESS=    0.0 pullay stress

  Mass of Ions in am
   POMASS =   7.01 16.00
  Ionic Valenz
   ZVAL   =   3.00  6.00
  Atomic Wigner-Seitz radii
   RWIGS  =  -1.00 -1.00
  virtual crystal weights 
   VCA    =   1.00  1.00
   NELECT =      51.0000    total number of electrons
   NUPDOWN=      -1.0000    fix difference up-down

 DOS related values:
   EMIN   =  10.00;   EMAX   =-10.00  energy-range for DOS
   EFERMI =   0.00
   ISMEAR =    -5;   SIGMA  =   0.05  broadening in eV -4-tet -1-fermi 0-gaus

 Electronic relaxation 2 (details)
   IALGO  =     68    algorithm
   LDIAG  =      T    sub-space diagonalisation (order eigenvalues)
   LSUBROT=      F    optimize rotation matrix (better conditioning)
   TURBO    =      0    0=normal 1=particle mesh
   IRESTART =      0    0=no restart 2=restart with 2 vectors
   NREBOOT  =      0    no. of reboots
   NMIN     =      0    reboot dimension
   EREF     =   0.00    reference energy to select bands
   IMIX   =      4    mixing-type and parameters
     AMIX     =   0.40;   BMIX     =  1.00
     AMIX_MAG =   1.60;   BMIX_MAG =  1.00
     AMIN     =   0.10
     WC   =   100.;   INIMIX=   1;  MIXPRE=   1;  MAXMIX= -45

 Intra band minimization:
   WEIMIN = 0.0010     energy-eigenvalue tresh-hold
   EBREAK =  0.78E-07  absolut break condition
   DEPER  =   0.30     relativ break condition  

   TIME   =   0.40     timestep for ELM

  volume/ion in A,a.u.               =      11.30        76.23
  Fermi-wavevector in a.u.,A,eV,Ry     =   1.300777  2.458112 23.021345  1.692021
  Thomas-Fermi vector in A             =   2.431954
 
 Write flags
   LWAVE        =      F    write WAVECAR
   LDOWNSAMPLE  =      F    k-point downsampling of WAVECAR
   LCHARG       =      F    write CHGCAR
   LVTOT        =      F    write LOCPOT, total local potential
   LVHAR        =      F    write LOCPOT, Hartree potential only
   LELF         =      F    write electronic localiz. function (ELF)
   LORBIT       =     11    0 simple, 1 ext, 2 COOP (PROOUT), +10 PAW based schemes


 Dipole corrections
   LMONO  =      F    monopole corrections only (constant potential shift)
   LDIPOL =      F    correct potential (dipole corrections)
   IDIPOL =      0    1-x, 2-y, 3-z, 4-all directions 
   EPSILON=  1.0000000 bulk dielectric constant

 Exchange correlation treatment:
   GGA     =    --    GGA type
   LEXCH   =     8    internal setting for exchange type
   VOSKOWN=      0    Vosko Wilk Nusair interpolation
   LHFCALC =     F    Hartree Fock is set to
   LHFONE  =     F    Hartree Fock one center treatment
   AEXX    =    0.0000 exact exchange contribution

 Linear response parameters
   LEPSILON=     F    determine dielectric tensor
   LRPA    =     F    only Hartree local field effects (RPA)
   LNABLA  =     F    use nabla operator in PAW spheres
   LVEL    =     F    velocity operator in full k-point grid
   LINTERFAST=   F  fast interpolation
   KINTER  =     0    interpolate to denser k-point grid
   CSHIFT  =0.1000    complex shift for real part using Kramers Kronig
   OMEGAMAX=  -1.0    maximum frequency
   DEG_THRESHOLD= 0.2000000E-02 threshold for treating states as degnerate
   RTIME   =   -0.100 relaxation time in fs
  (WPLASMAI=    0.000 imaginary part of plasma frequency in eV, 0.658/RTIME)
   DFIELD  = 0.0000000 0.0000000 0.0000000 field for delta impulse in time
 
 Orbital magnetization related:
   ORBITALMAG=     F  switch on orbital magnetization
   LCHIMAG   =     F  perturbation theory with respect to B field
   DQ        =  0.001000  dq finite difference perturbation B field
   LLRAUG    =     F  two centre corrections for induced B field



--------------------------------------------------------------------------------------------------------


 conjugate gradient relaxation of ions
 charge density and potential will be updated during run
 spin polarized calculation
 RMM-DIIS sequential band-by-band and
  variant of blocked Davidson during initial phase
 perform sub-space diagonalisation
    before iterative eigenvector-optimisation
 modified Broyden-mixing scheme, WC =      100.0
 initial mixing is a Kerker type mixing with AMIX =  0.4000 and BMIX =      1.0000
 Hartree-type preconditioning will be used
 using additional bands            6
 real space projection scheme for non local part
 use partial core corrections
 calculate Harris-corrections to forces 
   (improved forces if not selfconsistent)
 use gradient corrections 
 use of overlap-Matrix (Vanderbilt PP)
 Fermi weights with tetrahedron method with Bloechl corrections


--------------------------------------------------------------------------------------------------------


  energy-cutoff  :      520.00
  volume of cell :      101.67
      direct lattice vectors                 reciprocal lattice vectors
     4.680267000  0.030675000  1.916040000     0.227188000 -0.090211688 -0.031592899
     1.982558000  4.453103000  1.541215000    -0.007945853  0.222616075  0.015845164
     0.569716000 -0.340467000  5.069074000    -0.083458049 -0.033586022  0.204398763

  length of vectors
     5.057375745  5.112338626  5.112338537     0.246476464  0.223320672  0.223320669


 
 k-points in units of 2pi/SCALE and weight: Fully automatic kpoint scheme           
   0.00000000  0.00000000  0.00000000       0.003
   0.02839850 -0.01127646 -0.00394911       0.005
   0.05679700 -0.02255292 -0.00789822       0.005
   0.08519550 -0.03382938 -0.01184734       0.005
   0.11359400 -0.04510584 -0.01579645       0.003
  -0.00113512  0.03180230  0.00226359       0.010
   0.02726338  0.02052584 -0.00168552       0.010
   0.05566188  0.00924937 -0.00563463       0.010
   0.08406038 -0.00202709 -0.00958374       0.010
   0.11245888 -0.01330355 -0.01353285       0.010
  -0.08633062  0.06563168  0.01411093       0.010
  -0.05793212  0.05435522  0.01016182       0.010
  -0.02953362  0.04307876  0.00621271       0.010
  -0.00227024  0.06360459  0.00452719       0.010
   0.02612826  0.05232813  0.00057808       0.010
   0.05452676  0.04105167 -0.00337104       0.010
   0.08292526  0.02977521 -0.00732015       0.010
   0.11132376  0.01849875 -0.01126926       0.010
  -0.08746574  0.09743398  0.01637453       0.010
  -0.05906724  0.08615751  0.01242541       0.010
  -0.03066874  0.07488105  0.00847630       0.010
  -0.00340537  0.09540689  0.00679078       0.010
   0.02499313  0.08413043  0.00284167       0.010
   0.05339163  0.07285397 -0.00110744       0.010
   0.08179013  0.06157751 -0.00505655       0.010
   0.11018863  0.05030105 -0.00900566       0.010
  -0.08860087  0.12923627  0.01863812       0.010
  -0.06020237  0.11795981  0.01468901       0.010
  -0.03180387  0.10668335  0.01073990       0.010
  -0.01305770  0.02700429  0.03146342       0.005
   0.01534080  0.01572783  0.02751431       0.005
   0.04373930  0.00445137  0.02356519       0.005
   0.07213780 -0.00682509  0.01961608       0.005
   0.10053630 -0.01810155  0.01566697       0.005
  -0.09825320  0.06083368  0.04331076       0.005
  -0.06985470  0.04955722  0.03936164       0.005
  -0.04145620  0.03828075  0.03541253       0.005
  -0.01419282  0.05880659  0.03372701       0.010
   0.01420568  0.04753013  0.02977790       0.010
   0.04260418  0.03625367  0.02582879       0.010
   0.07100268  0.02497721  0.02187968       0.010
   0.09940118  0.01370075  0.01793056       0.010
  -0.09938832  0.09263597  0.04557435       0.010
  -0.07098982  0.08135951  0.04162524       0.010
  -0.04259132  0.07008305  0.03767613       0.010
  -0.01532794  0.09060889  0.03599061       0.010
   0.01307056  0.07933243  0.03204150       0.010
   0.04146906  0.06805596  0.02809238       0.010
   0.06986756  0.05677950  0.02414327       0.010
   0.09826606  0.04550304  0.02019416       0.010
  -0.10052344  0.12443827  0.04783794       0.010
  -0.07212494  0.11316181  0.04388883       0.010
  -0.04372644  0.10188535  0.03993972       0.010
  -0.00851721 -0.10020489  0.02240904       0.010
   0.01988129 -0.11148135  0.01845993       0.010
   0.04827979 -0.12275781  0.01451081       0.010
   0.07667829 -0.13403428  0.01056170       0.010
   0.10507679 -0.14531074  0.00661259       0.010
  -0.09371271 -0.06637551  0.03425638       0.010
  -0.06531421 -0.07765197  0.03030726       0.010
  -0.03691571 -0.08892843  0.02635815       0.010
  -0.00965233 -0.06840260  0.02467263       0.010
   0.01874617 -0.07967906  0.02072352       0.010
   0.04714467 -0.09095552  0.01677441       0.010
   0.07554317 -0.10223198  0.01282530       0.010
   0.10394167 -0.11350844  0.00887618       0.010
  -0.09484783 -0.03457321  0.03651997       0.010
  -0.06644933 -0.04584967  0.03257086       0.010
  -0.03805083 -0.05712614  0.02862175       0.010
  -0.01078746 -0.03660030  0.02693623       0.005
   0.01761104 -0.04787676  0.02298712       0.010
   0.04600954 -0.05915322  0.01903800       0.010
   0.07440804 -0.07042968  0.01508889       0.010
   0.10280654 -0.08170614  0.01113978       0.005
  -0.02611540  0.05400859  0.06292684       0.005
   0.00228310  0.04273213  0.05897772       0.005
   0.03068160  0.03145566  0.05502861       0.005
   0.05908010  0.02017920  0.05107950       0.005
   0.08747860  0.00890274  0.04713039       0.005
  -0.11131090  0.08783797  0.07477417       0.005
  -0.08291240  0.07656151  0.07082506       0.005
  -0.05451390  0.06528505  0.06687595       0.005
  -0.02725052  0.08581088  0.06519043       0.010
   0.00114798  0.07453442  0.06124132       0.010
   0.02954648  0.06325796  0.05729221       0.010
   0.05794498  0.05198150  0.05334309       0.010
   0.08634348  0.04070504  0.04939398       0.010
  -0.11244602  0.11964027  0.07703777       0.010
  -0.08404752  0.10836380  0.07308866       0.010
  -0.05564902  0.09708734  0.06913954       0.010
  -0.02043979 -0.10500290  0.05160886       0.010
   0.00795871 -0.11627936  0.04765975       0.010
   0.03635721 -0.12755582  0.04371064       0.010
   0.06475571 -0.13883228  0.03976153       0.010
   0.09315421 -0.15010874  0.03581241       0.010
  -0.10563529 -0.07117351  0.06345620       0.010
  -0.07723679 -0.08244997  0.05950709       0.010
  -0.04883829 -0.09372643  0.05555797       0.010
  -0.02157491 -0.07320060  0.05387246       0.005
   0.00682359 -0.08447706  0.04992334       0.010
   0.03522209 -0.09575352  0.04597423       0.010
   0.06362059 -0.10702998  0.04202512       0.010
   0.09201909 -0.11830644  0.03807601       0.005
  -0.03917310  0.08101288  0.09439025       0.005
  -0.01077460  0.06973642  0.09044114       0.005
   0.01762390  0.05845996  0.08649203       0.005
   0.04602240  0.04718350  0.08254292       0.005
   0.07442090  0.03590704  0.07859380       0.005
  -0.12436860  0.11484226  0.10623759       0.005
  -0.09597010  0.10356580  0.10228848       0.005
  -0.06757160  0.09228934  0.09833937       0.005
  -0.03236237 -0.10980090  0.08080869       0.005
  -0.00396387 -0.12107736  0.07685957       0.010
   0.02443463 -0.13235382  0.07291046       0.010
   0.05283313 -0.14363028  0.06896135       0.010
   0.08123163 -0.15490674  0.06501224       0.005
 
 k-points in reciprocal lattice and weights: Fully automatic kpoint scheme           
   0.00000000  0.00000000  0.00000000       0.003
   0.12500000 -0.00000000  0.00000000       0.005
   0.25000000 -0.00000000  0.00000000       0.005
   0.37500000 -0.00000000 -0.00000000       0.005
   0.50000000 -0.00000000  0.00000000       0.003
  -0.00000000  0.14285714  0.00000000       0.010
   0.12500000  0.14285714 -0.00000000       0.010
   0.25000000  0.14285714 -0.00000000       0.010
   0.37500000  0.14285714  0.00000000       0.010
   0.50000000  0.14285714  0.00000000       0.010
  -0.37500000  0.14285714  0.00000000       0.010
  -0.25000000  0.14285714  0.00000000       0.010
  -0.12500000  0.14285714  0.00000000       0.010
  -0.00000000  0.28571429  0.00000000       0.010
   0.12500000  0.28571429  0.00000000       0.010
   0.25000000  0.28571429 -0.00000000       0.010
   0.37500000  0.28571429 -0.00000000       0.010
   0.50000000  0.28571429  0.00000000       0.010
  -0.37500000  0.28571429  0.00000000       0.010
  -0.25000000  0.28571429  0.00000000       0.010
  -0.12500000  0.28571429  0.00000000       0.010
  -0.00000000  0.42857143 -0.00000000       0.010
   0.12500000  0.42857143 -0.00000000       0.010
   0.25000000  0.42857143 -0.00000000       0.010
   0.37500000  0.42857143 -0.00000000       0.010
   0.50000000  0.42857143  0.00000000       0.010
  -0.37500000  0.42857143  0.00000000       0.010
  -0.25000000  0.42857143  0.00000000       0.010
  -0.12500000  0.42857143  0.00000000       0.010
  -0.00000000  0.14285714  0.14285714       0.005
   0.12500000  0.14285714  0.14285714       0.005
   0.25000000  0.14285714  0.14285714       0.005
   0.37500000  0.14285714  0.14285714       0.005
   0.50000000  0.14285714  0.14285714       0.005
  -0.37500000  0.14285714  0.14285714       0.005
  -0.25000000  0.14285714  0.14285714       0.005
  -0.12500000  0.14285714  0.14285714       0.005
  -0.00000000  0.28571429  0.14285714       0.010
   0.12500000  0.28571429  0.14285714       0.010
   0.25000000  0.28571429  0.14285714       0.010
   0.37500000  0.28571429  0.14285714       0.010
   0.50000000  0.28571429  0.14285714       0.010
  -0.37500000  0.28571429  0.14285714       0.010
  -0.25000000  0.28571429  0.14285714       0.010
  -0.12500000  0.28571429  0.14285714       0.010
   0.00000000  0.42857143  0.14285714       0.010
   0.12500000  0.42857143  0.14285714       0.010
   0.25000000  0.42857143  0.14285714       0.010
   0.37500000  0.42857143  0.14285714       0.010
   0.50000000  0.42857143  0.14285714       0.010
  -0.37500000  0.42857143  0.14285714       0.010
  -0.25000000  0.42857143  0.14285714       0.010
  -0.12500000  0.42857143  0.14285714       0.010
  -0.00000000 -0.42857143  0.14285714       0.010
   0.12500000 -0.42857143  0.14285714       0.010
   0.25000000 -0.42857143  0.14285714       0.010
   0.37500000 -0.42857143  0.14285714       0.010
   0.50000000 -0.42857143  0.14285714       0.010
  -0.37500000 -0.42857143  0.14285714       0.010
  -0.25000000 -0.42857143  0.14285714       0.010
  -0.12500000 -0.42857143  0.14285714       0.010
   0.00000000 -0.28571429  0.14285714       0.010
   0.12500000 -0.28571429  0.14285714       0.010
   0.25000000 -0.28571429  0.14285714       0.010
   0.37500000 -0.28571429  0.14285714       0.010
   0.50000000 -0.28571429  0.14285714       0.010
  -0.37500000 -0.28571429  0.14285714       0.010
  -0.25000000 -0.28571429  0.14285714       0.010
  -0.12500000 -0.28571429  0.14285714       0.010
  -0.00000000 -0.14285714  0.14285714       0.005
   0.12500000 -0.14285714  0.14285714       0.010
   0.25000000 -0.14285714  0.14285714       0.010
   0.37500000 -0.14285714  0.14285714       0.010
   0.50000000 -0.14285714  0.14285714       0.005
  -0.00000000  0.28571429  0.28571429       0.005
   0.12500000  0.28571429  0.28571429       0.005
   0.25000000  0.28571429  0.28571429       0.005
   0.37500000  0.28571429  0.28571429       0.005
   0.50000000  0.28571429  0.28571429       0.005
  -0.37500000  0.28571429  0.28571429       0.005
  -0.25000000  0.28571429  0.28571429       0.005
  -0.12500000  0.28571429  0.28571429       0.005
  -0.00000000  0.42857143  0.28571429       0.010
   0.12500000  0.42857143  0.28571429       0.010
   0.25000000  0.42857143  0.28571429       0.010
   0.37500000  0.42857143  0.28571429       0.010
   0.50000000  0.42857143  0.28571429       0.010
  -0.37500000  0.42857143  0.28571429       0.010
  -0.25000000  0.42857143  0.28571429       0.010
  -0.12500000  0.42857143  0.28571429       0.010
   0.00000000 -0.42857143  0.28571429       0.010
   0.12500000 -0.42857143  0.28571429       0.010
   0.25000000 -0.42857143  0.28571429       0.010
   0.37500000 -0.42857143  0.28571429       0.010
   0.50000000 -0.42857143  0.28571429       0.010
  -0.37500000 -0.42857143  0.28571429       0.010
  -0.25000000 -0.42857143  0.28571429       0.010
  -0.12500000 -0.42857143  0.28571429       0.010
  -0.00000000 -0.28571429  0.28571429       0.005
   0.12500000 -0.28571429  0.28571429       0.010
   0.25000000 -0.28571429  0.28571429       0.010
   0.37500000 -0.28571429  0.28571429       0.010
   0.50000000 -0.28571429  0.28571429       0.005
  -0.00000000  0.42857143  0.42857143       0.005
   0.12500000  0.42857143  0.42857143       0.005
   0.25000000  0.42857143  0.42857143       0.005
   0.37500000  0.42857143  0.42857143       0.005
   0.50000000  0.42857143  0.42857143       0.005
  -0.37500000  0.42857143  0.42857143       0.005
  -0.25000000  0.42857143  0.42857143       0.005
  -0.12500000  0.42857143  0.42857143       0.005
   0.00000000 -0.42857143  0.42857143       0.005
   0.12500000 -0.42857143  0.42857143       0.010
   0.25000000 -0.42857143  0.42857143       0.010
   0.37500000 -0.42857143  0.42857143       0.010
   0.50000000 -0.42857143  0.42857143       0.005
 
 position of ions in fractional coordinates (direct lattice) 
   0.49553000  0.80370600  0.80370600
   0.84209800  0.33335800  0.82039300
   0.15060000  0.23329700  0.69961700
   0.15060000  0.69961700  0.23329700
   0.84209800  0.82039300  0.33335800
   0.83801700  0.25582200  0.25582200
   0.15371300  0.74122500  0.74122500
   0.14205900  0.15254900  0.15254900
   0.84361800  0.86479500  0.86479500
 
 position of ions in cartesian coordinates  (Angst):
   4.37049063  3.32055061  6.26218423
   5.06953607  1.23099212  6.28590263
   1.56595604  0.80531872  4.19452680
   2.22479252  3.04065629  2.54941560
   5.75763957  3.56562849  4.56771182
   4.57507115  1.07780894  3.29673145
   2.61122718  3.05310377  5.19423172
   1.05422090  0.63173617  1.28058370
   6.15555128  3.58246503  7.33295071
 


--------------------------------------------------------------------------------------------------------


 k-point  1 :   0.0000 0.0000 0.0000  plane waves:    2765
 k-point  2 :   0.1250-0.0000 0.0000  plane waves:    2759
 k-point  3 :   0.2500-0.0000 0.0000  plane waves:    2746
 k-point  4 :   0.3750-0.0000-0.0000  plane waves:    2743
 k-point  5 :   0.5000-0.0000 0.0000  plane waves:    2748
 k-point  6 :  -0.0000 0.1429 0.0000  plane waves:    2749
 k-point  7 :   0.1250 0.1429-0.0000  plane waves:    2755
 k-point  8 :   0.2500 0.1429-0.0000  plane waves:    2749
 k-point  9 :   0.3750 0.1429 0.0000  plane waves:    2743
 k-point 10 :   0.5000 0.1429 0.0000  plane waves:    2741
 k-point 11 :  -0.3750 0.1429 0.0000  plane waves:    2737
 k-point 12 :  -0.2500 0.1429 0.0000  plane waves:    2740
 k-point 13 :  -0.1250 0.1429 0.0000  plane waves:    2742
 k-point 14 :  -0.0000 0.2857 0.0000  plane waves:    2754
 k-point 15 :   0.1250 0.2857 0.0000  plane waves:    2745
 k-point 16 :   0.2500 0.2857-0.0000  plane waves:    2741
 k-point 17 :   0.3750 0.2857-0.0000  plane waves:    2738
 k-point 18 :   0.5000 0.2857 0.0000  plane waves:    2735
 k-point 19 :  -0.3750 0.2857 0.0000  plane waves:    2733
 k-point 20 :  -0.2500 0.2857 0.0000  plane waves:    2737
 k-point 21 :  -0.1250 0.2857 0.0000  plane waves:    2749
 k-point 22 :  -0.0000 0.4286-0.0000  plane waves:    2739
 k-point 23 :   0.1250 0.4286-0.0000  plane waves:    2740
 k-point 24 :   0.2500 0.4286-0.0000  plane waves:    2736
 k-point 25 :   0.3750 0.4286-0.0000  plane waves:    2728
 k-point 26 :   0.5000 0.4286 0.0000  plane waves:    2733
 k-point 27 :  -0.3750 0.4286 0.0000  plane waves:    2738
 k-point 28 :  -0.2500 0.4286 0.0000  plane waves:    2727
 k-point 29 :  -0.1250 0.4286 0.0000  plane waves:    2739
 k-point 30 :  -0.0000 0.1429 0.1429  plane waves:    2748
 k-point 31 :   0.1250 0.1429 0.1429  plane waves:    2753
 k-point 32 :   0.2500 0.1429 0.1429  plane waves:    2751
 k-point 33 :   0.3750 0.1429 0.1429  plane waves:    2749
 k-point 34 :   0.5000 0.1429 0.1429  plane waves:    2736
 k-point 35 :  -0.3750 0.1429 0.1429  plane waves:    2741
 k-point 36 :  -0.2500 0.1429 0.1429  plane waves:    2733
 k-point 37 :  -0.1250 0.1429 0.1429  plane waves:    2741
 k-point 38 :  -0.0000 0.2857 0.1429  plane waves:    2748
 k-point 39 :   0.1250 0.2857 0.1429  plane waves:    2749
 k-point 40 :   0.2500 0.2857 0.1429  plane waves:    2750
 k-point 41 :   0.3750 0.2857 0.1429  plane waves:    2737
 k-point 42 :   0.5000 0.2857 0.1429  plane waves:    2735
 k-point 43 :  -0.3750 0.2857 0.1429  plane waves:    2741
 k-point 44 :  -0.2500 0.2857 0.1429  plane waves:    2741
 k-point 45 :  -0.1250 0.2857 0.1429  plane waves:    2734
 k-point 46 :   0.0000 0.4286 0.1429  plane waves:    2736
 k-point 47 :   0.1250 0.4286 0.1429  plane waves:    2744
 k-point 48 :   0.2500 0.4286 0.1429  plane waves:    2743
 k-point 49 :   0.3750 0.4286 0.1429  plane waves:    2725
 k-point 50 :   0.5000 0.4286 0.1429  plane waves:    2735
 k-point 51 :  -0.3750 0.4286 0.1429  plane waves:    2737
 k-point 52 :  -0.2500 0.4286 0.1429  plane waves:    2733
 k-point 53 :  -0.1250 0.4286 0.1429  plane waves:    2732
 k-point 54 :  -0.0000-0.4286 0.1429  plane waves:    2736
 k-point 55 :   0.1250-0.4286 0.1429  plane waves:    2740
 k-point 56 :   0.2500-0.4286 0.1429  plane waves:    2739
 k-point 57 :   0.3750-0.4286 0.1429  plane waves:    2734
 k-point 58 :   0.5000-0.4286 0.1429  plane waves:    2733
 k-point 59 :  -0.3750-0.4286 0.1429  plane waves:    2731
 k-point 60 :  -0.2500-0.4286 0.1429  plane waves:    2733
 k-point 61 :  -0.1250-0.4286 0.1429  plane waves:    2731
 k-point 62 :   0.0000-0.2857 0.1429  plane waves:    2748
 k-point 63 :   0.1250-0.2857 0.1429  plane waves:    2742
 k-point 64 :   0.2500-0.2857 0.1429  plane waves:    2730
 k-point 65 :   0.3750-0.2857 0.1429  plane waves:    2734
 k-point 66 :   0.5000-0.2857 0.1429  plane waves:    2737
 k-point 67 :  -0.3750-0.2857 0.1429  plane waves:    2730
 k-point 68 :  -0.2500-0.2857 0.1429  plane waves:    2737
 k-point 69 :  -0.1250-0.2857 0.1429  plane waves:    2745
 k-point 70 :  -0.0000-0.1429 0.1429  plane waves:    2753
 k-point 71 :   0.1250-0.1429 0.1429  plane waves:    2749
 k-point 72 :   0.2500-0.1429 0.1429  plane waves:    2739
 k-point 73 :   0.3750-0.1429 0.1429  plane waves:    2741
 k-point 74 :   0.5000-0.1429 0.1429  plane waves:    2736
 k-point 75 :  -0.0000 0.2857 0.2857  plane waves:    2739
 k-point 76 :   0.1250 0.2857 0.2857  plane waves:    2745
 k-point 77 :   0.2500 0.2857 0.2857  plane waves:    2753
 k-point 78 :   0.3750 0.2857 0.2857  plane waves:    2739
 k-point 79 :   0.5000 0.2857 0.2857  plane waves:    2726
 k-point 80 :  -0.3750 0.2857 0.2857  plane waves:    2727
 k-point 81 :  -0.2500 0.2857 0.2857  plane waves:    2750
 k-point 82 :  -0.1250 0.2857 0.2857  plane waves:    2739
 k-point 83 :  -0.0000 0.4286 0.2857  plane waves:    2734
 k-point 84 :   0.1250 0.4286 0.2857  plane waves:    2739
 k-point 85 :   0.2500 0.4286 0.2857  plane waves:    2743
 k-point 86 :   0.3750 0.4286 0.2857  plane waves:    2728
 k-point 87 :   0.5000 0.4286 0.2857  plane waves:    2734
 k-point 88 :  -0.3750 0.4286 0.2857  plane waves:    2736
 k-point 89 :  -0.2500 0.4286 0.2857  plane waves:    2740
 k-point 90 :  -0.1250 0.4286 0.2857  plane waves:    2741
 k-point 91 :   0.0000-0.4286 0.2857  plane waves:    2733
 k-point 92 :   0.1250-0.4286 0.2857  plane waves:    2730
 k-point 93 :   0.2500-0.4286 0.2857  plane waves:    2739
 k-point 94 :   0.3750-0.4286 0.2857  plane waves:    2732
 k-point 95 :   0.5000-0.4286 0.2857  plane waves:    2726
 k-point 96 :  -0.3750-0.4286 0.2857  plane waves:    2732
 k-point 97 :  -0.2500-0.4286 0.2857  plane waves:    2733
 k-point 98 :  -0.1250-0.4286 0.2857  plane waves:    2731
 k-point 99 :  -0.0000-0.2857 0.2857  plane waves:    2741
 k-point ** :   0.1250-0.2857 0.2857  plane waves:    2738
 k-point ** :   0.2500-0.2857 0.2857  plane waves:    2733
 k-point ** :   0.3750-0.2857 0.2857  plane waves:    2730
 k-point ** :   0.5000-0.2857 0.2857  plane waves:    2744
 k-point ** :  -0.0000 0.4286 0.4286  plane waves:    2727
 k-point ** :   0.1250 0.4286 0.4286  plane waves:    2726
 k-point ** :   0.2500 0.4286 0.4286  plane waves:    2741
 k-point ** :   0.3750 0.4286 0.4286  plane waves:    2726
 k-point ** :   0.5000 0.4286 0.4286  plane waves:    2727
 k-point ** :  -0.3750 0.4286 0.4286  plane waves:    2723
 k-point ** :  -0.2500 0.4286 0.4286  plane waves:    2726
 k-point ** :  -0.1250 0.4286 0.4286  plane waves:    2723
 k-point ** :   0.0000-0.4286 0.4286  plane waves:    2738
 k-point ** :   0.1250-0.4286 0.4286  plane waves:    2727
 k-point ** :   0.2500-0.4286 0.4286  plane waves:    2727
 k-point ** :   0.3750-0.4286 0.4286  plane waves:    2734
 k-point ** :   0.5000-0.4286 0.4286  plane waves:    2726

 maximum and minimum number of plane-waves per node :       478      420

 maximum number of plane-waves:      2765
 maximum index in each direction: 
   IXMAX=    9   IYMAX=    9   IZMAX=    9
   IXMIN=   -9   IYMIN=   -9   IZMIN=   -9


 real space projection operators:
  total allocation   :       2027.40 KBytes
  max/ min on nodes  :        380.20        260.09


 parallel 3D FFT for wavefunctions:
    minimum data exchange during FFTs selected (reduces bandwidth)
 parallel 3D FFT for charge:
    minimum data exchange during FFTs selected (reduces bandwidth)


 total amount of memory used by VASP MPI-rank0    49961. kBytes
=======================================================================

   base      :      30000. kBytes
   nonlr-proj:       1053. kBytes
   fftplans  :       1174. kBytes
   grid      :       2993. kBytes
   one-center:         12. kBytes
   wavefun   :      14729. kBytes
 
     INWAV:  cpu time    0.0004: real time    0.0001
 Broyden mixing: mesh for mixing (old mesh)
   NGX = 19   NGY = 19   NGZ = 19
  (NGX  = 80   NGY  = 80   NGZ  = 80)
  gives a total of   6859 points

 initial charge density was supplied:
 charge density of overlapping atoms calculated
 number of electron      51.0000000 magnetization       0.0000000
 keeping initial charge density in first step


--------------------------------------------------------------------------------------------------------


 Maximum index for non-local projection operator          720
 Maximum index for augmentation-charges          472 (set IRDMAX)


--------------------------------------------------------------------------------------------------------


 First call to EWALD:  gamma=   0.380
 Maximum number of real-space cells 3x 3x 3
 Maximum number of reciprocal cells 3x 3x 3

    FEWALD:  cpu time    0.0040: real time    0.0084


--------------------------------------- Iteration      1(   1)  ---------------------------------------


    POTLOK:  cpu time    0.0459: real time    0.0817
    SETDIJ:  cpu time    0.2223: real time    0.2319
     EDDAV:  cpu time    3.9019: real time    4.0306
 BZINTS: Fermi energy: 15.395622; 51.000000 electrons
         Band energy:-150.314377;  BLOECHL correction: -0.320285
       DOS:  cpu time    0.0740: real time    0.0778
    --------------------------------------------
      LOOP:  cpu time    4.2441: real time    4.4220

 eigenvalue-minimisations  : 14864
 total energy-change (2. order) : 0.3746124E+03  (-0.2815241E+04)
 number of electron      51.0000000 magnetization       0.0000000
 augmentation part       51.0000000 magnetization       0.0000000

 Free energy of the ion-electron system (eV)
  ---------------------------------------------------
  alpha Z        PSCENC =        96.78760010
  Ewald energy   TEWEN  =     -2171.04202174
  -Hartree energ DENC   =     -1265.06697857
  -exchange      EXHF   =         0.00000000
  -V(xc)+E(xc)   XCENC  =       232.40624729
  PAW double counting   =      2852.15742954    -2881.95223558
  entropy T*S    EENTRO =         0.00000000
  eigenvalues    EBANDS =      -150.31437672
  atomic energy  EATOM  =      3661.63673913
  Solvation  Ediel_sol  =         0.00000000
  ---------------------------------------------------
  free energy    TOTEN  =       374.61240344 eV

  energy without entropy =      374.61240344  energy(sigma->0) =      374.61240344


--------------------------------------------------------------------------------------------------------




--------------------------------------- Iteration      1(   2)  ---------------------------------------


     EDDAV:  cpu time    4.9292: real time    4.9367
 BZINTS: Fermi energy:  0.737277; 51.000000 electrons
         Band energy:-544.712626;  BLOECHL correction: -0.033307
       DOS:  cpu time    0.0717: real time    0.0717
    --------------------------------------------
      LOOP:  cpu time    5.0009: real time    5.0085

 eigenvalue-minimisations  : 20448
 total energy-change (2. order) :-0.3943982E+03  (-0.3831622E+03)
 number of electron      51.0000000 magnetization       0.0000000
 augmentation part       51.0000000 magnetization       0.0000000

 Free energy of the ion-electron system (eV)
  ---------------------------------------------------
  alpha Z        PSCENC =        96.78760010
  Ewald energy   TEWEN  =     -2171.04202174
  -Hartree energ DENC   =     -1265.06697857
  -exchange      EXHF   =         0.00000000
  -V(xc)+E(xc)   XCENC  =       232.40624729
  PAW double counting   =      2852.15742954    -2881.95223558
  entropy T*S    EENTRO =         0.00000000
  eigenvalues    EBANDS =      -544.71262644
  atomic energy  EATOM  =      3661.63673913
  Solvation  Ediel_sol  =         0.00000000
  ---------------------------------------------------
  free energy    TOTEN  =       -19.78584628 eV

  energy without entropy =      -19.78584628  energy(sigma->0) =      -19.78584628


--------------------------------------------------------------------------------------------------------




--------------------------------------- Iteration      1(   3)  ---------------------------------------


     EDDAV:  cpu time    5.2448: real time    5.2507
 BZINTS: Fermi energy:  0.148620; 51.000000 electrons
         Band energy:-569.520087;  BLOECHL correction: -0.022273
       DOS:  cpu time    0.0661: real time    0.0661
    --------------------------------------------
      LOOP:  cpu time    5.3109: real time    5.3168

 eigenvalue-minimisations  : 21952
 total energy-change (2. order) :-0.2480746E+02  (-0.2461754E+02)
 number of electron      51.0000000 magnetization       0.0000000
 augmentation part       51.0000000 magnetization       0.0000000

 Free energy of the ion-electron system (eV)
  ---------------------------------------------------
  alpha Z        PSCENC =        96.78760010
  Ewald energy   TEWEN  =     -2171.04202174
  -Hartree energ DENC   =     -1265.06697857
  -exchange      EXHF   =         0.00000000
  -V(xc)+E(xc)   XCENC  =       232.40624729
  PAW double counting   =      2852.15742954    -2881.95223558
  entropy T*S    EENTRO =         0.00000000
  eigenvalues    EBANDS =      -569.52008726
  atomic energy  EATOM  =      3661.63673913
  Solvation  Ediel_sol  =         0.00000000
  ---------------------------------------------------
  free energy    TOTEN  =       -44.59330710 eV

  energy without entropy =      -44.59330710  energy(sigma->0) =      -44.59330710


--------------------------------------------------------------------------------------------------------




--------------------------------------- Iteration      1(   4)  ---------------------------------------


     EDDAV:  cpu time    5.9575: real time    5.9613
 BZINTS: Fermi energy:  0.138838; 51.000000 electrons
         Band energy:-570.479446;  BLOECHL correction: -0.022389
       DOS:  cpu time    0.0625: real time    0.0625
    --------------------------------------------
      LOOP:  cpu time    6.0200: real time    6.0238

 eigenvalue-minimisations  : 25576
 total energy-change (2. order) :-0.9593589E+00  (-0.9564853E+00)
 number of electron      51.0000000 magnetization       0.0000000
 augmentation part       51.0000000 magnetization       0.0000000

 Free energy of the ion-electron system (eV)
  ---------------------------------------------------
  alpha Z        PSCENC =        96.78760010
  Ewald energy   TEWEN  =     -2171.04202174
  -Hartree energ DENC   =     -1265.06697857
  -exchange      EXHF   =         0.00000000
  -V(xc)+E(xc)   XCENC  =       232.40624729
  PAW double counting   =      2852.15742954    -2881.95223558
  entropy T*S    EENTRO =         0.00000000
  eigenvalues    EBANDS =      -570.47944612
  atomic energy  EATOM  =      3661.63673913
  Solvation  Ediel_sol  =         0.00000000
  ---------------------------------------------------
  free energy    TOTEN  =       -45.55266596 eV

  energy without entropy =      -45.55266596  energy(sigma->0) =      -45.55266596


--------------------------------------------------------------------------------------------------------




--------------------------------------- Iteration      1(   5)  ---------------------------------------


     EDDAV:  cpu time    4.8404: real time    4.8439
 BZINTS: Fermi energy:  0.138667; 51.000000 electrons
         Band energy:-570.570735;  BLOECHL correction: -0.022390
       DOS:  cpu time    0.0604: real time    0.0604
    CHARGE:  cpu time    0.2266: real time    0.2391
    MIXING:  cpu time    0.0051: real time    0.0115
    --------------------------------------------
      LOOP:  cpu time    5.1325: real time    5.1549

 eigenvalue-minimisations  : 20144
 total energy-change (2. order) :-0.9128886E-01  (-0.9128808E-01)
 number of electron      51.0000002 magnetization      -0.0000002
 augmentation part        5.7017389 magnetization      -0.0000095

 Broyden mixing:
  rms(total) = 0.10238E+01    rms(broyden)= 0.10225E+01
  rms(prec ) = 0.17956E+01
  weight for this iteration     100.00

 Free energy of the ion-electron system (eV)
  ---------------------------------------------------
  alpha Z        PSCENC =        96.78760010
  Ewald energy   TEWEN  =     -2171.04202174
  -Hartree energ DENC   =     -1265.06697857
  -exchange      EXHF   =         0.00000000
  -V(xc)+E(xc)   XCENC  =       232.40624729
  PAW double counting   =      2852.15742954    -2881.95223558
  entropy T*S    EENTRO =         0.00000000
  eigenvalues    EBANDS =      -570.57073498
  atomic energy  EATOM  =      3661.63673913
  Solvation  Ediel_sol  =         0.00000000
  ---------------------------------------------------
  free energy    TOTEN  =       -45.64395482 eV

  energy without entropy =      -45.64395482  energy(sigma->0) =      -45.64395482


--------------------------------------------------------------------------------------------------------




--------------------------------------- Iteration      1(   6)  ---------------------------------------


    POTLOK:  cpu time    0.0291: real time    0.0292
    SETDIJ:  cpu time    0.2418: real time    0.2419
    EDDIAG:  cpu time    0.8060: real time    0.8117
  RMM-DIIS:  cpu time    2.3321: real time    2.3354
    ORTHCH:  cpu time    0.0763: real time    0.0763
 BZINTS: Fermi energy:  0.765345; 51.000000 electrons
         Band energy:-559.300904;  BLOECHL correction: -0.017974
       DOS:  cpu time    0.0621: real time    0.0621
    CHARGE:  cpu time    0.2208: real time    0.2209
    MIXING:  cpu time    0.0018: real time    0.0051
    --------------------------------------------
      LOOP:  cpu time    3.7700: real time    3.7827

 eigenvalue-minimisations  : 14848
 total energy-change (2. order) : 0.6301315E+00  (-0.2885607E+00)
 number of electron      51.0000003 magnetization       0.0000054
 augmentation part        5.6378112 magnetization      -0.0000052

 Broyden mixing:
  rms(total) = 0.95004E+00    rms(broyden)= 0.94886E+00
  rms(prec ) = 0.21054E+01
  weight for this iteration     100.00

 eigenvalues of (default mixing * dielectric matrix)
  average eigenvalue GAMMA=   0.5613
  0.5613

 Free energy of the ion-electron system (eV)
  ---------------------------------------------------
  alpha Z        PSCENC =        96.78760010
  Ewald energy   TEWEN  =     -2171.04202174
  -Hartree energ DENC   =     -1276.58716593
  -exchange      EXHF   =         0.00000000
  -V(xc)+E(xc)   XCENC  =       233.70381272
  PAW double counting   =      3146.62040446    -3176.83228796
  entropy T*S    EENTRO =         0.00000000
  eigenvalues    EBANDS =      -559.30090415
  atomic energy  EATOM  =      3661.63673913
  Solvation  Ediel_sol  =         0.00000000
  ---------------------------------------------------
  free energy    TOTEN  =       -45.01382337 eV

  energy without entropy =      -45.01382337  energy(sigma->0) =      -45.01382337


--------------------------------------------------------------------------------------------------------




--------------------------------------- Iteration      1(   7)  ---------------------------------------


    POTLOK:  cpu time    0.0286: real time    0.0288
    SETDIJ:  cpu time    0.2418: real time    0.2420
    EDDIAG:  cpu time    0.8023: real time    0.8027
  RMM-DIIS:  cpu time    2.4314: real time    2.4337
    ORTHCH:  cpu time    0.0762: real time    0.0762
 BZINTS: Fermi energy:  0.573538; 51.000000 electrons
         Band energy:-556.456212;  BLOECHL correction: -0.023051
       DOS:  cpu time    0.0603: real time    0.0603
    CHARGE:  cpu time    0.2215: real time    0.2216
    MIXING:  cpu time    0.0010: real time    0.0007
    --------------------------------------------
      LOOP:  cpu time    3.8630: real time    3.8659

 eigenvalue-minimisations  : 15080
 total energy-change (2. order) : 0.7129112E+00  (-0.9994238E-01)
 number of electron      51.0000002 magnetization       0.0000076
 augmentation part        5.5968123 magnetization       0.0000090

 Broyden mixing:
  rms(total) = 0.48711E+00    rms(broyden)= 0.48571E+00
  rms(prec ) = 0.94908E+00
  weight for this iteration     100.00

 eigenvalues of (default mixing * dielectric matrix)
  average eigenvalue GAMMA=   1.0971
  1.8753  0.3188

 Free energy of the ion-electron system (eV)
  ---------------------------------------------------
  alpha Z        PSCENC =        96.78760010
  Ewald energy   TEWEN  =     -2171.04202174
  -Hartree energ DENC   =     -1278.92798185
  -exchange      EXHF   =         0.00000000
  -V(xc)+E(xc)   XCENC  =       233.96232771
  PAW double counting   =      3225.63760723    -3255.89897116
  entropy T*S    EENTRO =         0.00000000
  eigenvalues    EBANDS =      -556.45621156
  atomic energy  EATOM  =      3661.63673913
  Solvation  Ediel_sol  =         0.00000000
  ---------------------------------------------------
  free energy    TOTEN  =       -44.30091214 eV

  energy without entropy =      -44.30091214  energy(sigma->0) =      -44.30091214


--------------------------------------------------------------------------------------------------------




--------------------------------------- Iteration      1(   8)  ---------------------------------------


    POTLOK:  cpu time    0.0289: real time    0.0296
    SETDIJ:  cpu time    0.2419: real time    0.2420
    EDDIAG:  cpu time    0.8057: real time    0.8065
  RMM-DIIS:  cpu time    2.4273: real time    2.4285
    ORTHCH:  cpu time    0.0759: real time    0.0759
 BZINTS: Fermi energy:  0.897258; 51.000000 electrons
         Band energy:-550.749425;  BLOECHL correction: -0.025723
       DOS:  cpu time    0.0570: real time    0.0571
    CHARGE:  cpu time    0.2211: real time    0.2212
    MIXING:  cpu time    0.0007: real time    0.0007
    --------------------------------------------
      LOOP:  cpu time    3.8586: real time    3.8616

 eigenvalue-minimisations  : 15080
 total energy-change (2. order) : 0.1908007E+00  (-0.7004835E-01)
 number of electron      51.0000002 magnetization       0.0000087
 augmentation part        5.5563121 magnetization       0.0000069

 Broyden mixing:
  rms(total) = 0.23912E+00    rms(broyden)= 0.23881E+00
  rms(prec ) = 0.51673E+00
  weight for this iteration     100.00

 eigenvalues of (default mixing * dielectric matrix)
  average eigenvalue GAMMA=   0.9257
  1.9971  0.4600  0.3199

 Free energy of the ion-electron system (eV)
  ---------------------------------------------------
  alpha Z        PSCENC =        96.78760010
  Ewald energy   TEWEN  =     -2171.04202174
  -Hartree energ DENC   =     -1285.11508602
  -exchange      EXHF   =         0.00000000
  -V(xc)+E(xc)   XCENC  =       234.70814160
  PAW double counting   =      3487.84917070    -3518.18523065
  entropy T*S    EENTRO =         0.00000000
  eigenvalues    EBANDS =      -550.74942459
  atomic energy  EATOM  =      3661.63673913
  Solvation  Ediel_sol  =         0.00000000
  ---------------------------------------------------
  free energy    TOTEN  =       -44.11011147 eV

  energy without entropy =      -44.11011147  energy(sigma->0) =      -44.11011147


--------------------------------------------------------------------------------------------------------




--------------------------------------- Iteration      1(   9)  ---------------------------------------


    POTLOK:  cpu time    0.0289: real time    0.0293
    SETDIJ:  cpu time    0.2413: real time    0.2417
    EDDIAG:  cpu time    0.8026: real time    0.8030
  RMM-DIIS:  cpu time    2.4299: real time    2.4311
    ORTHCH:  cpu time    0.0758: real time    0.0759
 BZINTS: Fermi energy:  0.882724; 51.000000 electrons
         Band energy:-550.172201;  BLOECHL correction: -0.023928
       DOS:  cpu time    0.0604: real time    0.0604
    CHARGE:  cpu time    0.2208: real time    0.2209
    MIXING:  cpu time    0.0008: real time    0.0008
    --------------------------------------------
      LOOP:  cpu time    3.8605: real time    3.8630

 eigenvalue-minimisations  : 15092
 total energy-change (2. order) : 0.2793234E-01  (-0.8615879E-02)
 number of electron      51.0000002 magnetization       0.0000083
 augmentation part        5.5497215 magnetization       0.0000044

 Broyden mixing:
  rms(total) = 0.16480E+00    rms(broyden)= 0.16449E+00
  rms(prec ) = 0.37947E+00
  weight for this iteration     100.00

 eigenvalues of (default mixing * dielectric matrix)
  average eigenvalue GAMMA=   0.8416
  2.0439  0.7343  0.3033  0.2850

 Free energy of the ion-electron system (eV)
  ---------------------------------------------------
  alpha Z        PSCENC =        96.78760010
  Ewald energy   TEWEN  =     -2171.04202174
  -Hartree energ DENC   =     -1285.77296690
  -exchange      EXHF   =         0.00000000
  -V(xc)+E(xc)   XCENC  =       234.78714811
  PAW double counting   =      3534.34518542    -3564.65166226
  entropy T*S    EENTRO =         0.00000000
  eigenvalues    EBANDS =      -550.17220100
  atomic energy  EATOM  =      3661.63673913
  Solvation  Ediel_sol  =         0.00000000
  ---------------------------------------------------
  free energy    TOTEN  =       -44.08217913 eV

  energy without entropy =      -44.08217913  energy(sigma->0) =      -44.08217913


--------------------------------------------------------------------------------------------------------




--------------------------------------- Iteration      1(  10)  ---------------------------------------


    POTLOK:  cpu time    0.0288: real time    0.0288
    SETDIJ:  cpu time    0.2416: real time    0.2417
    EDDIAG:  cpu time    0.8022: real time    0.8026
  RMM-DIIS:  cpu time    2.4398: real time    2.4414
    ORTHCH:  cpu time    0.0759: real time    0.0760
 BZINTS: Fermi energy:  0.898409; 51.000000 electrons
         Band energy:-550.123323;  BLOECHL correction: -0.025168
       DOS:  cpu time    0.0570: real time    0.0571
    CHARGE:  cpu time    0.2206: real time    0.2207
    MIXING:  cpu time    0.0008: real time    0.0008
    --------------------------------------------
      LOOP:  cpu time    3.8666: real time    3.8690

 eigenvalue-minimisations  : 15269
 total energy-change (2. order) : 0.1775607E-01  (-0.2317319E-02)
 number of electron      51.0000002 magnetization       0.0000065
 augmentation part        5.5489764 magnetization       0.0000007

 Broyden mixing:
  rms(total) = 0.67147E-01    rms(broyden)= 0.67025E-01
  rms(prec ) = 0.10403E+00
  weight for this iteration     100.00

 eigenvalues of (default mixing * dielectric matrix)
  average eigenvalue GAMMA=   1.0373
  2.3336  1.7705  0.5299  0.3182  0.2342

 Free energy of the ion-electron system (eV)
  ---------------------------------------------------
  alpha Z        PSCENC =        96.78760010
  Ewald energy   TEWEN  =     -2171.04202174
  -Hartree energ DENC   =     -1285.84776339
  -exchange      EXHF   =         0.00000000
  -V(xc)+E(xc)   XCENC  =       234.79534600
  PAW double counting   =      3555.25535261    -3585.52635259
  entropy T*S    EENTRO =         0.00000000
  eigenvalues    EBANDS =      -550.12332318
  atomic energy  EATOM  =      3661.63673913
  Solvation  Ediel_sol  =         0.00000000
  ---------------------------------------------------
  free energy    TOTEN  =       -44.06442306 eV

  energy without entropy =      -44.06442306  energy(sigma->0) =      -44.06442306


--------------------------------------------------------------------------------------------------------




--------------------------------------- Iteration      1(  11)  ---------------------------------------


    POTLOK:  cpu time    0.0288: real time    0.0288
    SETDIJ:  cpu time    0.2419: real time    0.2420
    EDDIAG:  cpu time    0.8031: real time    0.8039
  RMM-DIIS:  cpu time    2.2942: real time    2.2956
    ORTHCH:  cpu time    0.0759: real time    0.0760
 BZINTS: Fermi energy:  0.904988; 51.000000 electrons
         Band energy:-550.219900;  BLOECHL correction: -0.025422
       DOS:  cpu time    0.0619: real time    0.0620
    CHARGE:  cpu time    0.2210: real time    0.2211
    MIXING:  cpu time    0.0008: real time    0.0008
    --------------------------------------------
      LOOP:  cpu time    3.7277: real time    3.7302

 eigenvalue-minimisations  : 14861
 total energy-change (2. order) :-0.1685703E-02  (-0.1191447E-02)
 number of electron      51.0000002 magnetization       0.0000038
 augmentation part        5.5544480 magnetization       0.0000009

 Broyden mixing:
  rms(total) = 0.25923E-01    rms(broyden)= 0.25884E-01
  rms(prec ) = 0.58307E-01
  weight for this iteration     100.00

 eigenvalues of (default mixing * dielectric matrix)
  average eigenvalue GAMMA=   1.0100
  2.4621  1.7648  0.7285  0.5505  0.3157  0.2385

 Free energy of the ion-electron system (eV)
  ---------------------------------------------------
  alpha Z        PSCENC =        96.78760010
  Ewald energy   TEWEN  =     -2171.04202174
  -Hartree energ DENC   =     -1285.86178549
  -exchange      EXHF   =         0.00000000
  -V(xc)+E(xc)   XCENC  =       234.77845533
  PAW double counting   =      3607.24101442    -3637.38621010
  entropy T*S    EENTRO =         0.00000000
  eigenvalues    EBANDS =      -550.21990041
  atomic energy  EATOM  =      3661.63673913
  Solvation  Ediel_sol  =         0.00000000
  ---------------------------------------------------
  free energy    TOTEN  =       -44.06610876 eV

  energy without entropy =      -44.06610876  energy(sigma->0) =      -44.06610876


--------------------------------------------------------------------------------------------------------




--------------------------------------- Iteration      1(  12)  ---------------------------------------


    POTLOK:  cpu time    0.0287: real time    0.0288
    SETDIJ:  cpu time    0.2412: real time    0.2414
    EDDIAG:  cpu time    0.8021: real time    0.8025
  RMM-DIIS:  cpu time    2.3213: real time    2.3233
    ORTHCH:  cpu time    0.0759: real time    0.0759
 BZINTS: Fermi energy:  0.908055; 51.000000 electrons
         Band energy:-549.942977;  BLOECHL correction: -0.025341
       DOS:  cpu time    0.0619: real time    0.0619
    CHARGE:  cpu time    0.2207: real time    0.2208
    MIXING:  cpu time    0.0008: real time    0.0008
    --------------------------------------------
      LOOP:  cpu time    3.7527: real time    3.7554

 eigenvalue-minimisations  : 15005
 total energy-change (2. order) : 0.4809376E-03  (-0.1239660E-03)
 number of electron      51.0000002 magnetization       0.0000028
 augmentation part        5.5549274 magnetization      -0.0000004

 Broyden mixing:
  rms(total) = 0.10263E-01    rms(broyden)= 0.10255E-01
  rms(prec ) = 0.23919E-01
  weight for this iteration     100.00

 eigenvalues of (default mixing * dielectric matrix)
  average eigenvalue GAMMA=   0.9927
  2.4695  1.6806  1.0306  0.6827  0.5316  0.3161  0.2379

 Free energy of the ion-electron system (eV)
  ---------------------------------------------------
  alpha Z        PSCENC =        96.78760010
  Ewald energy   TEWEN  =     -2171.04202174
  -Hartree energ DENC   =     -1286.17458872
  -exchange      EXHF   =         0.00000000
  -V(xc)+E(xc)   XCENC  =       234.79953250
  PAW double counting   =      3616.85157460    -3646.98148711
  entropy T*S    EENTRO =         0.00000000
  eigenvalues    EBANDS =      -549.94297658
  atomic energy  EATOM  =      3661.63673913
  Solvation  Ediel_sol  =         0.00000000
  ---------------------------------------------------
  free energy    TOTEN  =       -44.06562782 eV

  energy without entropy =      -44.06562782  energy(sigma->0) =      -44.06562782


--------------------------------------------------------------------------------------------------------




--------------------------------------- Iteration      1(  13)  ---------------------------------------


    POTLOK:  cpu time    0.0291: real time    0.0295
    SETDIJ:  cpu time    0.2415: real time    0.2416
    EDDIAG:  cpu time    0.8100: real time    0.8105
  RMM-DIIS:  cpu time    2.3231: real time    2.3249
    ORTHCH:  cpu time    0.0759: real time    0.0762
 BZINTS: Fermi energy:  0.911675; 51.000000 electrons
         Band energy:-549.667292;  BLOECHL correction: -0.025263
       DOS:  cpu time    0.0603: real time    0.0603
    CHARGE:  cpu time    0.2221: real time    0.2223
    MIXING:  cpu time    0.0009: real time    0.0009
    --------------------------------------------
      LOOP:  cpu time    3.7630: real time    3.7662

 eigenvalue-minimisations  : 14841
 total energy-change (2. order) : 0.1498779E-03  (-0.3434210E-04)
 number of electron      51.0000002 magnetization       0.0000032
 augmentation part        5.5541579 magnetization       0.0000001

 Broyden mixing:
  rms(total) = 0.31940E-02    rms(broyden)= 0.31626E-02
  rms(prec ) = 0.61646E-02
  weight for this iteration     100.00

 eigenvalues of (default mixing * dielectric matrix)
  average eigenvalue GAMMA=   1.0594
  2.4911  1.7679  1.2272  1.2272  0.3161  0.2380  0.5312  0.6770

 Free energy of the ion-electron system (eV)
  ---------------------------------------------------
  alpha Z        PSCENC =        96.78760010
  Ewald energy   TEWEN  =     -2171.04202174
  -Hartree energ DENC   =     -1286.46636523
  -exchange      EXHF   =         0.00000000
  -V(xc)+E(xc)   XCENC  =       234.82084065
  PAW double counting   =      3617.06248802    -3647.19746712
  entropy T*S    EENTRO =         0.00000000
  eigenvalues    EBANDS =      -549.66729176
  atomic energy  EATOM  =      3661.63673913
  Solvation  Ediel_sol  =         0.00000000
  ---------------------------------------------------
  free energy    TOTEN  =       -44.06547795 eV

  energy without entropy =      -44.06547795  energy(sigma->0) =      -44.06547795


--------------------------------------------------------------------------------------------------------




--------------------------------------- Iteration      1(  14)  ---------------------------------------


    POTLOK:  cpu time    0.0291: real time    0.0292
    SETDIJ:  cpu time    0.2421: real time    0.2422
    EDDIAG:  cpu time    0.8057: real time    0.8061
  RMM-DIIS:  cpu time    2.1066: real time    2.1080
    ORTHCH:  cpu time    0.0759: real time    0.0760
 BZINTS: Fermi energy:  0.913878; 51.000000 electrons
         Band energy:-549.548617;  BLOECHL correction: -0.025271
       DOS:  cpu time    0.0619: real time    0.0619
    CHARGE:  cpu time    0.2209: real time    0.2210
    MIXING:  cpu time    0.0009: real time    0.0009
    --------------------------------------------
      LOOP:  cpu time    3.5432: real time    3.5454

 eigenvalue-minimisations  : 13043
 total energy-change (2. order) :-0.4044013E-04  (-0.5888039E-05)
 number of electron      51.0000002 magnetization       0.0000027
 augmentation part        5.5539620 magnetization       0.0000003

 Broyden mixing:
  rms(total) = 0.15096E-02    rms(broyden)= 0.15074E-02
  rms(prec ) = 0.30213E-02
  weight for this iteration     100.00

 eigenvalues of (default mixing * dielectric matrix)
  average eigenvalue GAMMA=   1.0974
  2.5638  2.0880  1.3706  1.3706  0.2380  0.3161  0.5306  0.6995  0.6995

 Free energy of the ion-electron system (eV)
  ---------------------------------------------------
  alpha Z        PSCENC =        96.78760010
  Ewald energy   TEWEN  =     -2171.04202174
  -Hartree energ DENC   =     -1286.59353287
  -exchange      EXHF   =         0.00000000
  -V(xc)+E(xc)   XCENC  =       234.82887040
  PAW double counting   =      3616.86401391    -3646.99857012
  entropy T*S    EENTRO =         0.00000000
  eigenvalues    EBANDS =      -549.54861720
  atomic energy  EATOM  =      3661.63673913
  Solvation  Ediel_sol  =         0.00000000
  ---------------------------------------------------
  free energy    TOTEN  =       -44.06551839 eV

  energy without entropy =      -44.06551839  energy(sigma->0) =      -44.06551839


--------------------------------------------------------------------------------------------------------




[...]
     20      -4.6924      1.00000
     21      -4.2800      1.00000
     22      -0.8132      1.00000
     23      -0.6005      1.00000
     24       0.0069      1.00000
     25       0.0490      1.00000
     26       0.6943      1.03589
     27       1.0438     -0.02116
     28       1.1764      0.00000
     29       1.7426      0.00000
     30       7.4443      0.00000
     31       8.0610      0.00000
     32       8.7843      0.00000

 k-point   110 :      -0.2500    0.4286    0.4286
  band No.  band energies     occupation 
      1     -44.1898      1.00000
      2     -25.9595      1.00000
      3     -25.0077      1.00000
      4     -24.9548      1.00000
      5     -24.5587      1.00000
      6     -14.4514      1.00000
      7     -13.6305      1.00000
      8     -13.5479      1.00000
      9     -13.0195      1.00000
     10      -7.9064      1.00000
     11      -7.5067      1.00000
     12      -7.0279      1.00000
     13      -6.6592      1.00000
     14      -6.5848      1.00000
     15      -6.4794      1.00000
     16      -5.9167      1.00000
     17      -5.8700      1.00000
     18      -5.1336      1.00000
     19      -4.8685      1.00000
     20      -4.6818      1.00000
     21      -4.2714      1.00000
     22      -0.8173      1.00000
     23      -0.5920      1.00000
     24       0.0400      1.00000
     25       0.0433      1.00000
     26       0.6825      1.03530
     27       1.0311     -0.01653
     28       1.1722      0.00000
     29       1.7251      0.00000
     30       6.9721      0.00000
     31       8.7559      0.00000
     32       8.8144      0.00000

 k-point   111 :      -0.1250    0.4286    0.4286
  band No.  band energies     occupation 
      1     -44.1898      1.00000
      2     -25.9587      1.00000
      3     -25.0129      1.00000
      4     -24.9502      1.00000
      5     -24.5588      1.00000
      6     -14.4641      1.00000
      7     -13.7206      1.00000
      8     -13.4664      1.00000
      9     -12.9835      1.00000
     10      -7.9035      1.00000
     11      -7.6097      1.00000
     12      -6.8597      1.00000
     13      -6.7150      1.00000
     14      -6.5965      1.00000
     15      -6.5100      1.00000
     16      -5.9228      1.00000
     17      -5.8517      1.00000
     18      -5.1435      1.00000
     19      -4.8625      1.00000
     20      -4.6715      1.00000
     21      -4.2660      1.00000
     22      -0.8401      1.00000
     23      -0.6025      1.00000
     24       0.0392      1.00000
     25       0.0858      1.00000
     26       0.6829      1.03119
     27       1.0288     -0.01720
     28       1.1716      0.00000
     29       1.7098      0.00000
     30       6.9606      0.00000
     31       8.0536      0.00000
     32       9.5862      0.00000

 k-point   112 :       0.0000   -0.4286    0.4286
  band No.  band energies     occupation 
      1     -44.1899      1.00000
      2     -25.9560      1.00000
      3     -25.0341      1.00000
      4     -24.9396      1.00000
      5     -24.5509      1.00000
      6     -14.4112      1.00000
      7     -13.7758      1.00000
      8     -13.5034      1.00000
      9     -12.9456      1.00000
     10      -7.8989      1.00000
     11      -7.6141      1.00000
     12      -6.8517      1.00000
     13      -6.7782      1.00000
     14      -6.5781      1.00000
     15      -6.4572      1.00000
     16      -5.9689      1.00000
     17      -5.8110      1.00000
     18      -5.1418      1.00000
     19      -5.0053      1.00000
     20      -4.5512      1.00000
     21      -4.2634      1.00000
     22      -0.7966      1.00000
     23      -0.6397      1.00000
     24      -0.0501      1.00000
     25       0.1494      1.00000
     26       0.7024      1.00000
     27       0.9147      0.20768
     28       1.2812      0.00000
     29       1.7108      0.00000
     30       7.4007      0.00000
     31       7.5213      0.00000
     32       9.8930      0.00000

 k-point   113 :       0.1250   -0.4286    0.4286
  band No.  band energies     occupation 
      1     -44.1899      1.00000
      2     -25.9566      1.00000
      3     -25.0316      1.00000
      4     -24.9416      1.00000
      5     -24.5504      1.00000
      6     -14.4000      1.00000
      7     -13.7354      1.00000
      8     -13.5422      1.00000
      9     -12.9678      1.00000
     10      -7.8954      1.00000
     11      -7.5629      1.00000
     12      -6.9477      1.00000
     13      -6.7518      1.00000
     14      -6.5889      1.00000
     15      -6.4139      1.00000
     16      -5.9664      1.00000
     17      -5.8174      1.00000
     18      -5.1470      1.00000
     19      -5.0048      1.00000
     20      -4.5538      1.00000
     21      -4.2652      1.00000
     22      -0.8005      1.00000
     23      -0.6366      1.00000
     24      -0.0419      1.00000
     25       0.1383      1.00000
     26       0.7022      1.00000
     27       0.9106      0.22837
     28       1.2850      0.00000
     29       1.7181      0.00000
     30       7.1858      0.00000
     31       8.1561      0.00000
     32       9.1566      0.00000

 k-point   114 :       0.2500   -0.4286    0.4286
  band No.  band energies     occupation 
      1     -44.1899      1.00000
      2     -25.9580      1.00000
      3     -25.0257      1.00000
      4     -24.9468      1.00000
      5     -24.5494      1.00000
      6     -14.3658      1.00000
      7     -13.6963      1.00000
      8     -13.5860      1.00000
      9     -13.0119      1.00000
     10      -7.9164      1.00000
     11      -7.4573      1.00000
     12      -7.1174      1.00000
     13      -6.6537      1.00000
     14      -6.6205      1.00000
     15      -6.3549      1.00000
     16      -5.9564      1.00000
     17      -5.8373      1.00000
     18      -5.1552      1.00000
     19      -5.0106      1.00000
     20      -4.5607      1.00000
     21      -4.2708      1.00000
     22      -0.8064      1.00000
     23      -0.6234      1.00000
     24      -0.0301      1.00000
     25       0.1134      1.00000
     26       0.6986      1.00000
     27       0.9072      0.23712
     28       1.2962      0.00000
     29       1.7328      0.00000
     30       7.3723      0.00000
     31       8.2391      0.00000
     32       8.9831      0.00000

 k-point   115 :       0.3750   -0.4286    0.4286
  band No.  band energies     occupation 
      1     -44.1899      1.00000
      2     -25.9595      1.00000
      3     -25.0201      1.00000
      4     -24.9520      1.00000
      5     -24.5483      1.00000
      6     -14.3269      1.00000
      7     -13.7505      1.00000
      8     -13.5472      1.00000
      9     -13.0405      1.00000
     10      -7.9446      1.00000
     11      -7.3925      1.00000
     12      -7.2174      1.00000
     13      -6.7904      1.00000
     14      -6.4976      1.00000
     15      -6.2509      1.00000
     16      -5.9366      1.00000
     17      -5.8513      1.00000
     18      -5.1550      1.00000
     19      -5.0275      1.00000
     20      -4.5686      1.00000
     21      -4.2779      1.00000
     22      -0.8098      1.00000
     23      -0.6047      1.00000
     24      -0.0272      1.00000
     25       0.0876      1.00000
     26       0.6874      1.00000
     27       0.9168      0.17306
     28       1.3100      0.00000
     29       1.7441      0.00000
     30       7.5938      0.00000
     31       7.9543      0.00000
     32       8.7916      0.00000

 k-point   116 :       0.5000   -0.4286    0.4286
  band No.  band energies     occupation 
      1     -44.1899      1.00000
      2     -25.9600      1.00000
      3     -25.0179      1.00000
      4     -24.9540      1.00000
      5     -24.5479      1.00000
      6     -14.3115      1.00000
      7     -13.7742      1.00000
      8     -13.5316      1.00000
      9     -13.0476      1.00000
     10      -7.9449      1.00000
     11      -7.3882      1.00000
     12      -7.2427      1.00000
     13      -6.8801      1.00000
     14      -6.4369      1.00000
     15      -6.1946      1.00000
     16      -5.9246      1.00000
     17      -5.8531      1.00000
     18      -5.1513      1.00000
     19      -5.0392      1.00000
     20      -4.5722      1.00000
     21      -4.2813      1.00000
     22      -0.8114      1.00000
     23      -0.5960      1.00000
     24      -0.0271      1.00000
     25       0.0751      1.00000
     26       0.6798      1.00000
     27       0.9253      0.12931
     28       1.3165      0.00000
     29       1.7478      0.00000
     30       7.3913      0.00000
     31       8.3668      0.00000
     32       8.6724      0.00000


--------------------------------------------------------------------------------------------------------


 soft charge-density along one line, spin component           1
         0         1         2         3         4         5         6         7         8         9
 total charge-density along one line
 
 soft charge-density along one line, spin component           2
         0         1         2         3         4         5         6         7         8         9
 total charge-density along one line
 
 pseudopotential strength for first ion, spin component:           1
-39.837   3.089   0.000  -0.000  -0.001
  3.089  -9.460   0.001  -0.000  -0.003
  0.000   0.001   0.181   0.000   0.000
 -0.000  -0.000   0.000   0.181  -0.000
 -0.001  -0.003   0.000  -0.000   0.179
 pseudopotential strength for first ion, spin component:           2
-39.837   3.089   0.000  -0.000  -0.001
  3.089  -9.460   0.001  -0.000  -0.003
  0.000   0.001   0.181   0.000   0.000
 -0.000  -0.000   0.000   0.181  -0.000
 -0.001  -0.003   0.000  -0.000   0.179
 total augmentation occupancy for first ion, spin component:           1
  2.000  -0.010  -0.000   0.000   0.002
 -0.010   0.519   0.002  -0.001  -0.008
 -0.000   0.002   0.015  -0.001  -0.002
  0.000  -0.001  -0.001   0.014   0.001
  0.002  -0.008  -0.002   0.001   0.026
 total augmentation occupancy for first ion, spin component:           2
  0.000  -0.000   0.000  -0.000  -0.000
 -0.000  -0.000   0.000  -0.000  -0.000
  0.000   0.000  -0.000   0.000  -0.000
 -0.000  -0.000   0.000  -0.000  -0.000
 -0.000  -0.000  -0.000  -0.000  -0.000


------------------------ aborting loop because EDIFF is reached ----------------------------------------


 


 total charge     
 
# of ion       s       p       d       tot
------------------------------------------
    1        2.010   0.039   0.000   2.049
    2        1.610   3.341   0.000   4.952
    3        1.610   3.345   0.000   4.955
    4        1.609   3.254   0.000   4.864
    5        1.609   3.249   0.000   4.858
    6        1.623   3.266   0.000   4.889
    7        1.605   3.305   0.000   4.909
    8        1.616   3.300   0.000   4.916
    9        1.605   3.301   0.000   4.906
--------------------------------------------------
tot         14.897  26.400   0.000  41.298
 


 magnetization (x)
 
# of ion       s       p       d       tot
------------------------------------------
    1       -0.000  -0.000   0.000  -0.000
    2       -0.000  -0.000   0.000  -0.000
    3       -0.000  -0.000   0.000  -0.000
    4       -0.000  -0.000   0.000  -0.000
    5       -0.000  -0.000   0.000  -0.000
    6        0.000   0.000   0.000   0.000
    7        0.000   0.000   0.000   0.000
    8       -0.000   0.000   0.000   0.000
    9        0.000   0.000   0.000   0.000
--------------------------------------------------
tot         -0.000   0.000   0.000   0.000
 
    CHARGE:  cpu time    0.2206: real time    0.2208
    FORLOC:  cpu time    0.0016: real time    0.0016
    FORNL :  cpu time    0.9377: real time    0.9385
    STRESS:  cpu time    2.8188: real time    2.8206
    FORCOR:  cpu time    0.0284: real time    0.0284
    FORHAR:  cpu time    0.0037: real time    0.0037
    MIXING:  cpu time    0.0007: real time    0.0007
    OFIELD:  cpu time    0.0001: real time    0.0001

  FORCE on cell =-STRESS in cart. coord.  units (eV):
  Direction    XX          YY          ZZ          XY          YZ          ZX
  --------------------------------------------------------------------------------------
  Alpha Z    97.41807    97.41807    97.41807
  Ewald    -404.73750  -852.03158  -925.16846  -201.54414    19.80416   -65.09384
  Hartree   403.16618   435.69749   439.15443    17.32163    -6.80001     6.45918
  E(xc)    -246.69477  -249.19661  -249.56865    -1.13152     0.16528    -0.35327
  Local    -702.52948  -416.41390  -367.42201   125.09305    -5.59724    38.97434
  n-local  -200.41098  -195.37388  -188.46308     1.86386    -1.56918     0.75714
  augment    60.43273    69.22305    70.64988     4.05824    -0.50776     1.36629
  Kinetic   994.74469  1118.07028  1114.69612    57.75639    -2.28275    17.90781
  Fock        0.00000     0.00000     0.00000     0.00000     0.00000     0.00000
  -------------------------------------------------------------------------------------
  Total       0.01363     0.03877     0.02579     0.00041    -0.01252    -0.01325
  in kB       0.21613     0.61493     0.40903     0.00657    -0.19860    -0.21013
  external pressure =        0.41 kB  Pullay stress =        0.00 kB


 VOLUME and BASIS-vectors are now :
 -----------------------------------------------------------------------------
  energy-cutoff  :      520.00
  volume of cell :      101.01
      direct lattice vectors                 reciprocal lattice vectors
     4.650144736  0.034740598  1.909500832     0.228664863 -0.090589511 -0.031514820
     1.975812773  4.454813266  1.530695718    -0.008319256  0.222596318  0.016209793
     0.560269033 -0.347923359  5.065300956    -0.083687327 -0.033116785  0.204403514

  length of vectors
     5.027051462  5.108055083  5.108054994     0.247966254  0.223340745  0.223340741


 FORCES acting on ions
    electron-ion (+dipol)            ewald-force                    non-local-force                 convergence-correction
 -----------------------------------------------------------------------------------------------
   -.227E+02 0.150E+02 0.113E+02   0.223E+02 -.149E+02 -.114E+02   0.349E+00 -.780E-01 0.337E-01   0.248E-02 -.114E-02 -.554E-03
   0.238E+03 -.122E+03 0.339E+02   -.285E+03 0.137E+03 -.295E+02   0.462E+02 -.142E+02 -.437E+01   0.250E-02 0.878E-03 -.145E-01
   -.254E+03 0.218E+02 0.106E+03   0.300E+03 -.331E+02 -.117E+03   -.468E+02 0.113E+02 0.104E+02   -.453E-02 0.158E-02 -.590E-02
   -.206E+03 0.183E+03 -.124E+02   0.249E+03 -.207E+03 0.112E+02   -.431E+02 0.238E+02 0.124E+01   -.619E-02 -.405E-02 -.176E-02
   0.266E+03 -.277E+02 -.357E+02   -.312E+03 0.452E+02 0.377E+02   0.453E+02 -.174E+02 -.201E+01   -.194E-02 -.142E-01 -.338E-02
   0.238E+03 -.154E+03 -.114E+03   -.287E+03 0.175E+03 0.123E+03   0.487E+02 -.204E+02 -.818E+01   0.326E-02 -.104E-02 -.105E-03
   -.214E+03 0.133E+03 0.947E+02   0.255E+03 -.154E+03 -.107E+03   -.408E+02 0.207E+02 0.118E+02   -.298E-01 0.117E-01 0.396E-02
   -.278E+03 0.315E+02 -.685E+02   0.328E+03 -.456E+02 0.693E+02   -.500E+02 0.142E+02 -.745E+00   0.346E-01 -.143E-01 -.558E-02
   0.230E+03 -.779E+02 -.135E+02   -.272E+03 0.973E+02 0.234E+02   0.414E+02 -.194E+02 -.983E+01   0.124E-01 -.434E-02 -.918E-03
 -----------------------------------------------------------------------------------------------
   -.138E+01 0.165E+01 0.169E+01   0.000E+00 0.142E-13 0.711E-14   0.136E+01 -.163E+01 -.167E+01   0.128E-01 -.249E-01 -.287E-01
 
 
 POSITION                                       TOTAL-FORCE (eV/Angst)
 -----------------------------------------------------------------------------------
      4.33255      3.32083      6.24737         0.010879      0.000891      0.005567
      5.03041      1.22767      6.27330        -0.024949     -0.007032      0.006714
      1.55502      0.79259      4.18851         0.018230     -0.001787     -0.001964
      2.21803      3.04208      2.53298         0.016408     -0.007967      0.002583
      5.72053      3.56916      4.55007        -0.017953      0.016704     -0.010754
      4.54656      1.08159      3.29046         0.001611      0.000924      0.001901
      2.60134      3.05260      5.18958        -0.029721      0.001078     -0.010438
      1.05546      0.62984      1.27850         0.010461     -0.002741      0.000465
      6.11088      3.58184      7.31421         0.015034     -0.000070      0.005926
 -----------------------------------------------------------------------------------
    total drift:                               -0.004192     -0.002057     -0.004475


--------------------------------------------------------------------------------------------------------



  FREE ENERGIE OF THE ION-ELECTRON SYSTEM (eV)
  ---------------------------------------------------
  free  energy   TOTEN  =       -44.06710783 eV

  energy  without entropy=      -44.06710783  energy(sigma->0) =      -44.06710783
 
 d Force = 0.2140734E-04[ 0.779E-05, 0.350E-04]  d Energy = 0.3856280E-04-0.172E-04
 d Force = 0.6591134E+00[ 0.659E+00, 0.660E+00]  d Ewald  = 0.5075398E+00 0.152E+00


--------------------------------------------------------------------------------------------------------


    POTLOK:  cpu time    0.2695: real time    0.2697


--------------------------------------------------------------------------------------------------------




--------------------------------------------------------------------------------------------------------


  
 reached required accuracy - stopping structural energy minimisation
     LOOP+:  cpu time   19.1044: real time   19.1200
    4ORBIT:  cpu time    0.0000: real time    0.0000
 


 total charge     
 
# of ion       s       p       d       tot
------------------------------------------
    1        2.010   0.039   0.000   2.049
    2        1.610   3.341   0.000   4.952
    3        1.610   3.345   0.000   4.955
    4        1.609   3.254   0.000   4.864
    5        1.609   3.249   0.000   4.858
    6        1.623   3.266   0.000   4.889
    7        1.605   3.305   0.000   4.909
    8        1.616   3.300   0.000   4.916
    9        1.605   3.301   0.000   4.906
--------------------------------------------------
tot         14.897  26.400   0.000  41.298
 


 magnetization (x)
 
# of ion       s       p       d       tot
------------------------------------------
    1       -0.000  -0.000   0.000  -0.000
    2       -0.000  -0.000   0.000  -0.000
    3       -0.000  -0.000   0.000  -0.000
    4       -0.000  -0.000   0.000  -0.000
    5       -0.000  -0.000   0.000  -0.000
    6        0.000   0.000   0.000   0.000
    7        0.000   0.000   0.000   0.000
    8       -0.000   0.000   0.000   0.000
    9        0.000   0.000   0.000   0.000
--------------------------------------------------
tot         -0.000   0.000   0.000   0.000
 
 BZINTS: Fermi energy:  0.947877; 51.000000 electrons
         Band energy:-547.899622;  BLOECHL correction: -0.025128

 total amount of memory used by VASP MPI-rank0    49961. kBytes
=======================================================================

   base      :      30000. kBytes
   nonlr-proj:       1053. kBytes
   fftplans  :       1174. kBytes
   grid      :       2993. kBytes
   one-center:         12. kBytes
   wavefun   :      14729. kBytes
 
  
  
 General timing and accounting informations for this job:
 ========================================================
  
                  Total CPU time used (sec):      380.290
                            User time (sec):      373.994
                          System time (sec):        6.296
                         Elapsed time (sec):      381.939
  
                   Maximum memory used (kb):       91436.
                   Average memory used (kb):           0.
  
                          Minor page faults:        46486
                          Major page faults:            0
                 Voluntary context switches:        53939
