       N       E                     dE             d eps       ncg     rms          rms(c)
DAV:   1     0.361939257330E+03    0.36194E+03   -0.27682E+04 15776   0.146E+03
DAV:   2    -0.165207610193E+02   -0.37846E+03   -0.36499E+03 20760   0.346E+02
DAV:   3    -0.427530658056E+02   -0.26232E+02   -0.25869E+02 23276   0.916E+01
DAV:   4    -0.437151622457E+02   -0.96210E+00   -0.95802E+00 26342   0.128E+01
DAV:   5    -0.437935758604E+02   -0.78414E-01   -0.78407E-01 20908   0.180E+00    0.142E+01
RMM:   6    -0.441169637489E+02   -0.32339E+00   -0.26030E+00 17910   0.830E+00    0.925E+00
RMM:   7    -0.438209407581E+02    0.29602E+00   -0.94849E-01 17414   0.519E+00    0.571E+00
RMM:   8    -0.436461135148E+02    0.17483E+00   -0.43778E-01 17797   0.377E+00    0.415E+00
RMM:   9    -0.435817749921E+02    0.64339E-01   -0.17275E-01 18670   0.229E+00    0.246E+00
RMM:  10    -0.435648787853E+02    0.16896E-01   -0.57260E-02 19090   0.140E+00    0.758E-01
RMM:  11    -0.435659225616E+02   -0.10438E-02   -0.11872E-02 21314   0.671E-01    0.410E-01
RMM:  12    -0.435663728141E+02   -0.45025E-03   -0.50631E-03 21865   0.459E-01    0.161E-01
RMM:  13    -0.435669488704E+02   -0.57606E-03   -0.21874E-03 25063   0.269E-01    0.561E-02
RMM:  14    -0.435671253840E+02   -0.17651E-03   -0.88797E-04 27573   0.145E-01    0.375E-02
RMM:  15    -0.435672455774E+02   -0.12019E-03   -0.43080E-04 26672   0.101E-01    0.241E-02
RMM:  16    -0.435672953396E+02   -0.49762E-04   -0.21743E-04 25794   0.680E-02    0.183E-02
RMM:  17    -0.435673326960E+02   -0.37356E-04   -0.11061E-04 23082   0.527E-02    0.135E-02
RMM:  18    -0.435673546088E+02   -0.21913E-04   -0.50711E-05 18789   0.397E-02    0.112E-02
RMM:  19    -0.435673754826E+02   -0.20874E-04   -0.41089E-05 18447   0.364E-02    0.101E-02
RMM:  20    -0.435673987562E+02   -0.23274E-04   -0.45363E-05 19543   0.373E-02    0.948E-03
RMM:  21    -0.435674136282E+02   -0.14872E-04   -0.22476E-05 15063   0.293E-02    0.856E-03
RMM:  22    -0.435674523523E+02   -0.38724E-04   -0.11349E-04 25244   0.573E-02    0.914E-03
RMM:  23    -0.435674954011E+02   -0.43049E-04   -0.18559E-04 26807   0.730E-02    0.915E-03
RMM:  24    -0.435675268010E+02   -0.31400E-04   -0.12475E-04 25352   0.579E-02    0.754E-03
RMM:  25    -0.435675492920E+02   -0.22491E-04   -0.32196E-04 26963   0.963E-02    0.103E-02
RMM:  26    -0.435675664621E+02   -0.17170E-04   -0.13279E-05 12584   0.268E-02    0.285E-03
RMM:  27    -0.435675725982E+02   -0.61361E-05   -0.55840E-05 19107   0.404E-02
   1 F= -.43567573E+02 E0= -.43567573E+02  d E =0.000000E+00  mag=     0.0019
