BEGIN_CFG
 Size
    28
 Supercell
         3.846960     -0.000000     -0.000000
        -0.000000      3.155889     -5.467150
        -0.000002      0.006012     45.641727
 AtomData:  id type       cartes_x      cartes_y      cartes_z           fx          fy          fz
             1    0       1.923480     -0.129210      1.748080     0.000004   -0.012133   -0.007589
             2    0      -0.000000      2.168610     -2.041950     0.000002    0.004693    0.020812
             3    0       0.000000      0.895150      0.168280    -0.000057    0.017451   -0.008546
             4    0       1.923480      0.000720      5.467540    -0.000016   -0.111021   -0.064933
             5    0      -0.000000      2.104650      1.822770     0.000002    0.257750    0.235812
             6    0      -0.000000      1.052680      3.645160     0.000002    0.326702    0.105480
             7    0       1.923480      0.001200      9.112620    -0.000017   -0.055038   -0.033466
             8    0      -0.000000      2.105130      5.467850     0.000004    0.078398   -0.092986
             9    0      -0.000000      1.053160      7.290240     0.000004   -0.039329    0.113102
            10    0       1.923480      0.001680     12.757630    -0.000018    0.000782   -0.001599
            11    0      -0.000000      2.105610      9.112850     0.000006   -0.027971    0.050741
            12    0      -0.000000      1.053640     10.935240     0.000004    0.030608   -0.048675
            13    0       1.923480      0.002160     16.402700    -0.000018    0.055675    0.031146
            14    0      -0.000000      2.106090     12.757930     0.000004    0.040165   -0.112875
            15    0      -0.000000      1.054120     14.580320     0.000005   -0.077202    0.093609
            16    0       1.923480      0.002640     20.047770    -0.000014    0.109919    0.062919
            17    0      -0.000000      2.106570     16.403000     0.000002   -0.332202   -0.110328
            18    0      -0.000000      1.054600     18.225390     0.000002   -0.255976   -0.236166
            19    0       1.923480      0.130220     23.765640     0.000026    0.014102    0.012425
            20    0       0.000000      2.262000     19.882610    -0.000000   -0.011452   -0.005543
            21    0       0.000010      0.988760     22.090660     0.000001    0.001478   -0.020019
            22    1       0.000000      0.131210      1.899050    -0.000003   -0.018667   -0.013243
            23    1      -0.000000      0.000720      5.467540     0.000020   -0.547017   -0.311398
            24    1      -0.000000      0.001200      9.112620     0.000018    0.167444    0.096657
            25    1      -0.000000      0.001680     12.757630     0.000014   -0.000833   -0.000061
            26    1      -0.000000      0.002160     16.402700     0.000016   -0.170066   -0.097538
            27    1      -0.000000      0.002640     20.047770     0.000024    0.545681    0.313647
            28    1       0.000000     -0.128540     23.615930    -0.000016    0.008061    0.028612
 Energy
       -106.744039910000
 PlusStress:  xx          yy          zz          yz          xz          xy
         0.11789    -0.28969    -0.23157    -0.05218    -0.00005     0.00001
 Feature   EFS_by	VASP
END_CFG

BEGIN_CFG
 Size
    28
 Supercell
         3.095797      0.000000     -1.787764
         0.000000      3.864469     -0.000000
         0.357717     -0.000000     43.713845
 AtomData:  id type       cartes_x      cartes_y      cartes_z           fx          fy          fz
             1    0      -0.017400      1.932230      1.756300    -0.003478    0.000017   -0.001400
             2    0       1.036880      0.000000      0.008580     0.011204   -0.000001    0.021476
             3    0       2.088600      0.000000      1.830620    -0.031798    0.000000   -0.050419
             4    0       0.044520      1.932240      5.440430    -0.004630   -0.000018   -0.017177
             5    0       1.066560      0.000000      3.635500     0.047027    0.000001    0.081723
             6    0       2.118280      0.000000      5.457540    -0.043982    0.000003   -0.069614
             7    0       0.074200      1.932240      9.067340     0.001879   -0.000018   -0.004053
             8    0       1.096240     -0.000000      7.262480     0.040144    0.000003    0.061369
             9    0       2.147960      0.000000      9.084510    -0.040260    0.000003   -0.066202
            10    0       0.103880      1.932240     12.694310     0.004490   -0.000017   -0.000684
            11    0       1.125920     -0.000000     10.889390     0.046435    0.000003    0.061937
            12    0       2.177640     -0.000000     12.711480    -0.039687    0.000002   -0.064804
            13    0       0.133560      1.932240     16.321290    -0.001688   -0.000018    0.000857
            14    0       1.155600     -0.000000     14.516360     0.041119    0.000003    0.068388
            15    0       2.207320     -0.000000     16.338400    -0.043982    0.000003   -0.056797
            16    0       0.163240      1.932240     19.948210     0.006770   -0.000018    0.020042
            17    0       1.185280     -0.000000     18.143330     0.040409    0.000002    0.070002
            18    0       2.237000     -0.000000     19.965370    -0.051862    0.000001   -0.076856
            19    0       0.225840      1.932230     23.631960    -0.000277    0.000016   -0.002499
            20    0       1.214950     -0.000000     21.770250     0.030937    0.000001    0.048966
            21    0       2.266680     -0.000000     23.592280    -0.010628   -0.000001   -0.022054
            22    1       0.014520      0.000000      1.813340    -0.010990   -0.000020   -0.022011
            23    1       0.044520     -0.000000      5.440430     0.002015    0.000014    0.003218
            24    1       0.074200     -0.000000      9.067340     0.001124    0.000015    0.002242
            25    1       0.103880     -0.000000     12.694310    -0.000177    0.000015    0.000302
            26    1       0.133560     -0.000000     16.321290    -0.001110    0.000015   -0.003141
            27    1       0.163240     -0.000000     19.948210    -0.001609    0.000014   -0.003530
            28    1       0.193080      0.000000     23.575410     0.012608   -0.000021    0.020716
 Energy
       -108.517357620000
 PlusStress:  xx          yy          zz          yz          xz          xy
        -0.10929     0.14794    -0.15638    -0.00000    -0.02892    -0.00000
 Feature   EFS_by	VASP
END_CFG

BEGIN_CFG
 Size
    32
 Supercell
         5.889784      0.885828     -7.059332
         0.187526      3.969761     -3.841823
         0.906191     -1.853753     32.718985
 AtomData:  id type       cartes_x      cartes_y      cartes_z           fx          fy          fz
             1    0       1.514970      1.594010     -1.684210    -0.003260    0.012809   -0.000624
             2    0       3.386100      2.320020     -3.078520    -0.005245   -0.013509   -0.006864
             3    0       1.094190     -0.062600      0.896930    -0.015651    0.010073    0.001163
             4    0       4.151630      0.106800     -4.408530     0.003277   -0.007749   -0.006165
             5    0       2.395280     -1.097190     -2.192900     0.005625    0.008806   -0.017915
             6    0       5.000040      0.550200     -2.564810     0.324674   -0.234383   -0.181911
             7    0       0.192750      1.629710      2.513280     0.001358   -0.001287   -0.002024
             8    0       3.214090      2.068920      0.883720    -0.049102   -0.011083   -0.112610
             9    0       1.140360     -0.177060      4.554470     0.144816   -0.258395    0.085526
            10    0       4.035130      0.368390     -0.784980    -0.897652    0.298657    0.090930
            11    0       2.105270      0.004750      2.774640     0.357758    0.062663   -0.158182
            12    0       5.100290      0.345130      1.054810     0.055283    0.139265   -0.211856
            13    0       0.319320      1.523470      6.223180     0.049288    0.017107    0.113234
            14    0       3.339630      1.961860      4.593900     0.001691    0.002768    0.002020
            15    0       1.240610     -0.382140      8.174090    -0.353658   -0.061902    0.161546
            16    0       4.135380      0.163310      2.834640    -0.053256   -0.139734    0.206396
            17    0       2.205520     -0.200320      6.394260    -0.144920    0.255371   -0.084628
            18    0       5.200540      0.140050      4.674380     0.900442   -0.299498   -0.088663
            19    0       0.145780      1.273330     10.186030     0.002568   -0.002014    0.009595
            20    0       2.017050      1.997610      8.792490     0.006275   -0.013496   -0.001641
            21    0       0.951350      0.718910     13.143650    -0.006202   -0.012800    0.020321
            22    0       4.235630     -0.041760      6.454210    -0.328205    0.238576    0.181270
            23    0       2.250800     -0.314600     10.053050     0.011994   -0.011107   -0.003371
            24    0       5.083580      0.400640      8.298570    -0.001293    0.009411    0.006245
            25    1       0.200750     -0.379930      2.686650     0.001496    0.000495    0.012904
            26    1       3.040210      0.527520     -2.679710    -0.000360   -0.011697   -0.004512
            27    1       0.175440     -0.358880      6.334310    -0.085571   -0.472128   -0.033939
            28    1       3.070200      0.186570      0.994850     0.160303    0.036660    0.250072
            29    1       0.275690     -0.563960      9.953930    -0.162095   -0.031589   -0.251302
            30    1       3.170450     -0.018500      4.614430     0.084761    0.469888    0.033735
            31    1       0.305070     -0.905880     13.628600     0.006104    0.021390    0.002879
            32    1       3.145890      0.001780      8.262170    -0.011243   -0.001566   -0.011628
 Energy
       -119.066841240000
 PlusStress:  xx          yy          zz          yz          xz          xy
        -0.08675     0.00248     0.03778     0.03220     0.05307    -0.04883
 Feature   EFS_by	VASP
END_CFG

BEGIN_CFG
 Size
    32
 Supercell
         3.849406     -0.000002     -0.000002
        -0.000000      6.192690     -7.214041
        -0.000014      0.202610     32.781829
 AtomData:  id type       cartes_x      cartes_y      cartes_z           fx          fy          fz
             1    0       1.924700      2.981490     -2.889560    -0.000024    0.015451   -0.016155
             2    0       1.924700     -0.043410      2.770370     0.000012   -0.004350   -0.022704
             3    0      -0.000010      2.109950     -1.220200    -0.000003   -0.007662   -0.006730
             4    0      -0.000000      5.181110     -2.687350    -0.000007    0.113629    0.110011
             5    0       0.000000      0.896450      1.064620     0.000005    0.006038   -0.000465
             6    0       0.000010      4.143600     -4.507260    -0.000019    0.026057   -0.002420
             7    0       1.924700      3.124360      0.926180    -0.000021   -0.108503   -0.137191
             8    0       1.924700      0.039220      6.346450    -0.000018   -0.042305   -0.064940
             9    0      -0.000000      2.095980      2.732920     0.000002    0.085470    0.153683
            10    0      -0.000000      5.203530      0.939200     0.000002    0.055891   -0.220200
            11    0      -0.000000      1.067610      4.539710     0.000006    0.057883    0.146468
            12    0      -0.000000      4.152750     -0.880610     0.000005    0.185643   -0.022613
            13    0       1.924700      3.146780      4.552730    -0.000019    0.044128    0.067338
            14    0       1.924700      0.061640      9.973010    -0.000018    0.106676    0.136836
            15    0      -0.000000      2.118390      6.359480    -0.000002   -0.057755   -0.144540
            16    0      -0.000000      5.225940      4.565760     0.000004   -0.180353    0.020008
            17    0      -0.000000      1.090020      8.166260    -0.000000   -0.087528   -0.155767
            18    0      -0.000000      4.175160      2.745940     0.000003   -0.060553    0.220110
            19    0       1.924690      3.228990      8.129870     0.000014    0.000673    0.022818
            20    0       1.924700      0.204260     13.788810     0.000010   -0.014754    0.016816
            21    0      -0.000010      2.288750      9.833660    -0.000004   -0.006350    0.006423
            22    0      -0.000000      5.234260      8.194830    -0.000000   -0.025275   -0.000966
            23    0      -0.000000      1.077770     12.120150     0.000004    0.003343    0.002391
            24    0      -0.000010      4.197580      6.372490    -0.000003   -0.108138   -0.097206
            25    1      -0.000000      3.245700     -2.713500     0.000033    0.000860   -0.002128
            26    1       0.000000      0.026460      2.763410    -0.000001   -0.001430   -0.009052
            27    1      -0.000000      3.124360      0.926180     0.000011   -0.601607   -0.200877
            28    1      -0.000000      0.039220      6.346450     0.000018    0.115788    0.276411
            29    1      -0.000000      3.146780      4.552730     0.000013   -0.115853   -0.276081
            30    1      -0.000000      0.061640      9.973010     0.000015    0.600332    0.198987
            31    1      -0.000010      3.159080      8.136480    -0.000010    0.004811    0.002631
            32    1      -0.000000     -0.059730     13.613510    -0.000008   -0.000256   -0.000897
 Energy
       -121.494926950000
 PlusStress:  xx          yy          zz          yz          xz          xy
        -0.06436    -0.00655    -0.00880     0.04555     0.00005     0.00003
 Feature   EFS_by	VASP
END_CFG

BEGIN_CFG
 Size
    32
 Supercell
         6.253135      0.000006      0.000003
         0.000006      3.986922      3.764405
         0.000019      1.205267     35.834929
 AtomData:  id type       cartes_x      cartes_y      cartes_z           fx          fy          fz
             1    0       3.126570      2.085080      4.493550    -0.000020   -0.001892   -0.001198
             2    0       0.000000      2.024020      2.790670     0.000025   -0.424467    0.016535
             3    0       2.084370      0.091670      2.725470    -0.016365   -0.213018    0.235484
             4    0       4.913180      0.300180      0.807520    -0.015808    0.004181    0.020985
             5    0       1.340010      0.300180      0.807510     0.015093    0.004353    0.020806
             6    0       4.168760      0.091670      2.725470     0.016215   -0.213035    0.235342
             7    0       3.126570      2.207360      8.241610    -0.000000    0.041871   -0.117437
             8    0       0.000010      2.146240      6.424650     0.000012    0.092490   -0.295666
             9    0       2.084380      0.213890      6.359400     0.003238    0.110922   -0.052771
            10    0       5.210940      0.152790      4.542460    -0.203868    0.019939    0.116398
            11    0       1.042200      0.152780      4.542460     0.203864    0.019946    0.116396
            12    0       4.168770      0.213890      6.359400    -0.003244    0.110919   -0.052760
            13    0       3.126580      2.329580     11.875590    -0.000001   -0.086817    0.294644
            14    0       0.000010      2.268470     10.058590    -0.000008   -0.038894    0.119488
            15    0       2.084380      0.336120      9.993380    -0.204550   -0.016099   -0.115131
            16    0       5.210940      0.275010      8.176390     0.002468   -0.110022    0.053748
            17    0       1.042200      0.275000      8.176390    -0.002476   -0.110023    0.053761
            18    0       4.168770      0.336120      9.993380     0.204541   -0.016093   -0.115116
            19    0       3.126580      2.451810     15.509520    -0.000007    0.417066   -0.018654
            20    0       0.000010      2.389500     13.806110     0.000009    0.006194   -0.001310
            21    0       1.787210      0.188060     13.726940    -0.009773   -0.005736   -0.020497
            22    0       5.210950      0.397230     11.810330    -0.013316    0.210958   -0.234345
            23    0       1.042200      0.397230     11.810330     0.013281    0.210951   -0.234409
            24    0       4.465970      0.188050     13.726980     0.009840   -0.005771   -0.020488
            25    1       3.126520     -0.073820      1.085370     0.000959    0.010063    0.000903
            26    1       0.000000      0.091670      2.725470    -0.000066    1.032823   -0.561020
            27    1       3.126570      0.152780      4.542460     0.000009   -0.188154    0.081213
            28    1       0.000000      0.213890      6.359400    -0.000006    0.006406   -0.127847
            29    1       3.126570      0.275010      8.176390    -0.000004   -0.008497    0.126937
            30    1       0.000010      0.336120      9.993380    -0.000006    0.182953   -0.082776
            31    1       3.126570      0.397230     11.810330    -0.000007   -1.034403    0.562508
            32    1       0.000020      0.561270     13.450570    -0.000029   -0.009113   -0.003722
 Energy
       -119.354457970000
 PlusStress:  xx          yy          zz          yz          xz          xy
        -0.02672     0.09116     0.01528    -0.14041    -0.00018    -0.00040
 Feature   EFS_by	VASP
END_CFG

BEGIN_CFG
 Size
    32
 Supercell
         3.568291      0.000633     -0.000200
         3.569189      6.250794      3.798505
        -0.002363     -0.340349     42.334948
 AtomData:  id type       cartes_x      cartes_y      cartes_z           fx          fy          fz
             1    0       1.782150      3.184200      4.741780     0.001511   -0.000030    0.003334
             2    0       0.000140     -0.138420      1.016290    -0.000665   -0.007319    0.013539
             3    0       1.784170      1.023960      2.878040     0.002018    0.146062   -0.032867
             4    0       3.564540      4.032790      2.394880     0.000642   -0.000354   -0.008260
             5    0       3.568500      2.071130      2.869640    -0.011520    0.089410    0.129276
             6    0       5.352990      5.181050      6.693180    -0.003885   -0.039600    0.133691
             7    0       1.784220      3.071250      8.634360    -0.001075   -0.006622   -0.000520
             8    0      -0.000270     -0.038680      4.810770    -0.000048    0.065530    0.046391
             9    0       1.783950      0.993020      6.726670     0.005403   -0.031828   -0.043223
            10    0       3.568660      4.133890      6.701630     0.004774   -0.214534    0.065895
            11    0       3.568290      2.040180      6.718270    -0.004291    0.093203   -0.082803
            12    0       5.352770      5.150110     10.541810    -0.004074    0.060809    0.006274
            13    0       1.784000      3.040310     12.482990     0.000020   -0.065018   -0.045038
            14    0      -0.000480     -0.069620      8.659400    -0.000476    0.005597    0.003893
            15    0       1.783740      0.962080     10.575300     0.003761   -0.089087    0.079924
            16    0       3.568440      4.102950     10.550260     0.003732   -0.064611   -0.006149
            17    0       3.568070      2.009240     10.566900    -0.002964    0.035278    0.041167
            18    0       5.352560      5.119170     14.390480    -0.003071    0.211558   -0.067018
            19    0       1.784310      3.142990     16.277420     0.003345    0.008085   -0.008173
            20    0       0.000390     -0.180830     12.552170     0.000132   -0.002541   -0.011155
            21    0       1.783530      0.931140     14.423970     0.005793   -0.089392   -0.129268
            22    0       3.568230      4.072010     14.398880     0.002891    0.035435   -0.133040
            23    0       3.567860      1.978300     14.415520    -0.002776   -0.143060    0.033903
            24    0       5.354630      5.220050     18.698740     0.000120    0.001861    0.004532
            25    1       1.782430      3.077010      2.834040     0.000682   -0.008296    0.002008
            26    1      -0.000160     -0.023210      2.886480    -0.000321   -0.197025   -0.349007
            27    1       1.784330      3.086720      6.710030    -0.000924    0.167614   -0.019246
            28    1      -0.000380     -0.054150      6.735110    -0.000056   -0.027984   -0.008052
            29    1       1.784110      3.055780     10.558650     0.000061    0.028072    0.008146
            30    1      -0.000590     -0.085090     10.583740     0.000421   -0.166750    0.018503
            31    1       1.783900      3.024840     14.407320     0.000270    0.197869    0.347765
            32    1       0.000110     -0.075460     14.458950     0.000569    0.007666    0.005575
 Energy
       -121.340778050000
 PlusStress:  xx          yy          zz          yz          xz          xy
         0.02019     0.10220     0.34485    -0.02384    -0.00054    -0.00305
 Feature   EFS_by	VASP
END_CFG

