 running on    8 total cores
 distrk:  each k-point on    8 cores,    1 groups
 distr:  one band on    1 cores,    8 groups
 using from now: INCAR     
 vasp.6.1.2 22Jul20 (build Mar 20 2021 11:25:07) complex                        
  
 POSCAR found type information on POSCAR LiP 
 POSCAR found :  2 types and      16 ions
 scaLAPACK will be used
 -----------------------------------------------------------------------------
|                                                                             |
|           W    W    AA    RRRRR   N    N  II  N    N   GGGG   !!!           |
|           W    W   A  A   R    R  NN   N  II  NN   N  G    G  !!!           |
|           W    W  A    A  R    R  N N  N  II  N N  N  G       !!!           |
|           W WW W  AAAAAA  RRRRR   N  N N  II  N  N N  G  GGG   !            |
|           WW  WW  A    A  R   R   N   NN  II  N   NN  G    G                |
|           W    W  A    A  R    R  N    N  II  N    N   GGGG   !!!           |
|                                                                             |
|     The value NCORE = 6 specified in the INCAR file was overwritten,        |
|     because it was not compatible with the 8 processes available:           |
|     NCORE = 1                                                               |
|     was used instead, please check that this makes sense for your           |
|     machine.                                                                |
|                                                                             |
 -----------------------------------------------------------------------------

 -----------------------------------------------------------------------------
|                                                                             |
|           W    W    AA    RRRRR   N    N  II  N    N   GGGG   !!!           |
|           W    W   A  A   R    R  NN   N  II  NN   N  G    G  !!!           |
|           W    W  A    A  R    R  N N  N  II  N N  N  G       !!!           |
|           W WW W  AAAAAA  RRRRR   N  N N  II  N  N N  G  GGG   !            |
|           WW  WW  A    A  R   R   N   NN  II  N   NN  G    G                |
|           W    W  A    A  R    R  N    N  II  N    N   GGGG   !!!           |
|                                                                             |
|     For optimal performance we recommend to set                             |
|       NCORE = 4 - approx SQRT(number of cores).                             |
|     NCORE specifies how many cores store one orbital (NPAR=cpu/NCORE).      |
|     This setting can greatly improve the performance of VASP for DFT.       |
|     The default, NCORE=1 might be grossly inefficient on modern             |
|     multi-core architectures or massively parallel machines. Do your        |
|     own testing!!!!                                                         |
|     Unfortunately you need to use the default for GW and RPA                |
|     calculations (for HF NCORE is supported but not extensively tested      |
|     yet).                                                                   |
|                                                                             |
 -----------------------------------------------------------------------------

 LDA part: xc-table for Pade appr. of Perdew
 generate k-points for:    6    7    4
 POSCAR, INCAR and KPOINTS ok, starting setup
 FFT: planning ...
 WAVECAR not read
 entering main loop
       N       E                     dE             d eps       ncg     rms          rms(c)
DAV:   1     0.396312121232E+03    0.39631E+03   -0.25692E+04 16512   0.131E+03
DAV:   2    -0.351880461911E+01   -0.39983E+03   -0.36611E+03 18400   0.315E+02
DAV:   3    -0.554581960697E+02   -0.51939E+02   -0.51237E+02 23584   0.882E+01
DAV:   4    -0.629411592612E+02   -0.74830E+01   -0.74035E+01 29096   0.326E+01
DAV:   5    -0.636656154071E+02   -0.72446E+00   -0.72415E+00 23128   0.751E+00    0.211E+01
DAV:   6    -0.649401958954E+02   -0.12746E+01   -0.27847E+00 22176   0.646E+00    0.113E+01
DAV:   7    -0.662119311357E+02   -0.12717E+01   -0.74090E-01 20240   0.411E+00    0.595E+00
DAV:   8    -0.664457990474E+02   -0.23387E+00   -0.61846E-01 21536   0.291E+00    0.127E+00
DAV:   9    -0.664762961364E+02   -0.30497E-01   -0.83612E-02 24416   0.113E+00    0.519E-01
DAV:  10    -0.664798839691E+02   -0.35878E-02   -0.71126E-03 21376   0.385E-01    0.228E-01
DAV:  11    -0.664813584692E+02   -0.14745E-02   -0.19861E-03 20624   0.207E-01    0.106E-01
DAV:  12    -0.664816479144E+02   -0.28945E-03   -0.60450E-04 21064   0.102E-01    0.413E-02
DAV:  13    -0.664816937196E+02   -0.45805E-04   -0.10060E-04 19152   0.515E-02    0.201E-02
DAV:  14    -0.664817090273E+02   -0.15308E-04   -0.33381E-05 16880   0.300E-02    0.667E-03
DAV:  15    -0.664817107617E+02   -0.17344E-05   -0.44433E-06 12384   0.128E-02
   1 F= -.66481711E+02 E0= -.66481711E+02  d E =0.000000E+00  mag=    -0.0003
