   12   12    1    2
  0.9498020E+01  0.5117186E-09  0.5330402E-09  0.4748969E-09  0.5000000E-15
  1.000000000000000E-004
  CAR 
 unknown system                          
     56    100     40
 
  0.0000000E+00  0.0000000E+00  0.0000000E+00  0.2915452E-02
    1      -39.948612    -39.948402   1.000000   1.000000
    2      -39.936143    -39.935933   1.000000   1.000000
    3      -39.862422    -39.862217   1.000000   1.000000
    4      -39.852233    -39.852028   1.000000   1.000000
    5      -17.166702    -17.166742   1.000000   1.000000
    6      -16.505947    -16.505998   1.000000   1.000000
    7      -14.898442    -14.898501   1.000000   1.000000
    8      -14.887028    -14.887087   1.000000   1.000000
    9      -12.643016    -12.643052   1.000000   1.000000
   10      -11.086746    -11.086777   1.000000   1.000000
   11       -6.741347     -6.741369   1.000000   1.000000
   12       -3.626931     -3.626951   1.000000   1.000000
   13       -3.358507     -3.358524   1.000000   1.000000
   14       -2.840766     -2.840791   1.000000   1.000000
   15       -2.751449     -2.751470   1.000000   1.000000
   16       -1.614545     -1.614587   1.000000   1.000000
   17       -0.774903     -0.774923   1.000000   1.000000
   18       -0.728727     -0.728737   1.000000   1.000000
   19        0.136668      0.136645   1.000000   1.000000
   20        0.303914      0.303898   1.000000   1.000000
   21        0.561466      0.561444   1.000000   1.000000
   22        1.324868      1.324824   1.000000   1.000000
   23        1.328061      1.328020   1.000000   1.000000
   24        1.469703      1.469665   1.000000   1.000000
   25        1.625651      1.625619   1.000000   1.000000
   26        2.329036      2.329022   1.000000   1.000000
   27        2.355093      2.355069   1.000000   1.000000
   28        3.018464      3.018455   1.000000   1.000000
   29        8.973247      8.973267   0.000000   0.000000
   30        9.992546      9.992553   0.000000   0.000000
   31       10.464106     10.464100   0.000000   0.000000
   32       11.987999     11.987902   0.000000   0.000000
   33       12.134811     12.134878   0.000000   0.000000
   34       12.798584     12.798786   0.000000   0.000000
   35       12.892581     12.892028   0.000000   0.000000
   36       13.828796     13.830336   0.000000   0.000000
   37       13.856550     13.847885   0.000000   0.000000
   38       14.239416     14.238305   0.000000   0.000000
   39       14.713307     14.700845   0.000000   0.000000
   40       14.850098     14.723220   0.000000   0.000000
 
  0.1428571E+00  0.1396839E-16  0.0000000E+00  0.5830904E-02
    1      -39.948336    -39.948126   1.000000   1.000000
    2      -39.936231    -39.936021   1.000000   1.000000
    3      -39.862769    -39.862564   1.000000   1.000000
    4      -39.852127    -39.851922   1.000000   1.000000
    5      -17.144798    -17.144838   1.000000   1.000000
    6      -16.524600    -16.524651   1.000000   1.000000
    7      -14.913202    -14.913260   1.000000   1.000000
    8      -14.885148    -14.885207   1.000000   1.000000
    9      -12.647958    -12.647995   1.000000   1.000000
   10      -11.085465    -11.085497   1.000000   1.000000
   11       -6.744437     -6.744459   1.000000   1.000000
   12       -3.631986     -3.632005   1.000000   1.000000
   13       -3.328469     -3.328488   1.000000   1.000000
   14       -2.815049     -2.815071   1.000000   1.000000
   15       -2.705800     -2.705824   1.000000   1.000000
   16       -1.633789     -1.633829   1.000000   1.000000
   17       -0.867768     -0.867783   1.000000   1.000000
   18       -0.496489     -0.496508   1.000000   1.000000
   19        0.165713      0.165689   1.000000   1.000000
   20        0.350125      0.350106   1.000000   1.000000
   21        0.546509      0.546489   1.000000   1.000000
   22        1.164872      1.164833   1.000000   1.000000
   23        1.296428      1.296395   1.000000   1.000000
   24        1.393658      1.393615   1.000000   1.000000
   25        1.574649      1.574618   1.000000   1.000000
   26        2.292294      2.292273   1.000000   1.000000
   27        2.391854      2.391835   1.000000   1.000000
   28        3.015406      3.015397   1.000000   1.000000
   29        9.172638      9.172652   0.000000   0.000000
   30       10.029971     10.029974   0.000000   0.000000
   31       10.578028     10.578016   0.000000   0.000000
   32       11.804030     11.803994   0.000000   0.000000
   33       12.159374     12.159504   0.000000   0.000000
   34       12.557519     12.557472   0.000000   0.000000
   35       12.942703     12.942868   0.000000   0.000000
   36       13.453232     13.453052   0.000000   0.000000
   37       13.750043     13.749408   0.000000   0.000000
   38       14.106556     14.104858   0.000000   0.000000
   39       14.256901     14.258006   0.000000   0.000000
   40       14.715787     14.714292   0.000000   0.000000
 
  0.2857143E+00  0.5867300E-17  0.0000000E+00  0.5830904E-02
    1      -39.947723    -39.947513   1.000000   1.000000
    2      -39.936378    -39.936168   1.000000   1.000000
    3      -39.863460    -39.863255   1.000000   1.000000
    4      -39.851932    -39.851727   1.000000   1.000000
    5      -17.088954    -17.088995   1.000000   1.000000
    6      -16.573078    -16.573128   1.000000   1.000000
    7      -14.938153    -14.938211   1.000000   1.000000
    8      -14.889249    -14.889309   1.000000   1.000000
    9      -12.658205    -12.658241   1.000000   1.000000
   10      -11.083334    -11.083365   1.000000   1.000000
   11       -6.749944     -6.749965   1.000000   1.000000
   12       -3.657859     -3.657875   1.000000   1.000000
   13       -3.231640     -3.231663   1.000000   1.000000
   14       -2.871126     -2.871152   1.000000   1.000000
   15       -2.474337     -2.474364   1.000000   1.000000
   16       -1.692461     -1.692497   1.000000   1.000000
   17       -0.767621     -0.767640   1.000000   1.000000
   18       -0.230629     -0.230652   1.000000   1.000000
   19        0.150777      0.150755   1.000000   1.000000
   20        0.445476      0.445452   1.000000   1.000000
   21        0.543564      0.543545   1.000000   1.000000
   22        0.797423      0.797396   1.000000   1.000000
   23        1.140343      1.140313   1.000000   1.000000
   24        1.328920      1.328886   1.000000   1.000000
   25        1.464406      1.464372   1.000000   1.000000
   26        2.164772      2.164756   1.000000   1.000000
   27        2.527110      2.527080   1.000000   1.000000
   28        3.006495      3.006484   1.000000   1.000000
   29        9.550750      9.550748   0.000000   0.000000
   30       10.170869     10.170864   0.000000   0.000000
   31       10.896657     10.896638   0.000000   0.000000
   32       11.635141     11.635127   0.000000   0.000000
   33       11.846577     11.846521   0.000000   0.000000
   34       12.101877     12.101770   0.000000   0.000000
   35       12.763331     12.762791   0.000000   0.000000
   36       13.046647     13.046488   0.000000   0.000000
   37       13.315781     13.315872   0.000000   0.000000
   38       14.075399     14.075887   0.000000   0.000000
   39       14.214119     14.212475   0.000000   0.000000
   40       14.804419     14.815046   0.000000   0.000000
 
  0.4285714E+00 -0.1365337E-16  0.0000000E+00  0.5830904E-02
    1      -39.947184    -39.946974   1.000000   1.000000
    2      -39.936462    -39.936252   1.000000   1.000000
    3      -39.863969    -39.863764   1.000000   1.000000
    4      -39.851739    -39.851534   1.000000   1.000000
    5      -17.033719    -17.033762   1.000000   1.000000
    6      -16.622484    -16.622533   1.000000   1.000000
    7      -14.956049    -14.956106   1.000000   1.000000
    8      -14.894321    -14.894380   1.000000   1.000000
    9      -12.665564    -12.665601   1.000000   1.000000
   10      -11.082247    -11.082278   1.000000   1.000000
   11       -6.752796     -6.752817   1.000000   1.000000
   12       -3.690486     -3.690499   1.000000   1.000000
   13       -3.119955     -3.119977   1.000000   1.000000
   14       -2.939259     -2.939292   1.000000   1.000000
   15       -2.219763     -2.219795   1.000000   1.000000
   16       -1.770493     -1.770527   1.000000   1.000000
   17       -0.574450     -0.574475   1.000000   1.000000
   18       -0.078811     -0.078844   1.000000   1.000000
   19        0.111924      0.111910   1.000000   1.000000
   20        0.307860      0.307845   1.000000   1.000000
   21        0.434224      0.434205   1.000000   1.000000
   22        0.727830      0.727800   1.000000   1.000000
   23        1.131171      1.131148   1.000000   1.000000
   24        1.226633      1.226607   1.000000   1.000000
   25        1.378813      1.378773   1.000000   1.000000
   26        2.054323      2.054310   1.000000   1.000000
   27        2.644100      2.644061   1.000000   1.000000
   28        2.994989      2.994977   1.000000   1.000000
   29        9.623921      9.623907   0.000000   0.000000
   30       10.651758     10.651755   0.000000   0.000000
   31       11.191578     11.191621   0.000000   0.000000
   32       11.418324     11.418347   0.000000   0.000000
   33       11.626878     11.626760   0.000000   0.000000
   34       11.803419     11.803311   0.000000   0.000000
   35       12.342785     12.342412   0.000000   0.000000
   36       12.709918     12.709860   0.000000   0.000000
   37       12.994153     12.994906   0.000000   0.000000
   38       14.258823     14.261582   0.000000   0.000000
   39       14.465530     14.461764   0.000000   0.000000
   40       15.087295     15.040009   0.000000   0.000000
 
  0.6860896E-17  0.1428571E+00  0.0000000E+00  0.5830904E-02
    1      -39.948239    -39.948029   1.000000   1.000000
    2      -39.936377    -39.936166   1.000000   1.000000
    3      -39.862604    -39.862399   1.000000   1.000000
    4      -39.852192    -39.851987   1.000000   1.000000
    5      -17.148644    -17.148683   1.000000   1.000000
    6      -16.523719    -16.523770   1.000000   1.000000
    7      -14.901737    -14.901796   1.000000   1.000000
    8      -14.891636    -14.891696   1.000000   1.000000
    9      -12.646598    -12.646634   1.000000   1.000000
   10      -11.085376    -11.085408   1.000000   1.000000
   11       -6.740778     -6.740800   1.000000   1.000000
   12       -3.633720     -3.633739   1.000000   1.000000
   13       -3.321670     -3.321688   1.000000   1.000000
   14       -2.784513     -2.784534   1.000000   1.000000
   15       -2.755221     -2.755246   1.000000   1.000000
   16       -1.632140     -1.632180   1.000000   1.000000
   17       -0.867685     -0.867700   1.000000   1.000000
   18       -0.519412     -0.519430   1.000000   1.000000
   19        0.171436      0.171413   1.000000   1.000000
   20        0.352456      0.352437   1.000000   1.000000
   21        0.557299      0.557278   1.000000   1.000000
   22        1.116889      1.116850   1.000000   1.000000
   23        1.269368      1.269333   1.000000   1.000000
   24        1.463080      1.463041   1.000000   1.000000
   25        1.589769      1.589734   1.000000   1.000000
   26        2.292759      2.292739   1.000000   1.000000
   27        2.382782      2.382762   1.000000   1.000000
   28        3.009547      3.009538   1.000000   1.000000
   29        9.205071      9.205086   0.000000   0.000000
   30       10.014149     10.014150   0.000000   0.000000
   31       10.560595     10.560584   0.000000   0.000000
   32       11.799987     11.800019   0.000000   0.000000
   33       12.143627     12.143679   0.000000   0.000000
   34       12.552929     12.552713   0.000000   0.000000
   35       12.939815     12.939861   0.000000   0.000000
   36       13.445329     13.445336   0.000000   0.000000
   37       13.817782     13.818382   0.000000   0.000000
   38       14.021855     14.021969   0.000000   0.000000
   39       14.253142     14.254338   0.000000   0.000000
   40       15.251833     15.305603   0.000000   0.000000
 
  0.1428571E+00  0.1428571E+00  0.0000000E+00  0.5830904E-02
    1      -39.947713    -39.947503   1.000000   1.000000
    2      -39.936587    -39.936376   1.000000   1.000000
    3      -39.863085    -39.862880   1.000000   1.000000
    4      -39.852017    -39.851812   1.000000   1.000000
    5      -17.108409    -17.108450   1.000000   1.000000
    6      -16.563698    -16.563748   1.000000   1.000000
    7      -14.925471    -14.925529   1.000000   1.000000
    8      -14.883146    -14.883205   1.000000   1.000000
    9      -12.649900    -12.649936   1.000000   1.000000
   10      -11.084240    -11.084272   1.000000   1.000000
   11       -6.737792     -6.737813   1.000000   1.000000
   12       -3.668276     -3.668293   1.000000   1.000000
   13       -3.256302     -3.256323   1.000000   1.000000
   14       -2.820764     -2.820790   1.000000   1.000000
   15       -2.642086     -2.642112   1.000000   1.000000
   16       -1.685073     -1.685110   1.000000   1.000000
   17       -0.820979     -0.820997   1.000000   1.000000
   18       -0.216916     -0.216942   1.000000   1.000000
   19        0.286296      0.286275   1.000000   1.000000
   20        0.308087      0.308061   1.000000   1.000000
   21        0.554410      0.554394   1.000000   1.000000
   22        0.941526      0.941492   1.000000   1.000000
   23        1.032348      1.032325   1.000000   1.000000
   24        1.457383      1.457353   1.000000   1.000000
   25        1.470719      1.470677   1.000000   1.000000
   26        2.186267      2.186250   1.000000   1.000000
   27        2.499046      2.499019   1.000000   1.000000
   28        3.015379      3.015367   1.000000   1.000000
   29        9.513701      9.513705   0.000000   0.000000
   30       10.044205     10.044194   0.000000   0.000000
   31       10.699671     10.699671   0.000000   0.000000
   32       11.738017     11.738009   0.000000   0.000000
   33       11.869324     11.869588   0.000000   0.000000
   34       12.443343     12.443451   0.000000   0.000000
   35       12.726201     12.726097   0.000000   0.000000
   36       13.273735     13.273684   0.000000   0.000000
   37       13.335962     13.335944   0.000000   0.000000
   38       13.746896     13.747040   0.000000   0.000000
   39       14.051047     14.050496   0.000000   0.000000
   40       15.188756     15.194813   0.000000   0.000000
 
  0.2857143E+00  0.1428571E+00  0.0000000E+00  0.5830904E-02
    1      -39.947148    -39.946938   1.000000   1.000000
    2      -39.936682    -39.936472   1.000000   1.000000
    3      -39.863686    -39.863481   1.000000   1.000000
    4      -39.851830    -39.851624   1.000000   1.000000
    5      -17.051548    -17.051590   1.000000   1.000000
    6      -16.611556    -16.611604   1.000000   1.000000
    7      -14.961300    -14.961357   1.000000   1.000000
    8      -14.875907    -14.875967   1.000000   1.000000
    9      -12.660070    -12.660106   1.000000   1.000000
   10      -11.082658    -11.082690   1.000000   1.000000
   11       -6.743919     -6.743939   1.000000   1.000000
   12       -3.692693     -3.692707   1.000000   1.000000
   13       -3.163983     -3.164005   1.000000   1.000000
   14       -2.861063     -2.861096   1.000000   1.000000
   15       -2.402048     -2.402076   1.000000   1.000000
   16       -1.738704     -1.738738   1.000000   1.000000
   17       -0.629789     -0.629812   1.000000   1.000000
   18       -0.027882     -0.027920   1.000000   1.000000
   19        0.099545      0.099530   1.000000   1.000000
   20        0.294401      0.294389   1.000000   1.000000
   21        0.619526      0.619504   1.000000   1.000000
   22        0.676719      0.676692   1.000000   1.000000
   23        0.987127      0.987106   1.000000   1.000000
   24        1.321393      1.321367   1.000000   1.000000
   25        1.438660      1.438617   1.000000   1.000000
   26        2.063155      2.063144   1.000000   1.000000
   27        2.618898      2.618862   1.000000   1.000000
   28        3.009808      3.009795   1.000000   1.000000
   29        9.702138      9.702129   0.000000   0.000000
   30       10.296245     10.296235   0.000000   0.000000
   31       10.918139     10.918161   0.000000   0.000000
   32       11.491105     11.491138   0.000000   0.000000
   33       11.937181     11.937285   0.000000   0.000000
   34       11.969755     11.969766   0.000000   0.000000
   35       12.365363     12.365256   0.000000   0.000000
   36       12.815612     12.815725   0.000000   0.000000
   37       13.183714     13.183751   0.000000   0.000000
   38       13.864487     13.868135   0.000000   0.000000
   39       14.144206     14.145332   0.000000   0.000000
   40       15.286294     15.340146   0.000000   0.000000
 
  0.4285714E+00  0.1428571E+00  0.0000000E+00  0.5830904E-02
    1      -39.946990    -39.946780   1.000000   1.000000
    2      -39.936634    -39.936423   1.000000   1.000000
    3      -39.864016    -39.863811   1.000000   1.000000
    4      -39.851779    -39.851574   1.000000   1.000000
    5      -17.025247    -17.025290   1.000000   1.000000
    6      -16.627058    -16.627107   1.000000   1.000000
    7      -14.983786    -14.983842   1.000000   1.000000
    8      -14.873832    -14.873892   1.000000   1.000000
    9      -12.669879    -12.669916   1.000000   1.000000
   10      -11.081440    -11.081471   1.000000   1.000000
   11       -6.755601     -6.755621   1.000000   1.000000
   12       -3.691355     -3.691367   1.000000   1.000000
   13       -3.071320     -3.071341   1.000000   1.000000
   14       -2.920426     -2.920464   1.000000   1.000000
   15       -2.181311     -2.181343   1.000000   1.000000
   16       -1.777030     -1.777063   1.000000   1.000000
   17       -0.518059     -0.518085   1.000000   1.000000
   18       -0.191517     -0.191539   1.000000   1.000000
   19        0.029306      0.029290   1.000000   1.000000
   20        0.273754      0.273738   1.000000   1.000000
   21        0.537161      0.537130   1.000000   1.000000
   22        0.711634      0.711614   1.000000   1.000000
   23        1.088627      1.088606   1.000000   1.000000
   24        1.218546      1.218520   1.000000   1.000000
   25        1.424537      1.424496   1.000000   1.000000
   26        2.032641      2.032629   1.000000   1.000000
   27        2.643121      2.643082   1.000000   1.000000
   28        3.001801      3.001787   1.000000   1.000000
   29        9.687373      9.687355   0.000000   0.000000
   30       10.578207     10.578203   0.000000   0.000000
   31       11.091768     11.091774   0.000000   0.000000
   32       11.281220     11.281173   0.000000   0.000000
   33       11.671624     11.671644   0.000000   0.000000
   34       12.026803     12.026661   0.000000   0.000000
   35       12.403059     12.403124   0.000000   0.000000
   36       12.595371     12.595393   0.000000   0.000000
   37       13.040050     13.040174   0.000000   0.000000
   38       14.077596     14.079597   0.000000   0.000000
   39       14.425213     14.425212   0.000000   0.000000
   40       15.213872     15.271150   0.000000   0.000000
 
 -0.4285714E+00  0.1428571E+00  0.0000000E+00  0.5830904E-02
    1      -39.947333    -39.947123   1.000000   1.000000
    2      -39.936396    -39.936185   1.000000   1.000000
    3      -39.863768    -39.863563   1.000000   1.000000
    4      -39.851858    -39.851652   1.000000   1.000000
    5      -17.058426    -17.058468   1.000000   1.000000
    6      -16.588911    -16.588961   1.000000   1.000000
    7      -14.982830    -14.982886   1.000000   1.000000
    8      -14.871504    -14.871564   1.000000   1.000000
    9      -12.672471    -12.672508   1.000000   1.000000
   10      -11.080955    -11.080986   1.000000   1.000000
   11       -6.764490     -6.764510   1.000000   1.000000
   12       -3.655136     -3.655149   1.000000   1.000000
   13       -3.110428     -3.110455   1.000000   1.000000
   14       -2.910787     -2.910816   1.000000   1.000000
   15       -2.224879     -2.224910   1.000000   1.000000
   16       -1.737544     -1.737577   1.000000   1.000000
   17       -0.646979     -0.647000   1.000000   1.000000
   18       -0.307781     -0.307798   1.000000   1.000000
   19        0.015669      0.015650   1.000000   1.000000
   20        0.370038      0.370015   1.000000   1.000000
   21        0.550342      0.550313   1.000000   1.000000
   22        0.747039      0.747018   1.000000   1.000000
   23        1.123383      1.123357   1.000000   1.000000
   24        1.280922      1.280893   1.000000   1.000000
   25        1.456796      1.456757   1.000000   1.000000
   26        2.110807      2.110791   1.000000   1.000000
   27        2.549888      2.549854   1.000000   1.000000
   28        2.995400      2.995389   1.000000   1.000000
   29        9.713766      9.713758   0.000000   0.000000
   30       10.420856     10.420861   0.000000   0.000000
   31       11.124305     11.124333   0.000000   0.000000
   32       11.179616     11.179659   0.000000   0.000000
   33       11.732471     11.732422   0.000000   0.000000
   34       12.001631     12.001603   0.000000   0.000000
   35       12.728860     12.728776   0.000000   0.000000
   36       12.971158     12.971057   0.000000   0.000000
   37       13.124833     13.124803   0.000000   0.000000
   38       14.160290     14.159610   0.000000   0.000000
   39       14.597812     14.595316   0.000000   0.000000
   40       14.891042     14.892985   0.000000   0.000000
 
 -0.2857143E+00  0.1428571E+00  0.0000000E+00  0.5830904E-02
    1      -39.947958    -39.947749   1.000000   1.000000
    2      -39.936257    -39.936047   1.000000   1.000000
    3      -39.863201    -39.862996   1.000000   1.000000
    4      -39.852077    -39.851872   1.000000   1.000000
    5      -17.114164    -17.114204   1.000000   1.000000
    6      -16.538214    -16.538265   1.000000   1.000000
    7      -14.961079    -14.961136   1.000000   1.000000
    8      -14.869218    -14.869278   1.000000   1.000000
    9      -12.665489    -12.665526   1.000000   1.000000
   10      -11.082307    -11.082339   1.000000   1.000000
   11       -6.762566     -6.762587   1.000000   1.000000
   12       -3.613305     -3.613320   1.000000   1.000000
   13       -3.253348     -3.253374   1.000000   1.000000
   14       -2.830503     -2.830526   1.000000   1.000000
   15       -2.463713     -2.463740   1.000000   1.000000
   16       -1.647939     -1.647977   1.000000   1.000000
   17       -0.789783     -0.789800   1.000000   1.000000
   18       -0.508752     -0.508767   1.000000   1.000000
   19        0.035478      0.035458   1.000000   1.000000
   20        0.429733      0.429711   1.000000   1.000000
   21        0.606567      0.606539   1.000000   1.000000
   22        0.869931      0.869905   1.000000   1.000000
   23        1.250160      1.250128   1.000000   1.000000
   24        1.383060      1.383019   1.000000   1.000000
   25        1.533418      1.533385   1.000000   1.000000
   26        2.225034      2.225014   1.000000   1.000000
   27        2.416471      2.416447   1.000000   1.000000
   28        2.990906      2.990898   1.000000   1.000000
   29        9.514311      9.514320   0.000000   0.000000
   30       10.179988     10.179990   0.000000   0.000000
   31       10.816986     10.816973   0.000000   0.000000
   32       11.443467     11.443464   0.000000   0.000000
   33       12.062116     12.061824   0.000000   0.000000
   34       12.297878     12.297905   0.000000   0.000000
   35       12.754560     12.754165   0.000000   0.000000
   36       13.350720     13.350544   0.000000   0.000000
   37       13.517878     13.516583   0.000000   0.000000
   38       14.266246     14.266304   0.000000   0.000000
   39       14.585027     14.583167   0.000000   0.000000
   40       14.734027     14.734027   0.000000   0.000000
 
 -0.1428571E+00  0.1428571E+00  0.0000000E+00  0.5830904E-02
    1      -39.948341    -39.948131   1.000000   1.000000
    2      -39.936245    -39.936035   1.000000   1.000000
    3      -39.862650    -39.862445   1.000000   1.000000
    4      -39.852232    -39.852027   1.000000   1.000000
    5      -17.150655    -17.150695   1.000000   1.000000
    6      -16.512968    -16.513020   1.000000   1.000000
    7      -14.929718    -14.929776   1.000000   1.000000
    8      -14.873323    -14.873383   1.000000   1.000000
    9      -12.653555    -12.653592   1.000000   1.000000
   10      -11.084583    -11.084615   1.000000   1.000000
   11       -6.751498     -6.751520   1.000000   1.000000
   12       -3.602795     -3.602813   1.000000   1.000000
   13       -3.337669     -3.337690   1.000000   1.000000
   14       -2.782692     -2.782713   1.000000   1.000000
   15       -2.679419     -2.679444   1.000000   1.000000
   16       -1.607555     -1.607595   1.000000   1.000000
   17       -0.771598     -0.771617   1.000000   1.000000
   18       -0.711180     -0.711190   1.000000   1.000000
   19        0.062999      0.062977   1.000000   1.000000
   20        0.352425      0.352407   1.000000   1.000000
   21        0.625027      0.625003   1.000000   1.000000
   22        1.100787      1.100749   1.000000   1.000000
   23        1.348046      1.348007   1.000000   1.000000
   24        1.438063      1.438023   1.000000   1.000000
   25        1.604118      1.604085   1.000000   1.000000
   26        2.313285      2.313262   1.000000   1.000000
   27        2.338910      2.338894   1.000000   1.000000
   28        2.996924      2.996917   1.000000   1.000000
   29        9.206640      9.206657   0.000000   0.000000
   30       10.070479     10.070505   0.000000   0.000000
   31       10.589009     10.588964   0.000000   0.000000
   32       11.789668     11.789655   0.000000   0.000000
   33       12.233137     12.232482   0.000000   0.000000
   34       12.445909     12.445269   0.000000   0.000000
   35       12.799163     12.799050   0.000000   0.000000
   36       13.512556     13.509077   0.000000   0.000000
   37       13.888145     13.889441   0.000000   0.000000
   38       14.351517     14.360381   0.000000   0.000000
   39       14.648925     14.645749   0.000000   0.000000
   40       15.058339     15.024971   0.000000   0.000000
 
 -0.1960499E-16  0.2857143E+00  0.0000000E+00  0.5830904E-02
    1      -39.947336    -39.947126   1.000000   1.000000
    2      -39.936945    -39.936735   1.000000   1.000000
    3      -39.862970    -39.862765   1.000000   1.000000
    4      -39.852119    -39.851914   1.000000   1.000000
    5      -17.103238    -17.103279   1.000000   1.000000
    6      -16.568481    -16.568530   1.000000   1.000000
    7      -14.908987    -14.909045   1.000000   1.000000
    8      -14.902228    -14.902287   1.000000   1.000000
    9      -12.653968    -12.654005   1.000000   1.000000
   10      -11.082983    -11.083015   1.000000   1.000000
   11       -6.738137     -6.738158   1.000000   1.000000
   12       -3.660197     -3.660212   1.000000   1.000000
   13       -3.219796     -3.219818   1.000000   1.000000
   14       -2.861815     -2.861839   1.000000   1.000000
   15       -2.542000     -2.542028   1.000000   1.000000
   16       -1.688546     -1.688584   1.000000   1.000000
   17       -0.784881     -0.784900   1.000000   1.000000
   18       -0.290508     -0.290531   1.000000   1.000000
   19        0.174007      0.173984   1.000000   1.000000
   20        0.433533      0.433510   1.000000   1.000000
   21        0.578117      0.578100   1.000000   1.000000
   22        0.804936      0.804906   1.000000   1.000000
   23        1.078297      1.078268   1.000000   1.000000
   24        1.392180      1.392152   1.000000   1.000000
   25        1.511476      1.511435   1.000000   1.000000
   26        2.163113      2.163096   1.000000   1.000000
   27        2.492200      2.492171   1.000000   1.000000
   28        2.984999      2.984989   1.000000   1.000000
   29        9.787937      9.787942   0.000000   0.000000
   30       10.012074     10.012061   0.000000   0.000000
   31       10.801222     10.801235   0.000000   0.000000
   32       11.546890     11.546871   0.000000   0.000000
   33       11.899170     11.899438   0.000000   0.000000
   34       12.113329     12.113271   0.000000   0.000000
   35       12.784835     12.784616   0.000000   0.000000
   36       13.181104     13.181012   0.000000   0.000000
   37       13.343971     13.343932   0.000000   0.000000
   38       14.022079     14.020711   0.000000   0.000000
   39       14.205835     14.204100   0.000000   0.000000
   40       15.385939     15.383729   0.000000   0.000000
 
  0.1428571E+00  0.2857143E+00  0.0000000E+00  0.5830904E-02
    1      -39.946902    -39.946692   1.000000   1.000000
    2      -39.937160    -39.936949   1.000000   1.000000
    3      -39.863389    -39.863184   1.000000   1.000000
    4      -39.852018    -39.851812   1.000000   1.000000
    5      -17.062903    -17.062945   1.000000   1.000000
    6      -16.607177    -16.607226   1.000000   1.000000
    7      -14.950213    -14.950270   1.000000   1.000000
    8      -14.876002    -14.876062   1.000000   1.000000
    9      -12.657336    -12.657373   1.000000   1.000000
   10      -11.082489    -11.082521   1.000000   1.000000
   11       -6.735767     -6.735787   1.000000   1.000000
   12       -3.693620     -3.693634   1.000000   1.000000
   13       -3.155293     -3.155316   1.000000   1.000000
   14       -2.865443     -2.865473   1.000000   1.000000
   15       -2.440678     -2.440707   1.000000   1.000000
   16       -1.740570     -1.740605   1.000000   1.000000
   17       -0.637397     -0.637420   1.000000   1.000000
   18       -0.097288     -0.097324   1.000000   1.000000
   19        0.177019      0.177001   1.000000   1.000000