 running on   12 total cores
 distrk:  each k-point on   12 cores,    1 groups
 distr:  one band on    6 cores,    2 groups
 using from now: INCAR     
 vasp.6.1.2 22Jul20 (build Mar 20 2021 11:25:07) complex                        
  
 POSCAR found type information on POSCAR P N 
 POSCAR found :  2 types and      16 ions
 scaLAPACK will be used
 LDA part: xc-table for Pade appr. of Perdew
 generate k-points for:    7    7    4
 POSCAR, INCAR and KPOINTS ok, starting setup
 FFT: planning ...
 WAVECAR not read
 entering main loop
       N       E                     dE             d eps       ncg     rms          rms(c)
DAV:   1     0.474112418471E+03    0.47411E+03   -0.40520E+04 21384   0.136E+03
DAV:   2    -0.100756023517E+03   -0.57487E+03   -0.55055E+03 27114   0.311E+02
DAV:   3    -0.137162893059E+03   -0.36407E+02   -0.36113E+02 26512   0.839E+01
DAV:   4    -0.137852157856E+03   -0.68926E+00   -0.68667E+00 27848   0.120E+01
DAV:   5    -0.137869310201E+03   -0.17152E-01   -0.17129E-01 26226   0.179E+00    0.489E+01
DAV:   6    -0.117173812598E+03    0.20695E+02   -0.67743E+01 24836   0.327E+01    0.247E+01
DAV:   7    -0.119260123125E+03   -0.20863E+01   -0.11255E+01 25980   0.122E+01    0.786E+00
DAV:   8    -0.119213469894E+03    0.46653E-01   -0.65575E-01 25284   0.370E+00    0.484E+00
DAV:   9    -0.119215386490E+03   -0.19166E-02   -0.72292E-02 26038   0.137E+00    0.241E+00
DAV:  10    -0.119214103856E+03    0.12826E-02   -0.29346E-02 25388   0.865E-01    0.493E-01
DAV:  11    -0.119217036801E+03   -0.29329E-02   -0.56388E-03 24392   0.418E-01    0.260E-01
DAV:  12    -0.119217589771E+03   -0.55297E-03   -0.63644E-04 27260   0.141E-01    0.147E-01
DAV:  13    -0.119217894811E+03   -0.30504E-03   -0.27106E-04 25078   0.830E-02    0.618E-02
DAV:  14    -0.119217973083E+03   -0.78272E-04   -0.52256E-05 24296   0.366E-02    0.202E-02
DAV:  15    -0.119217989966E+03   -0.16883E-04   -0.11336E-05 17056   0.177E-02    0.107E-02
DAV:  16    -0.119217994755E+03   -0.47891E-05   -0.57469E-06 16600   0.109E-02
   1 F= -.11921799E+03 E0= -.11921799E+03  d E =0.000000E+00  mag=    -0.0004
