       N       E                     dE             d eps       ncg     rms          rms(c)
DAV:   1     0.104712340201E+04    0.10471E+04   -0.67831E+04  5856   0.131E+03
DAV:   2    -0.272418542260E+02   -0.10744E+04   -0.99444E+03  6880   0.282E+02
DAV:   3    -0.164800522126E+03   -0.13756E+03   -0.13574E+03  7924   0.956E+01
DAV:   4    -0.180359334248E+03   -0.15559E+02   -0.15458E+02 10440   0.288E+01
DAV:   5    -0.183752364160E+03   -0.33930E+01   -0.33912E+01  9784   0.865E+00    0.317E+01
DAV:   6    -0.184271896624E+03   -0.51953E+00   -0.92098E+00  7640   0.718E+00    0.172E+01
DAV:   7    -0.186400369624E+03   -0.21285E+01   -0.31850E+00  7720   0.426E+00    0.102E+01
DAV:   8    -0.187266774138E+03   -0.86640E+00   -0.13466E+00  7176   0.300E+00    0.250E+00
DAV:   9    -0.187361052244E+03   -0.94278E-01   -0.21706E-01  8232   0.136E+00    0.105E+00
DAV:  10    -0.187377794390E+03   -0.16742E-01   -0.36892E-02  8096   0.509E-01    0.394E-01
DAV:  11    -0.187382843100E+03   -0.50487E-02   -0.59282E-03  7160   0.239E-01    0.208E-01
DAV:  12    -0.187385722637E+03   -0.28795E-02   -0.26952E-03  7560   0.143E-01    0.101E-01
DAV:  13    -0.187386893037E+03   -0.11704E-02   -0.94632E-04  7224   0.794E-02    0.414E-02
DAV:  14    -0.187387210742E+03   -0.31770E-03   -0.29073E-04  6968   0.422E-02    0.249E-02
DAV:  15    -0.187387319234E+03   -0.10849E-03   -0.12283E-04  6216   0.285E-02    0.114E-02
DAV:  16    -0.187387342095E+03   -0.22860E-04   -0.26325E-05  5928   0.150E-02    0.544E-03
DAV:  17    -0.187387347367E+03   -0.52729E-05   -0.65111E-06  4472   0.839E-03
   1 F= -.18738735E+03 E0= -.18738735E+03  d E =0.000000E+00  mag=    -0.0004
