 running on   24 total cores
 distrk:  each k-point on   24 cores,    1 groups
 distr:  one band on    6 cores,    4 groups
 using from now: INCAR     
 vasp.6.1.2 22Jul20 (build Mar 31 2021 18:09:49) complex                        
  
 POSCAR found type information on POSCAR LiO 
 POSCAR found :  2 types and       3 ions
 scaLAPACK will be used
 -----------------------------------------------------------------------------
|                                                                             |
|               ----> ADVICE to this user running VASP <----                  |
|                                                                             |
|     You have a (more or less) 'small supercell' and for smaller cells       |
|     it is recommended to use the reciprocal-space projection scheme!        |
|     The real-space optimization is not efficient for small cells and it     |
|     is also less accurate ...                                               |
|     Therefore, set LREAL=.FALSE. in the INCAR file.                         |
|                                                                             |
 -----------------------------------------------------------------------------

 LDA part: xc-table for Pade appr. of Perdew
 generate k-points for:   12   12   12
 POSCAR, INCAR and KPOINTS ok, starting setup
 FFT: planning ...
 WAVECAR not read
 entering main loop
       N       E                     dE             d eps       ncg     rms          rms(c)
DAV:   1     0.451245570145E+02    0.45125E+02   -0.56642E+03 22896   0.103E+03
DAV:   2    -0.958121658865E+01   -0.54706E+02   -0.52731E+02 27380   0.227E+02
DAV:   3    -0.152720412487E+02   -0.56908E+01   -0.56470E+01 43220   0.537E+01
DAV:   4    -0.153237643539E+02   -0.51723E-01   -0.51714E-01 26132   0.657E+00
DAV:   5    -0.153242158471E+02   -0.45149E-03   -0.45149E-03 31972   0.464E-01    0.116E+01
RMM:   6    -0.142007092252E+02    0.11235E+01   -0.35364E+00 24994   0.125E+01    0.500E+00
RMM:   7    -0.143104300861E+02   -0.10972E+00   -0.12450E-01 28189   0.296E+00    0.207E+00
RMM:   8    -0.143137113371E+02   -0.32813E-02   -0.50225E-02 32139   0.221E+00    0.116E+00
RMM:   9    -0.143264707770E+02   -0.12759E-01   -0.30765E-02 32309   0.197E+00    0.248E-01
RMM:  10    -0.143274935421E+02   -0.10228E-02   -0.88309E-03 37194   0.718E-01    0.144E-01
RMM:  11    -0.143285333197E+02   -0.10398E-02   -0.59284E-03 35332   0.602E-01    0.186E-01
RMM:  12    -0.143282860192E+02    0.24730E-03   -0.16247E-03 36122   0.335E-01    0.816E-02
RMM:  13    -0.143282801956E+02    0.58236E-05   -0.81495E-04 36503   0.230E-01    0.200E-02
WARNING in EDDRMM: call to ZHEGV failed, returncode =   6  3      2
RMM:  14    -0.143283187410E+02   -0.38545E-04   -0.30765E-04 35627   0.123E-01    0.285E-02
RMM:  15    -0.143283354121E+02   -0.16671E-04   -0.11709E-04 32806   0.792E-02    0.298E-02
RMM:  16    -0.143283381962E+02   -0.27841E-05   -0.53858E-05 29948   0.570E-02
   1 F= -.14328338E+02 E0= -.14328338E+02  d E =0.000000E+00  mag=    -0.0000
