 running on   12 total cores
 distrk:  each k-point on   12 cores,    1 groups
 distr:  one band on    6 cores,    2 groups
 using from now: INCAR     
 vasp.6.1.2 22Jul20 (build Mar 20 2021 11:25:07) complex                        
  
 POSCAR found type information on POSCAR Li
 POSCAR found :  1 types and       1 ions
 scaLAPACK will be used
 -----------------------------------------------------------------------------
|                                                                             |
|               ----> ADVICE to this user running VASP <----                  |
|                                                                             |
|     You have a (more or less) 'small supercell' and for smaller cells       |
|     it is recommended to use the reciprocal-space projection scheme!        |
|     The real-space optimization is not efficient for small cells and it     |
|     is also less accurate ...                                               |
|     Therefore, set LREAL=.FALSE. in the INCAR file.                         |
|                                                                             |
 -----------------------------------------------------------------------------

 LDA part: xc-table for Pade appr. of Perdew
 generate k-points for:   13   13   13
 POSCAR, INCAR and KPOINTS ok, starting setup
 FFT: planning ...
 WAVECAR not read
 entering main loop
       N       E                     dE             d eps       ncg     rms          rms(c)
DAV:   1     0.581102416953E+00    0.58110E+00   -0.71519E+02 14424   0.348E+02
DAV:   2    -0.152770232290E+01   -0.21088E+01   -0.20529E+01 20028   0.482E+01
DAV:   3    -0.159917992501E+01   -0.71478E-01   -0.71224E-01 17796   0.627E+00
DAV:   4    -0.160099973800E+01   -0.18198E-02   -0.18195E-02 21426   0.788E-01
DAV:   5    -0.160101119438E+01   -0.11456E-04   -0.11459E-04 18726   0.466E-02    0.545E+00
RMM:   6    -0.182851213903E+01   -0.22750E+00   -0.61551E-02 17121   0.234E+00    0.260E+00
RMM:   7    -0.190136194126E+01   -0.72850E-01   -0.19442E-02 16081   0.146E+00    0.162E-01
RMM:   8    -0.190284193151E+01   -0.14800E-02   -0.87365E-03 18006   0.846E-01    0.887E-02
RMM:   9    -0.190307348392E+01   -0.23155E-03   -0.22787E-03 21433   0.448E-01    0.337E-02
RMM:  10    -0.190344168090E+01   -0.36820E-03   -0.13603E-03 19416   0.348E-01    0.279E-02
RMM:  11    -0.190349250347E+01   -0.50823E-04   -0.27963E-04 21553   0.140E-01    0.224E-02
WARNING in EDDRMM: call to ZHEGV failed, returncode =   6  3      2
WARNING in EDDRMM: call to ZHEGV failed, returncode =   8  4      3
RMM:  12    -0.190350580907E+01   -0.13306E-04   -0.12774E-04 20478   0.103E-01    0.695E-03
RMM:  13    -0.190351657801E+01   -0.10769E-04   -0.34312E-05 18476   0.574E-02    0.548E-03
RMM:  14    -0.190351878355E+01   -0.22055E-05   -0.14061E-05 13437   0.361E-02
   1 F= -.19035188E+01 E0= -.19035188E+01  d E =0.000000E+00  mag=    -0.0001
 -----------------------------------------------------------------------------
|                                                                             |
|           W    W    AA    RRRRR   N    N  II  N    N   GGGG   !!!           |
|           W    W   A  A   R    R  NN   N  II  NN   N  G    G  !!!           |
|           W    W  A    A  R    R  N N  N  II  N N  N  G       !!!           |
|           W WW W  AAAAAA  RRRRR   N  N N  II  N  N N  G  GGG   !            |
|           WW  WW  A    A  R   R   N   NN  II  N   NN  G    G                |
|           W    W  A    A  R    R  N    N  II  N    N   GGGG   !!!           |
|                                                                             |
|     Tetrahedron method does not include variations of the Fermi             |
|     occupations, so forces and stress will be inaccurate. We suggest        |
|     using a different smearing scheme ISMEAR = 1 or 2 for metals in         |
|     relaxations.                                                            |
|                                                                             |
 -----------------------------------------------------------------------------

