 running on   24 total cores
 distrk:  each k-point on   24 cores,    1 groups
 distr:  one band on    6 cores,    4 groups
 using from now: INCAR     
 vasp.6.1.2 22Jul20 (build Mar 31 2021 18:09:49) complex                        
  
 POSCAR found type information on POSCAR LiO 
 POSCAR found :  2 types and       3 ions
 scaLAPACK will be used
 -----------------------------------------------------------------------------
|                                                                             |
|               ----> ADVICE to this user running VASP <----                  |
|                                                                             |
|     You have a (more or less) 'small supercell' and for smaller cells       |
|     it is recommended to use the reciprocal-space projection scheme!        |
|     The real-space optimization is not efficient for small cells and it     |
|     is also less accurate ...                                               |
|     Therefore, set LREAL=.FALSE. in the INCAR file.                         |
|                                                                             |
 -----------------------------------------------------------------------------

 LDA part: xc-table for Pade appr. of Perdew
 generate k-points for:   12   12   12
 POSCAR, INCAR and KPOINTS ok, starting setup
 FFT: planning ...
 WAVECAR not read
 entering main loop
       N       E                     dE             d eps       ncg     rms          rms(c)
DAV:   1     0.445068043748E+02    0.44507E+02   -0.56587E+03 22920   0.103E+03
DAV:   2    -0.962843038856E+01   -0.54135E+02   -0.52214E+02 27528   0.226E+02
DAV:   3    -0.152803071195E+02   -0.56519E+01   -0.56097E+01 43440   0.535E+01
DAV:   4    -0.153228851519E+02   -0.42578E-01   -0.42570E-01 26360   0.631E+00
DAV:   5    -0.153232192835E+02   -0.33413E-03   -0.33413E-03 32000   0.431E-01    0.116E+01
RMM:   6    -0.141866043508E+02    0.11366E+01   -0.35609E+00 25007   0.125E+01    0.499E+00
RMM:   7    -0.142904317011E+02   -0.10383E+00   -0.12465E-01 28524   0.291E+00    0.208E+00
RMM:   8    -0.142934757594E+02   -0.30441E-02   -0.51791E-02 32479   0.224E+00    0.116E+00
RMM:   9    -0.143058775436E+02   -0.12402E-01   -0.31267E-02 32830   0.199E+00    0.248E-01
RMM:  10    -0.143069685517E+02   -0.10910E-02   -0.95402E-03 37694   0.741E-01    0.143E-01
WARNING in EDDRMM: call to ZHEGV failed, returncode =   6  3      3
RMM:  11    -0.143079496542E+02   -0.98110E-03   -0.55692E-03 35871   0.588E-01    0.171E-01
RMM:  12    -0.143077924431E+02    0.15721E-03   -0.17098E-03 36667   0.336E-01    0.778E-02
RMM:  13    -0.143078000424E+02   -0.75993E-05   -0.81601E-04 36858   0.229E-01    0.204E-02
RMM:  14    -0.143078438704E+02   -0.43828E-04   -0.35078E-04 36150   0.129E-01    0.299E-02
RMM:  15    -0.143078633795E+02   -0.19509E-04   -0.13150E-04 33228   0.826E-02    0.300E-02
RMM:  16    -0.143078661586E+02   -0.27791E-05   -0.59979E-05 30553   0.589E-02
   1 F= -.14307866E+02 E0= -.14307866E+02  d E =0.000000E+00  mag=    -0.0000
