Automatically generated mesh
     686
Reciprocal lattice
    0.00000000000000    0.00000000000000    0.00000000000000             1
    0.06666666666667   -0.00000000000000    0.00000000000000             2
    0.13333333333333    0.00000000000000   -0.00000000000000             2
    0.20000000000000    0.00000000000000    0.00000000000000             2
    0.26666666666667    0.00000000000000   -0.00000000000000             2
    0.33333333333334    0.00000000000000   -0.00000000000000             2
    0.40000000000000   -0.00000000000000    0.00000000000000             2
    0.46666666666667   -0.00000000000000    0.00000000000000             2
   -0.00000000000000    0.07692307692308    0.00000000000000             4
    0.06666666666667    0.07692307692308    0.00000000000000             4
    0.13333333333333    0.07692307692308    0.00000000000000             4
    0.20000000000000    0.07692307692308    0.00000000000000             4
    0.26666666666667    0.07692307692308    0.00000000000000             4
    0.33333333333334    0.07692307692308    0.00000000000000             4
    0.40000000000000    0.07692307692308    0.00000000000000             4
    0.46666666666667    0.07692307692308    0.00000000000000             4
   -0.46666666666667    0.07692307692308    0.00000000000000             4
   -0.40000000000000    0.07692307692308    0.00000000000000             4
   -0.33333333333334    0.07692307692308    0.00000000000000             4
   -0.26666666666667    0.07692307692308    0.00000000000000             4
   -0.20000000000000    0.07692307692308    0.00000000000000             4
   -0.13333333333333    0.07692307692308    0.00000000000000             4
   -0.06666666666667    0.07692307692308    0.00000000000000             4
    0.00000000000000    0.15384615384615    0.00000000000001             4
    0.06666666666667    0.15384615384615    0.00000000000001             4
    0.13333333333333    0.15384615384615    0.00000000000001             4
    0.20000000000000    0.15384615384615    0.00000000000001             4
    0.26666666666667    0.15384615384615    0.00000000000001             4
    0.33333333333334    0.15384615384615    0.00000000000001             4
    0.40000000000000    0.15384615384615    0.00000000000001             4
    0.46666666666667    0.15384615384615    0.00000000000001             4
   -0.46666666666667    0.15384615384615    0.00000000000001             4
   -0.40000000000000    0.15384615384615    0.00000000000001             4
   -0.33333333333334    0.15384615384615    0.00000000000001             4
   -0.26666666666667    0.15384615384615    0.00000000000001             4
   -0.20000000000000    0.15384615384615    0.00000000000001             4
   -0.13333333333333    0.15384615384615    0.00000000000001             4
   -0.06666666666667    0.15384615384615    0.00000000000001             4
   -0.00000000000000    0.23076923076923   -0.00000000000000             4
    0.06666666666667    0.23076923076923   -0.00000000000000             4
    0.13333333333333    0.23076923076923   -0.00000000000000             4
    0.20000000000000    0.23076923076923   -0.00000000000000             4
    0.26666666666667    0.23076923076923   -0.00000000000000             4
    0.33333333333334    0.23076923076923   -0.00000000000000             4
    0.40000000000000    0.23076923076923   -0.00000000000000             4
    0.46666666666667    0.23076923076923   -0.00000000000000             4
   -0.46666666666667    0.23076923076923   -0.00000000000000             4
   -0.40000000000000    0.23076923076923   -0.00000000000000             4
   -0.33333333333334    0.23076923076923   -0.00000000000000             4
   -0.26666666666667    0.23076923076923   -0.00000000000000             4
   -0.20000000000000    0.23076923076923   -0.00000000000000             4
   -0.13333333333333    0.23076923076923   -0.00000000000000             4
   -0.06666666666667    0.23076923076923   -0.00000000000000             4
    0.00000000000000    0.30769230769231   -0.00000000000000             4
    0.06666666666667    0.30769230769231   -0.00000000000000             4
    0.13333333333333    0.30769230769231   -0.00000000000000             4
    0.20000000000000    0.30769230769231   -0.00000000000000             4
    0.26666666666667    0.30769230769231   -0.00000000000000             4
    0.33333333333334    0.30769230769231   -0.00000000000000             4
    0.40000000000000    0.30769230769231   -0.00000000000000             4
    0.46666666666667    0.30769230769231   -0.00000000000000             4
   -0.46666666666667    0.30769230769231   -0.00000000000000             4
   -0.40000000000000    0.30769230769231   -0.00000000000000             4
   -0.33333333333334    0.30769230769231   -0.00000000000000             4
   -0.26666666666667    0.30769230769231   -0.00000000000000             4
   -0.20000000000000    0.30769230769231   -0.00000000000000             4
   -0.13333333333333    0.30769230769231   -0.00000000000000             4
   -0.06666666666667    0.30769230769231   -0.00000000000000             4
   -0.00000000000000    0.38461538461539    0.00000000000000             4
    0.06666666666667    0.38461538461539    0.00000000000000             4
    0.13333333333333    0.38461538461539    0.00000000000000             4
    0.20000000000000    0.38461538461539    0.00000000000000             4
    0.26666666666667    0.38461538461539    0.00000000000000             4
    0.33333333333334    0.38461538461539    0.00000000000000             4
    0.40000000000000    0.38461538461539    0.00000000000000             4
    0.46666666666667    0.38461538461539    0.00000000000000             4
   -0.46666666666667    0.38461538461539    0.00000000000000             4
   -0.40000000000000    0.38461538461539    0.00000000000000             4
   -0.33333333333334    0.38461538461539    0.00000000000000             4
   -0.26666666666667    0.38461538461539    0.00000000000000             4
   -0.20000000000000    0.38461538461539    0.00000000000000             4
   -0.13333333333333    0.38461538461539    0.00000000000000             4
   -0.06666666666667    0.38461538461539    0.00000000000000             4
   -0.00000000000000    0.46153846153846    0.00000000000000             4
    0.06666666666667    0.46153846153846    0.00000000000000             4
    0.13333333333333    0.46153846153846    0.00000000000000             4
    0.20000000000000    0.46153846153846    0.00000000000000             4
    0.26666666666667    0.46153846153846    0.00000000000000             4
    0.33333333333334    0.46153846153846    0.00000000000000             4
    0.40000000000000    0.46153846153846    0.00000000000000             4
    0.46666666666667    0.46153846153846    0.00000000000000             4
   -0.46666666666667    0.46153846153846    0.00000000000000             4
   -0.40000000000000    0.46153846153846    0.00000000000000             4
   -0.33333333333334    0.46153846153846    0.00000000000000             4
   -0.26666666666667    0.46153846153846    0.00000000000000             4
   -0.20000000000000    0.46153846153846    0.00000000000000             4
   -0.13333333333333    0.46153846153846    0.00000000000000             4
   -0.06666666666667    0.46153846153846    0.00000000000000             4
   -0.00000000000000    0.07692307692308    0.07692307692308             2
    0.06666666666667    0.07692307692308    0.07692307692308             2
    0.13333333333333    0.07692307692308    0.07692307692308             2
    0.20000000000000    0.07692307692308    0.07692307692308             2
    0.26666666666667    0.07692307692308    0.07692307692308             2
    0.33333333333334    0.07692307692308    0.07692307692308             2
    0.40000000000000    0.07692307692308    0.07692307692308             2
    0.46666666666667    0.07692307692308    0.07692307692308             2
   -0.46666666666667    0.07692307692308    0.07692307692308             2
   -0.40000000000000    0.07692307692308    0.07692307692308             2
   -0.33333333333334    0.07692307692308    0.07692307692308             2
   -0.26666666666667    0.07692307692308    0.07692307692308             2
   -0.20000000000000    0.07692307692308    0.07692307692308             2
   -0.13333333333333    0.07692307692308    0.07692307692308             2
   -0.06666666666667    0.07692307692308    0.07692307692308             2
   -0.00000000000000    0.15384615384615    0.07692307692307             4
    0.06666666666667    0.15384615384615    0.07692307692307             4
    0.13333333333333    0.15384615384615    0.07692307692307             4
    0.20000000000000    0.15384615384615    0.07692307692307             4
    0.26666666666667    0.15384615384615    0.07692307692307             4
    0.33333333333334    0.15384615384615    0.07692307692307             4
    0.40000000000000    0.15384615384615    0.07692307692307             4
    0.46666666666667    0.15384615384615    0.07692307692307             4
   -0.46666666666667    0.15384615384615    0.07692307692307             4
   -0.40000000000000    0.15384615384615    0.07692307692307             4
   -0.33333333333334    0.15384615384615    0.07692307692307             4
   -0.26666666666667    0.15384615384615    0.07692307692307             4
   -0.20000000000000    0.15384615384615    0.07692307692307             4
   -0.13333333333333    0.15384615384615    0.07692307692307             4
   -0.06666666666667    0.15384615384615    0.07692307692307             4
   -0.00000000000000    0.23076923076923    0.07692307692307             4
    0.06666666666667    0.23076923076923    0.07692307692307             4
    0.13333333333333    0.23076923076923    0.07692307692307             4
    0.20000000000000    0.23076923076923    0.07692307692307             4
    0.26666666666667    0.23076923076923    0.07692307692307             4
    0.33333333333334    0.23076923076923    0.07692307692307             4
    0.40000000000000    0.23076923076923    0.07692307692307             4
    0.46666666666667    0.23076923076923    0.07692307692307             4
   -0.46666666666667    0.23076923076923    0.07692307692307             4
   -0.40000000000000    0.23076923076923    0.07692307692307             4
   -0.33333333333334    0.23076923076923    0.07692307692307             4
   -0.26666666666667    0.23076923076923    0.07692307692307             4
   -0.20000000000000    0.23076923076923    0.07692307692307             4
   -0.13333333333333    0.23076923076923    0.07692307692307             4
   -0.06666666666667    0.23076923076923    0.07692307692307             4
    0.00000000000000    0.30769230769231    0.07692307692308             4
    0.06666666666667    0.30769230769231    0.07692307692308             4
    0.13333333333333    0.30769230769231    0.07692307692308             4
    0.20000000000000    0.30769230769231    0.07692307692308             4
    0.26666666666667    0.30769230769231    0.07692307692308             4
    0.33333333333334    0.30769230769231    0.07692307692308             4
    0.40000000000000    0.30769230769231    0.07692307692308             4
    0.46666666666667    0.30769230769231    0.07692307692308             4
   -0.46666666666667    0.30769230769231    0.07692307692308             4
   -0.40000000000000    0.30769230769231    0.07692307692308             4
   -0.33333333333334    0.30769230769231    0.07692307692308             4
   -0.26666666666667    0.30769230769231    0.07692307692308             4
   -0.20000000000000    0.30769230769231    0.07692307692308             4
   -0.13333333333333    0.30769230769231    0.07692307692308             4
   -0.06666666666667    0.30769230769231    0.07692307692308             4
   -0.00000000000000    0.38461538461539    0.07692307692308             4
    0.06666666666667    0.38461538461539    0.07692307692308             4
    0.13333333333333    0.38461538461539    0.07692307692308             4
    0.20000000000000    0.38461538461539    0.07692307692308             4
    0.26666666666667    0.38461538461539    0.07692307692308             4
    0.33333333333334    0.38461538461539    0.07692307692308             4
    0.40000000000000    0.38461538461539    0.07692307692308             4
    0.46666666666667    0.38461538461539    0.07692307692308             4
   -0.46666666666667    0.38461538461539    0.07692307692308             4
   -0.40000000000000    0.38461538461539    0.07692307692308             4
   -0.33333333333334    0.38461538461539    0.07692307692308             4
   -0.26666666666667    0.38461538461539    0.07692307692308             4
   -0.20000000000000    0.38461538461539    0.07692307692308             4
   -0.13333333333333    0.38461538461539    0.07692307692308             4
   -0.06666666666667    0.38461538461539    0.07692307692308             4
   -0.00000000000000    0.46153846153846    0.07692307692307             4
    0.06666666666667    0.46153846153846    0.07692307692307             4
    0.13333333333333    0.46153846153846    0.07692307692307             4
    0.20000000000000    0.46153846153846    0.07692307692307             4
    0.26666666666667    0.46153846153846    0.07692307692307             4
    0.33333333333334    0.46153846153846    0.07692307692307             4
    0.40000000000000    0.46153846153846    0.07692307692307             4
    0.46666666666667    0.46153846153846    0.07692307692307             4
   -0.46666666666667    0.46153846153846    0.07692307692307             4
   -0.40000000000000    0.46153846153846    0.07692307692307             4
   -0.33333333333334    0.46153846153846    0.07692307692307             4
   -0.26666666666667    0.46153846153846    0.07692307692307             4
   -0.20000000000000    0.46153846153846    0.07692307692307             4
   -0.13333333333333    0.46153846153846    0.07692307692307             4
   -0.06666666666667    0.46153846153846    0.07692307692307             4
    0.00000000000000   -0.46153846153846    0.07692307692307             4
    0.06666666666667   -0.46153846153846    0.07692307692307             4
    0.13333333333333   -0.46153846153846    0.07692307692307             4
    0.20000000000000   -0.46153846153846    0.07692307692307             4
    0.26666666666667   -0.46153846153846    0.07692307692307             4
    0.33333333333334   -0.46153846153846    0.07692307692307             4
    0.40000000000000   -0.46153846153846    0.07692307692307             4
    0.46666666666667   -0.46153846153846    0.07692307692307             4
   -0.46666666666667   -0.46153846153846    0.07692307692307             4
   -0.40000000000000   -0.46153846153846    0.07692307692307             4
   -0.33333333333334   -0.46153846153846    0.07692307692307             4
   -0.26666666666667   -0.46153846153846    0.07692307692307             4
   -0.20000000000000   -0.46153846153846    0.07692307692307             4
   -0.13333333333333   -0.46153846153846    0.07692307692307             4
   -0.06666666666667   -0.46153846153846    0.07692307692307             4
    0.00000000000000   -0.38461538461539    0.07692307692308             4
    0.06666666666667   -0.38461538461539    0.07692307692308             4
    0.13333333333333   -0.38461538461539    0.07692307692308             4
    0.20000000000000   -0.38461538461539    0.07692307692308             4
    0.26666666666667   -0.38461538461539    0.07692307692308             4
    0.33333333333334   -0.38461538461539    0.07692307692308             4
    0.40000000000000   -0.38461538461539    0.07692307692308             4
    0.46666666666667   -0.38461538461539    0.07692307692308             4
   -0.46666666666667   -0.38461538461539    0.07692307692308             4
   -0.40000000000000   -0.38461538461539    0.07692307692308             4
   -0.33333333333334   -0.38461538461539    0.07692307692308             4
   -0.26666666666667   -0.38461538461539    0.07692307692308             4
   -0.20000000000000   -0.38461538461539    0.07692307692308             4
   -0.13333333333333   -0.38461538461539    0.07692307692308             4
   -0.06666666666667   -0.38461538461539    0.07692307692308             4
   -0.00000000000000   -0.30769230769231    0.07692307692308             4
    0.06666666666667   -0.30769230769231    0.07692307692308             4
    0.13333333333333   -0.30769230769231    0.07692307692308             4
    0.20000000000000   -0.30769230769231    0.07692307692308             4
    0.26666666666667   -0.30769230769231    0.07692307692308             4
    0.33333333333334   -0.30769230769231    0.07692307692308             4
    0.40000000000000   -0.30769230769231    0.07692307692308             4
    0.46666666666667   -0.30769230769231    0.07692307692308             4
   -0.46666666666667   -0.30769230769231    0.07692307692308             4
   -0.40000000000000   -0.30769230769231    0.07692307692308             4
   -0.33333333333334   -0.30769230769231    0.07692307692308             4
   -0.26666666666667   -0.30769230769231    0.07692307692308             4
   -0.20000000000000   -0.30769230769231    0.07692307692308             4
   -0.13333333333333   -0.30769230769231    0.07692307692308             4
   -0.06666666666667   -0.30769230769231    0.07692307692308             4
    0.00000000000000   -0.23076923076923    0.07692307692307             4
    0.06666666666667   -0.23076923076923    0.07692307692307             4
    0.13333333333333   -0.23076923076923    0.07692307692307             4
    0.20000000000000   -0.23076923076923    0.07692307692307             4
    0.26666666666667   -0.23076923076923    0.07692307692307             4
    0.33333333333334   -0.23076923076923    0.07692307692307             4
    0.40000000000000   -0.23076923076923    0.07692307692307             4
    0.46666666666667   -0.23076923076923    0.07692307692307             4
   -0.46666666666667   -0.23076923076923    0.07692307692307             4
   -0.40000000000000   -0.23076923076923    0.07692307692307             4
   -0.33333333333334   -0.23076923076923    0.07692307692307             4
   -0.26666666666667   -0.23076923076923    0.07692307692307             4
   -0.20000000000000   -0.23076923076923    0.07692307692307             4
   -0.13333333333333   -0.23076923076923    0.07692307692307             4
   -0.06666666666667   -0.23076923076923    0.07692307692307             4
   -0.00000000000000   -0.15384615384615    0.07692307692307             4
    0.06666666666667   -0.15384615384615    0.07692307692307             4
    0.13333333333333   -0.15384615384615    0.07692307692307             4
    0.20000000000000   -0.15384615384615    0.07692307692307             4
    0.26666666666667   -0.15384615384615    0.07692307692307             4
    0.33333333333334   -0.15384615384615    0.07692307692307             4
    0.40000000000000   -0.15384615384615    0.07692307692307             4
    0.46666666666667   -0.15384615384615    0.07692307692307             4
   -0.46666666666667   -0.15384615384615    0.07692307692307             4
   -0.40000000000000   -0.15384615384615    0.07692307692307             4
   -0.33333333333334   -0.15384615384615    0.07692307692307             4
   -0.26666666666667   -0.15384615384615    0.07692307692307             4
   -0.20000000000000   -0.15384615384615    0.07692307692307             4
   -0.13333333333333   -0.15384615384615    0.07692307692307             4
   -0.06666666666667   -0.15384615384615    0.07692307692307             4
    0.00000000000000   -0.07692307692308    0.07692307692308             2
    0.06666666666667   -0.07692307692308    0.07692307692308             4
    0.13333333333333   -0.07692307692308    0.07692307692308             4
    0.20000000000000   -0.07692307692308    0.07692307692308             4
    0.26666666666667   -0.07692307692308    0.07692307692308             4
    0.33333333333334   -0.07692307692308    0.07692307692308             4
    0.40000000000000   -0.07692307692308    0.07692307692308             4
    0.46666666666667   -0.07692307692308    0.07692307692308             4
    0.00000000000000    0.15384615384615    0.15384615384615             2
    0.06666666666667    0.15384615384615    0.15384615384615             2
    0.13333333333333    0.15384615384615    0.15384615384615             2
    0.20000000000000    0.15384615384615    0.15384615384615             2
    0.26666666666667    0.15384615384615    0.15384615384615             2
    0.33333333333334    0.15384615384615    0.15384615384615             2
    0.40000000000000    0.15384615384615    0.15384615384615             2
    0.46666666666667    0.15384615384615    0.15384615384615             2
   -0.46666666666667    0.15384615384615    0.15384615384615             2
   -0.40000000000000    0.15384615384615    0.15384615384615             2
   -0.33333333333334    0.15384615384615    0.15384615384615             2
   -0.26666666666667    0.15384615384615    0.15384615384615             2
   -0.20000000000000    0.15384615384615    0.15384615384615             2
   -0.13333333333333    0.15384615384615    0.15384615384615             2
   -0.06666666666667    0.15384615384615    0.15384615384615             2
   -0.00000000000000    0.23076923076923    0.15384615384615             4
    0.06666666666667    0.23076923076923    0.15384615384615             4
    0.13333333333333    0.23076923076923    0.15384615384615             4
    0.20000000000000    0.23076923076923    0.15384615384615             4
    0.26666666666667    0.23076923076923    0.15384615384615             4
    0.33333333333334    0.23076923076923    0.15384615384615             4
    0.40000000000000    0.23076923076923    0.15384615384615             4
    0.46666666666667    0.23076923076923    0.15384615384615             4
   -0.46666666666667    0.23076923076923    0.15384615384615             4
   -0.40000000000000    0.23076923076923    0.15384615384615             4
   -0.33333333333334    0.23076923076923    0.15384615384615             4
   -0.26666666666667    0.23076923076923    0.15384615384615             4
   -0.20000000000000    0.23076923076923    0.15384615384615             4
   -0.13333333333333    0.23076923076923    0.15384615384615             4
   -0.06666666666667    0.23076923076923    0.15384615384615             4
   -0.00000000000000    0.30769230769231    0.15384615384616             4
    0.06666666666667    0.30769230769231    0.15384615384616             4
    0.13333333333333    0.30769230769231    0.15384615384616             4
    0.20000000000000    0.30769230769231    0.15384615384616             4
    0.26666666666667    0.30769230769231    0.15384615384616             4
    0.33333333333334    0.30769230769231    0.15384615384616             4
    0.40000000000000    0.30769230769231    0.15384615384616             4
    0.46666666666667    0.30769230769231    0.15384615384616             4
   -0.46666666666667    0.30769230769231    0.15384615384616             4
   -0.40000000000000    0.30769230769231    0.15384615384616             4
   -0.33333333333334    0.30769230769231    0.15384615384616             4
   -0.26666666666667    0.30769230769231    0.15384615384616             4
   -0.20000000000000    0.30769230769231    0.15384615384616             4
   -0.13333333333333    0.30769230769231    0.15384615384616             4
   -0.06666666666667    0.30769230769231    0.15384615384616             4
    0.00000000000000    0.38461538461539    0.15384615384615             4
    0.06666666666667    0.38461538461539    0.15384615384615             4
    0.13333333333333    0.38461538461539    0.15384615384615             4
    0.20000000000000    0.38461538461539    0.15384615384615             4
    0.26666666666667    0.38461538461539    0.15384615384615             4
    0.33333333333334    0.38461538461539    0.15384615384615             4
    0.40000000000000    0.38461538461539    0.15384615384615             4
    0.46666666666667    0.38461538461539    0.15384615384615             4
   -0.46666666666667    0.38461538461539    0.15384615384615             4
   -0.40000000000000    0.38461538461539    0.15384615384615             4
   -0.33333333333334    0.38461538461539    0.15384615384615             4
   -0.26666666666667    0.38461538461539    0.15384615384615             4
   -0.20000000000000    0.38461538461539    0.15384615384615             4
   -0.13333333333333    0.38461538461539    0.15384615384615             4
   -0.06666666666667    0.38461538461539    0.15384615384615             4
   -0.00000000000000    0.46153846153846    0.15384615384615             4
    0.06666666666667    0.46153846153846    0.15384615384615             4
    0.13333333333333    0.46153846153846    0.15384615384615             4
    0.20000000000000    0.46153846153846    0.15384615384615             4
    0.26666666666667    0.46153846153846    0.15384615384615             4
    0.33333333333334    0.46153846153846    0.15384615384615             4
    0.40000000000000    0.46153846153846    0.15384615384615             4
    0.46666666666667    0.46153846153846    0.15384615384615             4
   -0.46666666666667    0.46153846153846    0.15384615384615             4
   -0.40000000000000    0.46153846153846    0.15384615384615             4
   -0.33333333333334    0.46153846153846    0.15384615384615             4
   -0.26666666666667    0.46153846153846    0.15384615384615             4
   -0.20000000000000    0.46153846153846    0.15384615384615             4
   -0.13333333333333    0.46153846153846    0.15384615384615             4
   -0.06666666666667    0.46153846153846    0.15384615384615             4
   -0.00000000000000   -0.46153846153846    0.15384615384615             4
    0.06666666666667   -0.46153846153846    0.15384615384615             4
    0.13333333333333   -0.46153846153846    0.15384615384615             4
    0.20000000000000   -0.46153846153846    0.15384615384615             4
    0.26666666666667   -0.46153846153846    0.15384615384615             4
    0.33333333333334   -0.46153846153846    0.15384615384615             4
    0.40000000000000   -0.46153846153846    0.15384615384615             4
    0.46666666666667   -0.46153846153846    0.15384615384615             4
   -0.46666666666667   -0.46153846153846    0.15384615384615             4
   -0.40000000000000   -0.46153846153846    0.15384615384615             4
   -0.33333333333334   -0.46153846153846    0.15384615384615             4
   -0.26666666666667   -0.46153846153846    0.15384615384615             4
   -0.20000000000000   -0.46153846153846    0.15384615384615             4
   -0.13333333333333   -0.46153846153846    0.15384615384615             4
   -0.06666666666667   -0.46153846153846    0.15384615384615             4
    0.00000000000000   -0.38461538461539    0.15384615384616             4
    0.06666666666667   -0.38461538461539    0.15384615384616             4
    0.13333333333333   -0.38461538461539    0.15384615384616             4
    0.20000000000000   -0.38461538461539    0.15384615384616             4
    0.26666666666667   -0.38461538461539    0.15384615384616             4
    0.33333333333334   -0.38461538461539    0.15384615384616             4
    0.40000000000000   -0.38461538461539    0.15384615384616             4
    0.46666666666667   -0.38461538461539    0.15384615384616             4
   -0.46666666666667   -0.38461538461539    0.15384615384616             4
   -0.40000000000000   -0.38461538461539    0.15384615384616             4
   -0.33333333333334   -0.38461538461539    0.15384615384616             4
   -0.26666666666667   -0.38461538461539    0.15384615384616             4
   -0.20000000000000   -0.38461538461539    0.15384615384616             4
   -0.13333333333333   -0.38461538461539    0.15384615384616             4
   -0.06666666666667   -0.38461538461539    0.15384615384616             4
   -0.00000000000000   -0.30769230769231    0.15384615384615             4
    0.06666666666667   -0.30769230769231    0.15384615384615             4
    0.13333333333333   -0.30769230769231    0.15384615384615             4
    0.20000000000000   -0.30769230769231    0.15384615384615             4
    0.26666666666667   -0.30769230769231    0.15384615384615             4
    0.33333333333334   -0.30769230769231    0.15384615384615             4
    0.40000000000000   -0.30769230769231    0.15384615384615             4
    0.46666666666667   -0.30769230769231    0.15384615384615             4
   -0.46666666666667   -0.30769230769231    0.15384615384615             4
   -0.40000000000000   -0.30769230769231    0.15384615384615             4
   -0.33333333333334   -0.30769230769231    0.15384615384615             4
   -0.26666666666667   -0.30769230769231    0.15384615384615             4
   -0.20000000000000   -0.30769230769231    0.15384615384615             4
   -0.13333333333333   -0.30769230769231    0.15384615384615             4
   -0.06666666666667   -0.30769230769231    0.15384615384615             4
    0.00000000000000   -0.23076923076923    0.15384615384615             4
    0.06666666666667   -0.23076923076923    0.15384615384615             4
    0.13333333333333   -0.23076923076923    0.15384615384615             4
    0.20000000000000   -0.23076923076923    0.15384615384615             4
    0.26666666666667   -0.23076923076923    0.15384615384615             4
    0.33333333333334   -0.23076923076923    0.15384615384615             4
    0.40000000000000   -0.23076923076923    0.15384615384615             4
    0.46666666666667   -0.23076923076923    0.15384615384615             4