 running on   12 total cores
 distrk:  each k-point on   12 cores,    1 groups
 distr:  one band on    6 cores,    2 groups
 using from now: INCAR     
 vasp.6.1.2 22Jul20 (build Mar 20 2021 11:25:07) complex                        
  
 POSCAR found type information on POSCAR Li
 POSCAR found :  1 types and       1 ions
 scaLAPACK will be used
 -----------------------------------------------------------------------------
|                                                                             |
|               ----> ADVICE to this user running VASP <----                  |
|                                                                             |
|     You have a (more or less) 'small supercell' and for smaller cells       |
|     it is recommended to use the reciprocal-space projection scheme!        |
|     The real-space optimization is not efficient for small cells and it     |
|     is also less accurate ...                                               |
|     Therefore, set LREAL=.FALSE. in the INCAR file.                         |
|                                                                             |
 -----------------------------------------------------------------------------

 LDA part: xc-table for Pade appr. of Perdew
 generate k-points for:   15   13   13
 POSCAR, INCAR and KPOINTS ok, starting setup
 FFT: planning ...
 WAVECAR not read
 entering main loop
       N       E                     dE             d eps       ncg     rms          rms(c)
DAV:   1     0.503937693999E+00    0.50394E+00   -0.71273E+02 16656   0.350E+02
DAV:   2    -0.151448829021E+01   -0.20184E+01   -0.19767E+01 23490   0.475E+01
DAV:   3    -0.157553980334E+01   -0.61052E-01   -0.61002E-01 20202   0.580E+00
DAV:   4    -0.157651452095E+01   -0.97472E-03   -0.97510E-03 23964   0.666E-01
DAV:   5    -0.157652045649E+01   -0.59355E-05   -0.59293E-05 21018   0.378E-02    0.545E+00
RMM:   6    -0.180286600383E+01   -0.22635E+00   -0.60176E-02 20072   0.246E+00    0.260E+00
RMM:   7    -0.187737374474E+01   -0.74508E-01   -0.18822E-02 18219   0.150E+00    0.164E-01
RMM:   8    -0.187880926337E+01   -0.14355E-02   -0.82594E-03 20475   0.897E-01    0.100E-01
RMM:   9    -0.187918121274E+01   -0.37195E-03   -0.24414E-03 25084   0.465E-01    0.365E-02
RMM:  10    -0.187955445979E+01   -0.37325E-03   -0.14312E-03 22437   0.370E-01    0.286E-02
RMM:  11    -0.187960905664E+01   -0.54597E-04   -0.29507E-04 25283   0.151E-01    0.243E-02
RMM:  12    -0.187962142012E+01   -0.12363E-04   -0.14642E-04 24229   0.112E-01    0.835E-03
RMM:  13    -0.187963254025E+01   -0.11120E-04   -0.40771E-05 23022   0.675E-02    0.568E-03
WARNING in EDDRMM: call to ZHEGV failed, returncode =   6  3      2
RMM:  14    -0.187963543640E+01   -0.28961E-05   -0.17022E-05 17772   0.400E-02
   1 F= -.18796354E+01 E0= -.18796354E+01  d E =0.000000E+00  mag=    -0.0000
 -----------------------------------------------------------------------------
|                                                                             |
|           W    W    AA    RRRRR   N    N  II  N    N   GGGG   !!!           |
|           W    W   A  A   R    R  NN   N  II  NN   N  G    G  !!!           |
|           W    W  A    A  R    R  N N  N  II  N N  N  G       !!!           |
|           W WW W  AAAAAA  RRRRR   N  N N  II  N  N N  G  GGG   !            |
|           WW  WW  A    A  R   R   N   NN  II  N   NN  G    G                |
|           W    W  A    A  R    R  N    N  II  N    N   GGGG   !!!           |
|                                                                             |
|     Tetrahedron method does not include variations of the Fermi             |
|     occupations, so forces and stress will be inaccurate. We suggest        |
|     using a different smearing scheme ISMEAR = 1 or 2 for metals in         |
|     relaxations.                                                            |
|                                                                             |
 -----------------------------------------------------------------------------

