       N       E                     dE             d eps       ncg     rms          rms(c)
DAV:   1     0.394503853291E+03    0.39450E+03   -0.25773E+04 10304   0.136E+03
DAV:   2    -0.431505517874E+01   -0.39882E+03   -0.36672E+03 11724   0.323E+02
DAV:   3    -0.558394941905E+02   -0.51524E+02   -0.50870E+02 14736   0.898E+01
DAV:   4    -0.632844215032E+02   -0.74449E+01   -0.73789E+01 18776   0.339E+01
DAV:   5    -0.640851389997E+02   -0.80072E+00   -0.80044E+00 15008   0.769E+00    0.207E+01
DAV:   6    -0.654253011654E+02   -0.13402E+01   -0.27957E+00 13766   0.642E+00    0.109E+01
DAV:   7    -0.666933430035E+02   -0.12680E+01   -0.71162E-01 12704   0.407E+00    0.566E+00
DAV:   8    -0.669295522543E+02   -0.23621E+00   -0.63062E-01 13236   0.298E+00    0.123E+00
DAV:   9    -0.669585980414E+02   -0.29046E-01   -0.81909E-02 15504   0.112E+00    0.477E-01
DAV:  10    -0.669623550064E+02   -0.37570E-02   -0.67695E-03 13170   0.391E-01    0.199E-01
DAV:  11    -0.669637798301E+02   -0.14248E-02   -0.19015E-03 12840   0.211E-01    0.938E-02
DAV:  12    -0.669640665417E+02   -0.28671E-03   -0.63703E-04 13048   0.105E-01    0.402E-02
DAV:  13    -0.669641134491E+02   -0.46907E-04   -0.92993E-05 11960   0.521E-02    0.208E-02
DAV:  14    -0.669641270460E+02   -0.13597E-04   -0.30163E-05 10346   0.285E-02    0.575E-03
DAV:  15    -0.669641286297E+02   -0.15837E-05   -0.43230E-06  7146   0.132E-02
   1 F= -.66964129E+02 E0= -.66964129E+02  d E =0.000000E+00  mag=    -0.0003
