 running on    8 total cores
 distrk:  each k-point on    8 cores,    1 groups
 distr:  one band on    1 cores,    8 groups
 using from now: INCAR     
 vasp.6.1.2 22Jul20 (build Mar 20 2021 11:25:07) complex                        
  
 POSCAR found type information on POSCAR LiP N O 
 POSCAR found :  4 types and      12 ions
 scaLAPACK will be used
 -----------------------------------------------------------------------------
|                                                                             |
|           W    W    AA    RRRRR   N    N  II  N    N   GGGG   !!!           |
|           W    W   A  A   R    R  NN   N  II  NN   N  G    G  !!!           |
|           W    W  A    A  R    R  N N  N  II  N N  N  G       !!!           |
|           W WW W  AAAAAA  RRRRR   N  N N  II  N  N N  G  GGG   !            |
|           WW  WW  A    A  R   R   N   NN  II  N   NN  G    G                |
|           W    W  A    A  R    R  N    N  II  N    N   GGGG   !!!           |
|                                                                             |
|     The value NCORE = 6 specified in the INCAR file was overwritten,        |
|     because it was not compatible with the 8 processes available:           |
|     NCORE = 1                                                               |
|     was used instead, please check that this makes sense for your           |
|     machine.                                                                |
|                                                                             |
 -----------------------------------------------------------------------------

 -----------------------------------------------------------------------------
|                                                                             |
|           W    W    AA    RRRRR   N    N  II  N    N   GGGG   !!!           |
|           W    W   A  A   R    R  NN   N  II  NN   N  G    G  !!!           |
|           W    W  A    A  R    R  N N  N  II  N N  N  G       !!!           |
|           W WW W  AAAAAA  RRRRR   N  N N  II  N  N N  G  GGG   !            |
|           WW  WW  A    A  R   R   N   NN  II  N   NN  G    G                |
|           W    W  A    A  R    R  N    N  II  N    N   GGGG   !!!           |
|                                                                             |
|     For optimal performance we recommend to set                             |
|       NCORE = 4 - approx SQRT(number of cores).                             |
|     NCORE specifies how many cores store one orbital (NPAR=cpu/NCORE).      |
|     This setting can greatly improve the performance of VASP for DFT.       |
|     The default, NCORE=1 might be grossly inefficient on modern             |
|     multi-core architectures or massively parallel machines. Do your        |
|     own testing!!!!                                                         |
|     Unfortunately you need to use the default for GW and RPA                |
|     calculations (for HF NCORE is supported but not extensively tested      |
|     yet).                                                                   |
|                                                                             |
 -----------------------------------------------------------------------------

 LDA part: xc-table for Pade appr. of Perdew
 generate k-points for:    7    7    7
 POSCAR, INCAR and KPOINTS ok, starting setup
 FFT: planning ...
 WAVECAR not read
 entering main loop
       N       E                     dE             d eps       ncg     rms          rms(c)
DAV:   1     0.413169036348E+03    0.41317E+03   -0.27028E+04 10240   0.144E+03
DAV:   2    -0.418770131257E+02   -0.45505E+03   -0.43533E+03 11848   0.364E+02
DAV:   3    -0.807990733423E+02   -0.38922E+02   -0.38719E+02 14968   0.100E+02
DAV:   4    -0.842900229158E+02   -0.34909E+01   -0.34772E+01 17392   0.233E+01
DAV:   5    -0.845268257845E+02   -0.23680E+00   -0.23679E+00 14296   0.457E+00    0.308E+01
RMM:   6    -0.767543308012E+02    0.77725E+01   -0.30472E+01 10897   0.224E+01    0.124E+01
RMM:   7    -0.772872270821E+02   -0.53290E+00   -0.41734E+00 15253   0.940E+00    0.651E+00
RMM:   8    -0.774442395414E+02   -0.15701E+00   -0.85128E-01 16839   0.453E+00    0.347E+00
RMM:   9    -0.774785897687E+02   -0.34350E-01   -0.25179E-01 16409   0.298E+00    0.963E-01
RMM:  10    -0.775034664252E+02   -0.24877E-01   -0.18130E-01 18882   0.179E+00    0.354E-01
RMM:  11    -0.775130132313E+02   -0.95468E-02   -0.80839E-02 19422   0.106E+00    0.250E-01
RMM:  12    -0.775175318459E+02   -0.45186E-02   -0.32885E-02 19850   0.680E-01    0.156E-01
RMM:  13    -0.775193587594E+02   -0.18269E-02   -0.13890E-02 19575   0.438E-01    0.656E-02
RMM:  14    -0.775200650578E+02   -0.70630E-03   -0.56504E-03 19622   0.307E-01    0.348E-02
RMM:  15    -0.775203633359E+02   -0.29828E-03   -0.28073E-03 19237   0.193E-01    0.242E-02
RMM:  16    -0.775204781062E+02   -0.11477E-03   -0.10901E-03 18961   0.128E-01    0.154E-02
RMM:  17    -0.775205254233E+02   -0.47317E-04   -0.52607E-04 18542   0.886E-02    0.910E-03
RMM:  18    -0.775205576856E+02   -0.32262E-04   -0.25590E-04 18154   0.631E-02    0.801E-03
RMM:  19    -0.775205654000E+02   -0.77144E-05   -0.84896E-05 15119   0.430E-02
   1 F= -.77520565E+02 E0= -.77520565E+02  d E =0.000000E+00  mag=    -0.0000
