 running on   12 total cores
 distrk:  each k-point on   12 cores,    1 groups
 distr:  one band on    6 cores,    2 groups
 using from now: INCAR     
 vasp.6.1.2 22Jul20 (build Mar 20 2021 11:25:07) complex                        
  
 POSCAR found type information on POSCAR P O 
 POSCAR found :  2 types and      14 ions
 scaLAPACK will be used
 LDA part: xc-table for Pade appr. of Perdew
 generate k-points for:    8    7    7
 POSCAR, INCAR and KPOINTS ok, starting setup
 FFT: planning ...
 WAVECAR not read
 entering main loop
       N       E                     dE             d eps       ncg     rms          rms(c)
DAV:   1     0.546031270228E+03    0.54603E+03   -0.43434E+04 41264   0.143E+03
DAV:   2    -0.733718030271E+02   -0.61940E+03   -0.60291E+03 51124   0.340E+02
DAV:   3    -0.109541995584E+03   -0.36170E+02   -0.35943E+02 49520   0.882E+01
DAV:   4    -0.110081068394E+03   -0.53907E+00   -0.53697E+00 50864   0.114E+01
DAV:   5    -0.110093012535E+03   -0.11944E-01   -0.11927E-01 49696   0.163E+00    0.457E+01
DAV:   6    -0.938793008651E+02    0.16214E+02   -0.54859E+01 46244   0.351E+01    0.236E+01
DAV:   7    -0.972230876697E+02   -0.33438E+01   -0.88488E+00 48216   0.120E+01    0.686E+00
DAV:   8    -0.976226090101E+02   -0.39952E+00   -0.11162E+00 49228   0.474E+00    0.304E+00
DAV:   9    -0.976212216201E+02    0.13874E-02   -0.55234E-02 49108   0.155E+00    0.145E+00
DAV:  10    -0.976205834254E+02    0.63819E-03   -0.24911E-02 55672   0.989E-01    0.440E-01
DAV:  11    -0.976220723294E+02   -0.14889E-02   -0.43215E-03 48492   0.356E-01    0.257E-01
DAV:  12    -0.976223718611E+02   -0.29953E-03   -0.13101E-03 50624   0.204E-01    0.110E-01
DAV:  13    -0.976224565015E+02   -0.84640E-04   -0.11905E-04 49316   0.669E-02    0.443E-02
DAV:  14    -0.976224772605E+02   -0.20759E-04   -0.61607E-05 46776   0.450E-02    0.171E-02
DAV:  15    -0.976224835952E+02   -0.63347E-05   -0.81687E-06 30188   0.172E-02
   1 F= -.97622484E+02 E0= -.97622484E+02  d E =0.000000E+00  mag=    -0.0006
