 running on   12 total cores
 distrk:  each k-point on   12 cores,    1 groups
 distr:  one band on    6 cores,    2 groups
 using from now: INCAR     
 vasp.6.1.2 22Jul20 (build Mar 20 2021 11:25:07) complex                        
  
 POSCAR found type information on POSCAR LiO 
 POSCAR found :  2 types and       9 ions
 scaLAPACK will be used
 LDA part: xc-table for Pade appr. of Perdew
 generate k-points for:    8    7    7
 POSCAR, INCAR and KPOINTS ok, starting setup
 FFT: planning ...
 WAVECAR not read
 entering main loop
       N       E                     dE             d eps       ncg     rms          rms(c)
DAV:   1     0.367816896371E+03    0.36782E+03   -0.28162E+04 26808   0.147E+03
DAV:   2    -0.182679080686E+02   -0.38608E+03   -0.37311E+03 34670   0.355E+02
DAV:   3    -0.431045086424E+02   -0.24837E+02   -0.24586E+02 39170   0.912E+01
DAV:   4    -0.440151068172E+02   -0.91060E+00   -0.90574E+00 45096   0.125E+01
DAV:   5    -0.440898102191E+02   -0.74703E-01   -0.74697E-01 36044   0.177E+00    0.147E+01
RMM:   6    -0.449698953684E+02   -0.88009E+00   -0.37916E+00 30860   0.103E+01    0.148E+01
RMM:   7    -0.438383088776E+02    0.11316E+01   -0.14605E+00 30644   0.654E+00    0.771E+00
RMM:   8    -0.438144740860E+02    0.23835E-01   -0.74261E-01 30669   0.478E+00    0.722E+00
RMM:   9    -0.434316273034E+02    0.38285E+00   -0.38452E-01 30896   0.349E+00    0.369E+00
RMM:  10    -0.434183715773E+02    0.13256E-01   -0.12999E-01 31624   0.208E+00    0.232E+00
RMM:  11    -0.434070170823E+02    0.11354E-01   -0.38886E-02 33447   0.121E+00    0.918E-01
RMM:  12    -0.434132383301E+02   -0.62212E-02   -0.24883E-02 33793   0.102E+00    0.397E-01
RMM:  13    -0.434168103043E+02   -0.35720E-02   -0.65638E-03 39153   0.499E-01    0.261E-01
RMM:  14    -0.434189028352E+02   -0.20925E-02   -0.32897E-03 39412   0.341E-01    0.234E-01
RMM:  15    -0.434209447430E+02   -0.20419E-02   -0.24098E-03 39139   0.296E-01    0.233E-01
WARNING in EDDRMM: call to ZHEGV failed, returncode =   6  3      5
RMM:  16    -0.434223932111E+02   -0.14485E-02   -0.13575E-03 40322   0.219E-01    0.237E-01
RMM:  17    -0.434207344999E+02    0.16587E-02   -0.79646E-04 36651   0.200E-01    0.245E-01
RMM:  18    -0.434252772668E+02   -0.45428E-02   -0.65832E-03 49273   0.504E-01    0.277E-01
RMM:  19    -0.434173883611E+02    0.78889E-02   -0.16554E-02 49951   0.845E-01    0.249E-01
RMM:  20    -0.433874583005E+02    0.29930E-01   -0.17294E-01 52794   0.247E+00    0.665E-01
RMM:  21    -0.434036779117E+02   -0.16220E-01   -0.82078E-03 48872   0.810E-01    0.518E-01
RMM:  22    -0.434097341609E+02   -0.60562E-02   -0.51654E-02 52128   0.145E+00    0.284E-01
RMM:  23    -0.434151986122E+02   -0.54645E-02   -0.78418E-03 49083   0.513E-01    0.268E-01
RMM:  24    -0.434148221426E+02    0.37647E-03   -0.21284E-03 37373   0.361E-01    0.324E-01
RMM:  25    -0.434150256013E+02   -0.20346E-03   -0.11240E-04 36624   0.866E-02    0.317E-01
RMM:  26    -0.434149325226E+02    0.93079E-04   -0.12842E-04 35103   0.739E-02    0.328E-01
RMM:  27    -0.434164178981E+02   -0.14854E-02   -0.52374E-03 50867   0.433E-01    0.421E-01
RMM:  28    -0.434186956847E+02   -0.22778E-02   -0.47874E-03 51166   0.392E-01    0.489E-01
RMM:  29    -0.434190697021E+02   -0.37402E-03   -0.20394E-04 38794   0.126E-01    0.486E-01
RMM:  30    -0.434193657218E+02   -0.29602E-03   -0.75166E-05 37578   0.515E-02    0.487E-01
RMM:  31    -0.434175916278E+02    0.17741E-02   -0.81246E-04 47662   0.196E-01    0.503E-01
RMM:  32    -0.434202439736E+02   -0.26523E-02   -0.19173E-03 49456   0.310E-01    0.490E-01
RMM:  33    -0.434197426815E+02    0.50129E-03   -0.18829E-04 38704   0.121E-01    0.508E-01
RMM:  34    -0.434203771998E+02   -0.63452E-03   -0.29504E-02 52988   0.123E+00    0.481E-01
RMM:  35    -0.434220622784E+02   -0.16851E-02   -0.18308E-02 52770   0.826E-01    0.578E-01
RMM:  36    -0.434239937879E+02   -0.19315E-02   -0.11468E-03 49367   0.231E-01    0.573E-01
RMM:  37    -0.434251411301E+02   -0.11473E-02   -0.21999E-04 43787   0.120E-01    0.559E-01
RMM:  38    -0.434231479046E+02    0.19932E-02   -0.12313E-02 52374   0.720E-01    0.489E-01
RMM:  39    -0.434139030149E+02    0.92449E-02   -0.16421E-02 52780   0.761E-01    0.486E-01
RMM:  40    -0.434095765257E+02    0.43265E-02   -0.17995E-03 50254   0.267E-01    0.516E-01
RMM:  41    -0.434089202455E+02    0.65628E-03   -0.17724E-04 43521   0.766E-02    0.512E-01
RMM:  42    -0.434131146175E+02   -0.41944E-02   -0.57417E-02 52793   0.150E+00    0.578E-01
RMM:  43    -0.434184113140E+02   -0.52967E-02   -0.64206E-03 51940   0.484E-01    0.528E-01
RMM:  44    -0.434203337983E+02   -0.19225E-02   -0.40525E-04 47087   0.153E-01    0.507E-01
RMM:  45    -0.434205232452E+02   -0.18945E-03   -0.10252E-03 48315   0.214E-01    0.507E-01
WARNING in EDDRMM: call to ZHEGV failed, returncode =   8  4     15
RMM:  46    -0.434210174169E+02   -0.49417E-03   -0.50440E-05 34794   0.486E-02    0.495E-01
RMM:  47    -0.434233559632E+02   -0.23385E-02   -0.31005E-03 51248   0.333E-01    0.448E-01
RMM:  48    -0.434267530386E+02   -0.33971E-02   -0.20573E-03 50921   0.260E-01    0.372E-01
RMM:  49    -0.434266092571E+02    0.14378E-03   -0.69183E-05 38072   0.617E-02    0.384E-01
RMM:  50    -0.434266959667E+02   -0.86710E-04   -0.71229E-06 23132   0.246E-02    0.383E-01
WARNING in EDDRMM: call to ZHEGV failed, returncode =   6  3      8
WARNING in EDDRMM: call to ZHEGV failed, returncode =   8  4      6
RMM:  51    -0.434261895220E+02    0.50644E-03   -0.31556E-05 28087   0.334E-02    0.393E-01
RMM:  52    -0.434265899924E+02   -0.40047E-03   -0.15982E-05 23164   0.263E-02    0.386E-01
RMM:  53    -0.434271130144E+02   -0.52302E-03   -0.23626E-05 24780   0.335E-02    0.378E-01
RMM:  54    -0.434300107174E+02   -0.28977E-02   -0.54134E-03 51692   0.484E-01    0.371E-01
RMM:  55    -0.434307263287E+02   -0.71561E-03   -0.72478E-04 41940   0.196E-01    0.329E-01
RMM:  56    -0.434331261895E+02   -0.23999E-02   -0.41195E-04 36518   0.156E-01    0.290E-01
RMM:  57    -0.434337474477E+02   -0.62126E-03   -0.35531E-04 38631   0.113E-01    0.265E-01
RMM:  58    -0.434355784491E+02   -0.18310E-02   -0.27602E-04 35860   0.129E-01    0.228E-01
RMM:  59    -0.434371432714E+02   -0.15648E-02   -0.47050E-04 42397   0.143E-01    0.176E-01
RMM:  60    -0.434385516409E+02   -0.14084E-02   -0.54795E-04 44146   0.159E-01    0.118E-01
RMM:  61    -0.434390570408E+02   -0.50540E-03   -0.11411E-04 36759   0.778E-02    0.990E-02
RMM:  62    -0.434390663335E+02   -0.92926E-05   -0.17187E-06 19832   0.150E-02
   1 F= -.43439066E+02 E0= -.43439066E+02  d E =0.000000E+00  mag=     0.5063
 -----------------------------------------------------------------------------
|                                                                             |
|           W    W    AA    RRRRR   N    N  II  N    N   GGGG   !!!           |
|           W    W   A  A   R    R  NN   N  II  NN   N  G    G  !!!           |
|           W    W  A    A  R    R  N N  N  II  N N  N  G       !!!           |
|           W WW W  AAAAAA  RRRRR   N  N N  II  N  N N  G  GGG   !            |
|           WW  WW  A    A  R   R   N   NN  II  N   NN  G    G                |
|           W    W  A    A  R    R  N    N  II  N    N   GGGG   !!!           |
|                                                                             |
|     Tetrahedron method does not include variations of the Fermi             |
|     occupations, so forces and stress will be inaccurate. We suggest        |
|     using a different smearing scheme ISMEAR = 1 or 2 for metals in         |
|     relaxations.                                                            |
|                                                                             |
 -----------------------------------------------------------------------------

