 running on    8 total cores
 distrk:  each k-point on    8 cores,    1 groups
 distr:  one band on    1 cores,    8 groups
 using from now: INCAR     
 vasp.6.1.2 22Jul20 (build Mar 20 2021 11:25:07) complex                        
  
 POSCAR found type information on POSCAR LiN 
 POSCAR found :  2 types and       4 ions
 scaLAPACK will be used
 -----------------------------------------------------------------------------
|                                                                             |
|           W    W    AA    RRRRR   N    N  II  N    N   GGGG   !!!           |
|           W    W   A  A   R    R  NN   N  II  NN   N  G    G  !!!           |
|           W    W  A    A  R    R  N N  N  II  N N  N  G       !!!           |
|           W WW W  AAAAAA  RRRRR   N  N N  II  N  N N  G  GGG   !            |
|           WW  WW  A    A  R   R   N   NN  II  N   NN  G    G                |
|           W    W  A    A  R    R  N    N  II  N    N   GGGG   !!!           |
|                                                                             |
|     The value NCORE = 6 specified in the INCAR file was overwritten,        |
|     because it was not compatible with the 8 processes available:           |
|     NCORE = 1                                                               |
|     was used instead, please check that this makes sense for your           |
|     machine.                                                                |
|                                                                             |
 -----------------------------------------------------------------------------

 -----------------------------------------------------------------------------
|                                                                             |
|           W    W    AA    RRRRR   N    N  II  N    N   GGGG   !!!           |
|           W    W   A  A   R    R  NN   N  II  NN   N  G    G  !!!           |
|           W    W  A    A  R    R  N N  N  II  N N  N  G       !!!           |
|           W WW W  AAAAAA  RRRRR   N  N N  II  N  N N  G  GGG   !            |
|           WW  WW  A    A  R   R   N   NN  II  N   NN  G    G                |
|           W    W  A    A  R    R  N    N  II  N    N   GGGG   !!!           |
|                                                                             |
|     For optimal performance we recommend to set                             |
|       NCORE = 4 - approx SQRT(number of cores).                             |
|     NCORE specifies how many cores store one orbital (NPAR=cpu/NCORE).      |
|     This setting can greatly improve the performance of VASP for DFT.       |
|     The default, NCORE=1 might be grossly inefficient on modern             |
|     multi-core architectures or massively parallel machines. Do your        |
|     own testing!!!!                                                         |
|     Unfortunately you need to use the default for GW and RPA                |
|     calculations (for HF NCORE is supported but not extensively tested      |
|     yet).                                                                   |
|                                                                             |
 -----------------------------------------------------------------------------

 -----------------------------------------------------------------------------
|                                                                             |
|               ----> ADVICE to this user running VASP <----                  |
|                                                                             |
|     You have a (more or less) 'small supercell' and for smaller cells       |
|     it is recommended to use the reciprocal-space projection scheme!        |
|     The real-space optimization is not efficient for small cells and it     |
|     is also less accurate ...                                               |
|     Therefore, set LREAL=.FALSE. in the INCAR file.                         |
|                                                                             |
 -----------------------------------------------------------------------------

 LDA part: xc-table for Pade appr. of Perdew
 -----------------------------------------------------------------------------
|                                                                             |
|           W    W    AA    RRRRR   N    N  II  N    N   GGGG   !!!           |
|           W    W   A  A   R    R  NN   N  II  NN   N  G    G  !!!           |
|           W    W  A    A  R    R  N N  N  II  N N  N  G       !!!           |
|           W WW W  AAAAAA  RRRRR   N  N N  II  N  N N  G  GGG   !            |
|           WW  WW  A    A  R   R   N   NN  II  N   NN  G    G                |
|           W    W  A    A  R    R  N    N  II  N    N   GGGG   !!!           |
|                                                                             |
|     The determination of the symmetry of your systems shows a strong        |
|     dependence on the tolerance parameter SYMPREC. This is often the        |
|     result of "noise" in the structural parameters (lattice vectors         |
|     and/or ionic positions). Set NWRITE=3 for more details.                 |
|                                                                             |
 -----------------------------------------------------------------------------

 generate k-points for:   10   10    8
 POSCAR, INCAR and KPOINTS ok, starting setup
 FFT: planning ...
 WAVECAR not read
 entering main loop
       N       E                     dE             d eps       ncg     rms          rms(c)
DAV:   1     0.645375050899E+02    0.64538E+02   -0.59163E+03  4480   0.884E+02
DAV:   2    -0.765987432290E+01   -0.72197E+02   -0.67133E+02  5808   0.220E+02
DAV:   3    -0.184754998660E+02   -0.10816E+02   -0.10734E+02  8736   0.556E+01
DAV:   4    -0.186035731436E+02   -0.12807E+00   -0.12806E+00  5088   0.922E+00
DAV:   5    -0.186055151573E+02   -0.19420E-02   -0.19420E-02  6752   0.878E-01    0.141E+01
RMM:   6    -0.157420949969E+02    0.28634E+01   -0.56114E+00  5138   0.105E+01    0.680E+00
RMM:   7    -0.156876787807E+02    0.54416E-01   -0.46702E-01  5312   0.573E+00    0.238E+00
RMM:   8    -0.155933822187E+02    0.94297E-01   -0.14767E-01  6281   0.273E+00    0.139E+00
RMM:   9    -0.156082739806E+02   -0.14892E-01   -0.61997E-02  6280   0.191E+00    0.498E-01
RMM:  10    -0.156093409323E+02   -0.10670E-02   -0.19265E-02  7324   0.912E-01    0.239E-01
RMM:  11    -0.156101773036E+02   -0.83637E-03   -0.54949E-03  6853   0.443E-01    0.119E-01
RMM:  12    -0.156107856984E+02   -0.60839E-03   -0.25510E-03  6873   0.364E-01    0.438E-02
RMM:  13    -0.156109442667E+02   -0.15857E-03   -0.12066E-03  7402   0.185E-01    0.274E-02
RMM:  14    -0.156110066742E+02   -0.62407E-04   -0.43447E-04  7236   0.110E-01    0.871E-03
RMM:  15    -0.156110292164E+02   -0.22542E-04   -0.13482E-04  6550   0.668E-02    0.700E-03
RMM:  16    -0.156110347045E+02   -0.54881E-05   -0.52682E-05  6084   0.394E-02
   1 F= -.15611035E+02 E0= -.15611035E+02  d E =0.000000E+00  mag=     0.0000
