       N       E                     dE             d eps       ncg     rms          rms(c)
DAV:   1     0.175860124654E+03    0.17586E+03   -0.16795E+04 34752   0.122E+03
DAV:   2    -0.398520062379E+02   -0.21571E+03   -0.20770E+03 47272   0.291E+02
DAV:   3    -0.501911170202E+02   -0.10339E+02   -0.10292E+02 46256   0.666E+01
DAV:   4    -0.503008722055E+02   -0.10976E+00   -0.10971E+00 42088   0.769E+00
DAV:   5    -0.503026900315E+02   -0.18178E-02   -0.18174E-02 46184   0.937E-01    0.308E+01
RMM:   6    -0.438162416239E+02    0.64864E+01   -0.17463E+01 35323   0.231E+01    0.132E+01
RMM:   7    -0.439446355128E+02   -0.12839E+00   -0.42378E+00 40913   0.120E+01    0.563E+00
RMM:   8    -0.439244016584E+02    0.20234E-01   -0.33035E-01 41290   0.403E+00    0.336E+00
RMM:   9    -0.439263666096E+02   -0.19650E-02   -0.10185E-01 41537   0.221E+00    0.865E-01
RMM:  10    -0.439258910803E+02    0.47553E-03   -0.16356E-02 44136   0.900E-01    0.220E-01
RMM:  11    -0.439259908229E+02   -0.99743E-04   -0.11060E-02 43603   0.586E-01    0.186E-01
RMM:  12    -0.439261181274E+02   -0.12730E-03   -0.12070E-03 43072   0.237E-01    0.970E-02
RMM:  13    -0.439261399335E+02   -0.21806E-04   -0.35798E-04 42716   0.131E-01    0.276E-02
RMM:  14    -0.439261525841E+02   -0.12651E-04   -0.80070E-05 41565   0.541E-02    0.140E-02
RMM:  15    -0.439261518688E+02    0.71536E-06   -0.12824E-05 31535   0.232E-02
   1 F= -.43926152E+02 E0= -.43926152E+02  d E =0.000000E+00  mag=    -0.0000
