   96   96    1    2
  0.8658486E+01  0.9416329E-09  0.9416329E-09  0.9416329E-09  0.5000000E-15
  1.000000000000000E-004
  CAR 
 unknown system                          
    368      8    264
 
  0.0000000E+00  0.0000000E+00  0.0000000E+00  0.3703704E-01
    1      -40.859135    -40.859137   1.000000   1.000000
    2      -40.857792    -40.857794   1.000000   1.000000
    3      -40.854033    -40.854035   1.000000   1.000000
    4      -40.852969    -40.852971   1.000000   1.000000
    5      -40.820545    -40.820547   1.000000   1.000000
    6      -40.820341    -40.820343   1.000000   1.000000
    7      -40.814713    -40.814716   1.000000   1.000000
    8      -40.814693    -40.814696   1.000000   1.000000
    9      -40.694848    -40.694849   1.000000   1.000000
   10      -40.694737    -40.694738   1.000000   1.000000
   11      -40.684852    -40.684854   1.000000   1.000000
   12      -40.684477    -40.684478   1.000000   1.000000
   13      -40.619687    -40.619690   1.000000   1.000000
   14      -40.619557    -40.619559   1.000000   1.000000
   15      -40.553942    -40.553944   1.000000   1.000000
   16      -40.552433    -40.552435   1.000000   1.000000
   17      -40.543037    -40.543039   1.000000   1.000000
   18      -40.542759    -40.542761   1.000000   1.000000
   19      -40.536541    -40.536543   1.000000   1.000000
   20      -40.529972    -40.529974   1.000000   1.000000
   21      -40.523856    -40.523858   1.000000   1.000000
   22      -40.519758    -40.519760   1.000000   1.000000
   23      -40.512983    -40.512985   1.000000   1.000000
   24      -40.511141    -40.511142   1.000000   1.000000
   25      -40.499985    -40.499987   1.000000   1.000000
   26      -40.495203    -40.495204   1.000000   1.000000
   27      -40.481566    -40.481564   1.000000   1.000000
   28      -40.480813    -40.480811   1.000000   1.000000
   29      -40.474436    -40.474436   1.000000   1.000000
   30      -40.474320    -40.474320   1.000000   1.000000
   31      -40.462275    -40.462276   1.000000   1.000000
   32      -40.458391    -40.458392   1.000000   1.000000
   33      -40.449968    -40.449969   1.000000   1.000000
   34      -40.449012    -40.449014   1.000000   1.000000
   35      -40.425425    -40.425427   1.000000   1.000000
   36      -40.424384    -40.424386   1.000000   1.000000
   37      -40.423599    -40.423601   1.000000   1.000000
   38      -40.422879    -40.422880   1.000000   1.000000
   39      -40.363324    -40.363328   1.000000   1.000000
   40      -40.363228    -40.363231   1.000000   1.000000
   41      -40.329596    -40.329599   1.000000   1.000000
   42      -40.329534    -40.329536   1.000000   1.000000
   43      -40.318635    -40.318638   1.000000   1.000000
   44      -40.317569    -40.317573   1.000000   1.000000
   45      -40.277067    -40.277069   1.000000   1.000000
   46      -40.277046    -40.277048   1.000000   1.000000
   47      -40.273791    -40.273794   1.000000   1.000000
   48      -40.271946    -40.271948   1.000000   1.000000
   49      -40.271835    -40.271837   1.000000   1.000000
   50      -40.270081    -40.270084   1.000000   1.000000
   51      -39.902648    -39.902652   1.000000   1.000000
   52      -39.902484    -39.902488   1.000000   1.000000
   53      -39.881700    -39.881702   1.000000   1.000000
   54      -39.876314    -39.876317   1.000000   1.000000
   55      -39.868978    -39.868981   1.000000   1.000000
   56      -39.868963    -39.868966   1.000000   1.000000
   57      -12.854957    -12.854973   1.000000   1.000000
   58      -12.850168    -12.850184   1.000000   1.000000
   59      -12.724374    -12.724388   1.000000   1.000000
   60      -12.720941    -12.720956   1.000000   1.000000
   61      -12.717143    -12.717157   1.000000   1.000000
   62      -12.714897    -12.714911   1.000000   1.000000
   63      -12.705393    -12.705407   1.000000   1.000000
   64      -12.704148    -12.704162   1.000000   1.000000
   65       -9.672397     -9.672406   1.000000   1.000000
   66       -9.658619     -9.658630   1.000000   1.000000
   67       -9.647430     -9.647441   1.000000   1.000000
   68       -9.633817     -9.633827   1.000000   1.000000
   69       -9.560064     -9.560073   1.000000   1.000000
   70       -9.554861     -9.554870   1.000000   1.000000
   71       -9.550714     -9.550724   1.000000   1.000000
   72       -9.545215     -9.545224   1.000000   1.000000
   73       -9.534793     -9.534800   1.000000   1.000000
   74       -9.487309     -9.487318   1.000000   1.000000
   75       -9.441762     -9.441769   1.000000   1.000000
   76       -9.434972     -9.434981   1.000000   1.000000
   77       -9.431127     -9.431135   1.000000   1.000000
   78       -9.424208     -9.424216   1.000000   1.000000
   79       -9.370052     -9.370059   1.000000   1.000000
   80       -9.354312     -9.354319   1.000000   1.000000
   81       -9.339516     -9.339524   1.000000   1.000000
   82       -9.305326     -9.305332   1.000000   1.000000
   83       -9.303870     -9.303878   1.000000   1.000000
   84       -9.277849     -9.277856   1.000000   1.000000
   85       -9.271600     -9.271607   1.000000   1.000000
   86       -9.259910     -9.259917   1.000000   1.000000
   87       -9.238707     -9.238714   1.000000   1.000000
   88       -9.221451     -9.221459   1.000000   1.000000
   89       -2.997865     -2.997877   1.000000   1.000000
   90       -2.726828     -2.726841   1.000000   1.000000
   91       -2.713505     -2.713518   1.000000   1.000000
   92       -2.674762     -2.674776   1.000000   1.000000
   93       -2.665616     -2.665629   1.000000   1.000000
   94       -2.597463     -2.597477   1.000000   1.000000
   95       -2.597326     -2.597341   1.000000   1.000000
   96       -2.557576     -2.557592   1.000000   1.000000
   97       -1.167215     -1.167218   1.000000   1.000000
   98       -1.155568     -1.155571   1.000000   1.000000
   99       -1.125062     -1.125064   1.000000   1.000000
  100       -1.116178     -1.116181   1.000000   1.000000
  101       -1.089002     -1.089005   1.000000   1.000000
  102       -1.084628     -1.084631   1.000000   1.000000
  103       -0.933938     -0.933941   1.000000   1.000000
  104       -0.859592     -0.859598   1.000000   1.000000
  105       -0.818837     -0.818842   1.000000   1.000000
  106       -0.814423     -0.814427   1.000000   1.000000
  107       -0.804424     -0.804431   1.000000   1.000000
  108       -0.796246     -0.796252   1.000000   1.000000
  109       -0.757158     -0.757165   1.000000   1.000000
  110       -0.736002     -0.736006   1.000000   1.000000
  111       -0.659504     -0.659511   1.000000   1.000000
  112       -0.560489     -0.560496   1.000000   1.000000
  113       -0.478130     -0.478140   1.000000   1.000000
  114       -0.436694     -0.436704   1.000000   1.000000
  115       -0.426056     -0.426066   1.000000   1.000000
  116       -0.392057     -0.392066   1.000000   1.000000
  117       -0.382990     -0.382999   1.000000   1.000000
  118       -0.312706     -0.312716   1.000000   1.000000
  119       -0.268628     -0.268638   1.000000   1.000000
  120       -0.267797     -0.267808   1.000000   1.000000
  121        1.094962      1.094964   1.000000   1.000000
  122        1.102680      1.102682   1.000000   1.000000
  123        1.308228      1.308227   1.000000   1.000000
  124        1.309645      1.309647   1.000000   1.000000
  125        1.327114      1.327115   1.000000   1.000000
  126        1.356863      1.356863   1.000000   1.000000
  127        1.358652      1.358653   1.000000   1.000000
  128        1.406774      1.406772   1.000000   1.000000
  129        1.410200      1.410198   1.000000   1.000000
  130        1.451316      1.451313   1.000000   1.000000
  131        1.474165      1.474171   1.000000   1.000000
  132        1.480210      1.480217   1.000000   1.000000
  133        1.506848      1.506852   1.000000   1.000000
  134        1.646941      1.646939   1.000000   1.000000
  135        1.699135      1.699135   1.000000   1.000000
  136        1.732508      1.732509   1.000000   1.000000
  137        1.746761      1.746761   1.000000   1.000000
  138        1.748990      1.748986   1.000000   1.000000
  139        1.771340      1.771336   1.000000   1.000000
  140        1.878402      1.878401   1.000000   1.000000
  141        1.899774      1.899771   1.000000   1.000000
  142        1.923981      1.923978   1.000000   1.000000
  143        1.935593      1.935591   1.000000   1.000000
  144        1.963422      1.963420   1.000000   1.000000
  145        1.990336      1.990335   1.000000   1.000000
  146        2.001863      2.001860   1.000000   1.000000
  147        2.003278      2.003276   1.000000   1.000000
  148        2.030070      2.030069   1.000000   1.000000
  149        2.059986      2.059984   1.000000   1.000000
  150        2.081848      2.081843   1.000000   1.000000
  151        2.101945      2.101940   1.000000   1.000000
  152        2.267519      2.267517   1.000000   1.000000
  153        2.331717      2.331716   1.000000   1.000000
  154        2.352548      2.352545   1.000000   1.000000
  155        2.398013      2.398013   1.000000   1.000000
  156        2.409602      2.409598   1.000000   1.000000
  157        2.458688      2.458685   1.000000   1.000000
  158        2.541133      2.541132   1.000000   1.000000
  159        2.543193      2.543190   1.000000   1.000000
  160        2.575004      2.575003   1.000000   1.000000
  161        2.655783      2.655780   1.000000   1.000000
  162        2.658212      2.658209   1.000000   1.000000
  163        2.686018      2.686016   1.000000   1.000000
  164        2.710846      2.710845   1.000000   1.000000
  165        2.860050      2.860046   1.000000   1.000000
  166        2.923631      2.923627   1.000000   1.000000
  167        2.934394      2.934390   1.000000   1.000000
  168        2.940399      2.940393   1.000000   1.000000
  169        2.953155      2.953149   1.000000   1.000000
  170        3.107433      3.107428   1.000000   1.000000
  171        3.174842      3.174837   1.000000   1.000000
  172        3.183376      3.183369   1.000000   1.000000
  173        3.233958      3.233952   1.000000   1.000000
  174        3.315622      3.315616   1.000000   1.000000
  175        3.345287      3.345280   1.000000   1.000000
  176        3.380467      3.380461   1.000000   1.000000
  177        3.407781      3.407775   1.000000   1.000000
  178        3.428803      3.428796   1.000000   1.000000
  179        3.479719      3.479712   1.000000   1.000000
  180        3.486475      3.486469   1.000000   1.000000
  181        3.575217      3.575210   1.000000   1.000000
  182        3.604322      3.604316   1.000000   1.000000
  183        3.655781      3.655774   1.000000   1.000000
  184        3.686868      3.686861   1.000000   1.000000
  185        7.053103      7.053174   0.000000   0.000000
  186        7.115873      7.115929   0.000000   0.000000
  187        7.116051      7.116116   0.000000   0.000000
  188        7.623839      7.623883   0.000000   0.000000
  189        7.919576      7.919630   0.000000   0.000000
  190        8.310213      8.310256   0.000000   0.000000
  191        8.313285      8.313324   0.000000   0.000000
  192        8.398153      8.398206   0.000000   0.000000
  193        8.414773      8.414808   0.000000   0.000000
  194        8.469488      8.469540   0.000000   0.000000
  195        8.781344      8.781372   0.000000   0.000000
  196        8.884151      8.884338   0.000000   0.000000
  197        8.977583      8.977611   0.000000   0.000000
  198        9.123071      9.123103   0.000000   0.000000
  199        9.269389      9.269445   0.000000   0.000000
  200        9.273315      9.273359   0.000000   0.000000
  201        9.317761      9.317812   0.000000   0.000000
  202        9.359014      9.359057   0.000000   0.000000
  203        9.378942      9.378983   0.000000   0.000000
  204        9.393328      9.393378   0.000000   0.000000
  205        9.617190      9.617225   0.000000   0.000000
  206        9.655553      9.655586   0.000000   0.000000
  207        9.727081      9.727126   0.000000   0.000000
  208        9.755131      9.755177   0.000000   0.000000
  209        9.884462      9.884673   0.000000   0.000000
  210        9.905216      9.905359   0.000000   0.000000
  211        9.932835      9.932880   0.000000   0.000000
  212       10.033925     10.033957   0.000000   0.000000
  213       10.143497     10.143538   0.000000   0.000000
  214       10.227938     10.228057   0.000000   0.000000
  215       10.345727     10.345753   0.000000   0.000000
  216       10.389655     10.389685   0.000000   0.000000
  217       10.858803     10.858797   0.000000   0.000000
  218       10.859735     10.859788   0.000000   0.000000
  219       11.008539     11.008601   0.000000   0.000000
  220       11.036844     11.036869   0.000000   0.000000
  221       11.155823     11.155843   0.000000   0.000000
  222       11.191373     11.191405   0.000000   0.000000
  223       11.253878     11.253883   0.000000   0.000000
  224       11.293952     11.293779   0.000000   0.000000
  225       11.348815     11.349528   0.000000   0.000000
  226       11.571469     11.571506   0.000000   0.000000
  227       11.572666     11.572918   0.000000   0.000000
  228       11.574289     11.574517   0.000000   0.000000
  229       11.588507     11.588437   0.000000   0.000000
  230       11.648054     11.647943   0.000000   0.000000
  231       11.656555     11.656619   0.000000   0.000000
  232       11.728263     11.728480   0.000000   0.000000
  233       11.788604     11.788704   0.000000   0.000000
  234       11.880841     11.880963   0.000000   0.000000
  235       11.923435     11.924209   0.000000   0.000000
  236       11.940613     11.941929   0.000000   0.000000
  237       12.098021     12.098141   0.000000   0.000000
  238       12.168197     12.167590   0.000000   0.000000
  239       12.207495     12.208300   0.000000   0.000000
  240       12.263351     12.266096   0.000000   0.000000
  241       12.286033     12.289357   0.000000   0.000000
  242       12.587205     12.584133   0.000000   0.000000
  243       12.599734     12.599935   0.000000   0.000000
  244       12.790505     12.793870   0.000000   0.000000
  245       12.817941     12.828069   0.000000   0.000000
  246       12.859882     12.859389   0.000000   0.000000
  247       12.874243     12.887362   0.000000   0.000000
  248       12.971245     12.978197   0.000000   0.000000
  249       12.981431     12.980244   0.000000   0.000000
  250       12.999978     13.039244   0.000000   0.000000
  251       13.031247     13.074373   0.000000   0.000000
  252       13.107035     13.126841   0.000000   0.000000
  253       13.130202     13.156977   0.000000   0.000000
  254       13.187664     13.206513   0.000000   0.000000
  255       13.203890     13.225921   0.000000   0.000000
  256       13.237697     13.256728   0.000000   0.000000
  257       13.270365     13.339998   0.000000   0.000000
  258       13.400064     13.462219   0.000000   0.000000
  259       13.464652     13.493699   0.000000   0.000000
  260       13.493405     13.524994   0.000000   0.000000
  261       13.588323     13.642658   0.000000   0.000000
  262       13.823070     13.846938   0.000000   0.000000
  263       13.863813     13.917543   0.000000   0.000000
  264       13.996194     14.004441   0.000000   0.000000
 
  0.3333333E+00  0.3619801E-17  0.0000000E+00  0.1481481E+00
    1      -40.858600    -40.858602   1.000000   1.000000
    2      -40.857918    -40.857919   1.000000   1.000000
    3      -40.853593    -40.853594   1.000000   1.000000
    4      -40.853053    -40.853054   1.000000   1.000000
    5      -40.820780    -40.820783   1.000000   1.000000
    6      -40.820674    -40.820677   1.000000   1.000000
    7      -40.814900    -40.814903   1.000000   1.000000
    8      -40.814876    -40.814879   1.000000   1.000000
    9      -40.694580    -40.694581   1.000000   1.000000
   10      -40.692904    -40.692905   1.000000   1.000000
   11      -40.686837    -40.686838   1.000000   1.000000
   12      -40.684482    -40.684483   1.000000   1.000000
   13      -40.619601    -40.619603   1.000000   1.000000
   14      -40.619271    -40.619273   1.000000   1.000000
   15      -40.553248    -40.553250   1.000000   1.000000
   16      -40.551561    -40.551563   1.000000   1.000000
   17      -40.545105    -40.545106   1.000000   1.000000
   18      -40.542921    -40.542922   1.000000   1.000000
   19      -40.534695    -40.534697   1.000000   1.000000
   20      -40.530796    -40.530798   1.000000   1.000000
   21      -40.522633    -40.522635   1.000000   1.000000
   22      -40.520570    -40.520572   1.000000   1.000000
   23      -40.513090    -40.513091   1.000000   1.000000
   24      -40.510661    -40.510662   1.000000   1.000000
   25      -40.501304    -40.501305   1.000000   1.000000
   26      -40.496823    -40.496824   1.000000   1.000000
   27      -40.481648    -40.481646   1.000000   1.000000
   28      -40.480861    -40.480860   1.000000   1.000000
   29      -40.473960    -40.473960   1.000000   1.000000
   30      -40.473265    -40.473264   1.000000   1.000000
   31      -40.460704    -40.460704   1.000000   1.000000
   32      -40.457727    -40.457728   1.000000   1.000000
   33      -40.452000    -40.452001   1.000000   1.000000
   34      -40.448738    -40.448739   1.000000   1.000000
   35      -40.427870    -40.427871   1.000000   1.000000
   36      -40.424041    -40.424043   1.000000   1.000000
   37      -40.423414    -40.423415   1.000000   1.000000
   38      -40.420655    -40.420656   1.000000   1.000000
   39      -40.363249    -40.363252   1.000000   1.000000
   40      -40.359487    -40.359490   1.000000   1.000000
   41      -40.341566    -40.341568   1.000000   1.000000
   42      -40.329545    -40.329547   1.000000   1.000000
   43      -40.318082    -40.318085   1.000000   1.000000
   44      -40.307650    -40.307653   1.000000   1.000000
   45      -40.277097    -40.277099   1.000000   1.000000
   46      -40.275884    -40.275885   1.000000   1.000000
   47      -40.275172    -40.275174   1.000000   1.000000
   48      -40.273163    -40.273165   1.000000   1.000000
   49      -40.271941    -40.271943   1.000000   1.000000
   50      -40.270806    -40.270809   1.000000   1.000000
   51      -39.902578    -39.902582   1.000000   1.000000
   52      -39.902322    -39.902326   1.000000   1.000000
   53      -39.881682    -39.881684   1.000000   1.000000
   54      -39.876285    -39.876287   1.000000   1.000000
   55      -39.869108    -39.869111   1.000000   1.000000
   56      -39.868950    -39.868953   1.000000   1.000000
   57      -12.853111    -12.853128   1.000000   1.000000
   58      -12.850734    -12.850750   1.000000   1.000000
   59      -12.723872    -12.723887   1.000000   1.000000
   60      -12.720911    -12.720925   1.000000   1.000000
   61      -12.717694    -12.717710   1.000000   1.000000
   62      -12.715805    -12.715819   1.000000   1.000000
   63      -12.705209    -12.705223   1.000000   1.000000
   64      -12.704749    -12.704763   1.000000   1.000000
   65       -9.673998     -9.674008   1.000000   1.000000
   66       -9.651197     -9.651208   1.000000   1.000000
   67       -9.645605     -9.645616   1.000000   1.000000
   68       -9.635698     -9.635708   1.000000   1.000000
   69       -9.567366     -9.567374   1.000000   1.000000
   70       -9.559621     -9.559630   1.000000   1.000000
   71       -9.545191     -9.545200   1.000000   1.000000
   72       -9.542478     -9.542487   1.000000   1.000000
   73       -9.523527     -9.523535   1.000000   1.000000
   74       -9.494197     -9.494205   1.000000   1.000000
   75       -9.456717     -9.456725   1.000000   1.000000
   76       -9.430522     -9.430530   1.000000   1.000000
   77       -9.428381     -9.428389   1.000000   1.000000
   78       -9.416986     -9.416994   1.000000   1.000000
   79       -9.370321     -9.370328   1.000000   1.000000
   80       -9.359881     -9.359889   1.000000   1.000000
   81       -9.331889     -9.331896   1.000000   1.000000
   82       -9.312878     -9.312885   1.000000   1.000000
   83       -9.296386     -9.296394   1.000000   1.000000
   84       -9.280826     -9.280834   1.000000   1.000000
   85       -9.269933     -9.269940   1.000000   1.000000
   86       -9.255296     -9.255303   1.000000   1.000000
   87       -9.242290     -9.242297   1.000000   1.000000
   88       -9.228887     -9.228895   1.000000   1.000000
   89       -2.940417     -2.940429   1.000000   1.000000
   90       -2.811106     -2.811119   1.000000   1.000000
   91       -2.699933     -2.699946   1.000000   1.000000
   92       -2.694012     -2.694025   1.000000   1.000000
   93       -2.642118     -2.642133   1.000000   1.000000
   94       -2.602731     -2.602746   1.000000   1.000000
   95       -2.585367     -2.585382   1.000000   1.000000
   96       -2.577882     -2.577897   1.000000   1.000000
   97       -1.150538     -1.150541   1.000000   1.000000
   98       -1.137832     -1.137834   1.000000   1.000000
   99       -1.106669     -1.106672   1.000000   1.000000
  100       -1.072641     -1.072644   1.000000   1.000000
  101       -1.047990     -1.047993   1.000000   1.000000
  102       -1.029390     -1.029393   1.000000   1.000000
  103       -0.971696     -0.971699   1.000000   1.000000
  104       -0.894327     -0.894332   1.000000   1.000000
  105       -0.859334     -0.859339   1.000000   1.000000
  106       -0.842460     -0.842465   1.000000   1.000000
  107       -0.771545     -0.771552   1.000000   1.000000
  108       -0.728214     -0.728220   1.000000   1.000000
  109       -0.709403     -0.709409   1.000000   1.000000
  110       -0.683110     -0.683117   1.000000   1.000000
  111       -0.634455     -0.634463   1.000000   1.000000
  112       -0.581363     -0.581370   1.000000   1.000000
  113       -0.520943     -0.520951   1.000000   1.000000
  114       -0.491633     -0.491642   1.000000   1.000000
  115       -0.479599     -0.479608   1.000000   1.000000
  116       -0.426158     -0.426167   1.000000   1.000000
  117       -0.387597     -0.387607   1.000000   1.000000
  118       -0.364120     -0.364130   1.000000   1.000000
  119       -0.289739     -0.289749   1.000000   1.000000
  120       -0.263391     -0.263402   1.000000   1.000000
  121        1.128739      1.128742   1.000000   1.000000
  122        1.162655      1.162657   1.000000   1.000000
  123        1.252803      1.252803   1.000000   1.000000
  124        1.272985      1.272985   1.000000   1.000000
  125        1.321342      1.321345   1.000000   1.000000
  126        1.330981      1.330984   1.000000   1.000000
  127        1.360797      1.360799   1.000000   1.000000
  128        1.370331      1.370333   1.000000   1.000000
  129        1.389659      1.389662   1.000000   1.000000
  130        1.401751      1.401754   1.000000   1.000000
  131        1.420729      1.420728   1.000000   1.000000
  132        1.460275      1.460274   1.000000   1.000000
  133        1.547141      1.547139   1.000000   1.000000
  134        1.553494      1.553493   1.000000   1.000000
  135        1.590827      1.590826   1.000000   1.000000
  136        1.688342      1.688339   1.000000   1.000000
  137        1.743241      1.743239   1.000000   1.000000
  138        1.763641      1.763640   1.000000   1.000000
  139        1.800140      1.800137   1.000000   1.000000
  140        1.878155      1.878153   1.000000   1.000000
  141        1.896412      1.896411   1.000000   1.000000
  142        1.926702      1.926700   1.000000   1.000000
  143        1.932468      1.932466   1.000000   1.000000
  144        1.946215      1.946212   1.000000   1.000000
  145        1.962666      1.962665   1.000000   1.000000
  146        2.002926      2.002924   1.000000   1.000000
  147        2.044646      2.044644   1.000000   1.000000
  148        2.052255      2.052253   1.000000   1.000000
  149        2.103967      2.103965   1.000000   1.000000
  150        2.209655      2.209652   1.000000   1.000000
  151        2.231854      2.231852   1.000000   1.000000
  152        2.251917      2.251915   1.000000   1.000000
  153        2.321337      2.321333   1.000000   1.000000
  154        2.340472      2.340470   1.000000   1.000000
  155        2.372898      2.372896   1.000000   1.000000
  156        2.486684      2.486681   1.000000   1.000000
  157        2.529431      2.529428   1.000000   1.000000
  158        2.590147      2.590144   1.000000   1.000000
  159        2.605110      2.605107   1.000000   1.000000
  160        2.624678      2.624675   1.000000   1.000000
  161        2.678518      2.678515   1.000000   1.000000
  162        2.705582      2.705578   1.000000   1.000000
  163        2.776761      2.776757   1.000000   1.000000
  164        2.797843      2.797839   1.000000   1.000000
  165        2.884944      2.884941   1.000000   1.000000
  166        2.909066      2.909063   1.000000   1.000000
  167        2.949639      2.949635   1.000000   1.000000
  168        2.971606      2.971601   1.000000   1.000000
  169        3.029252      3.029248   1.000000   1.000000
  170        3.111165      3.111160   1.000000   1.000000
  171        3.148974      3.148969   1.000000   1.000000
  172        3.175275      3.175269   1.000000   1.000000
  173        3.214488      3.214482   1.000000   1.000000
  174        3.248313      3.248306   1.000000   1.000000
  175        3.302595      3.302589   1.000000   1.000000
  176        3.322177      3.322171   1.000000   1.000000
  177        3.357888      3.357882   1.000000   1.000000
  178        3.397955      3.397949   1.000000   1.000000
  179        3.409542      3.409536   1.000000   1.000000
  180        3.439898      3.439892   1.000000   1.000000
  181        3.536423      3.536416   1.000000   1.000000
  182        3.559014      3.559007   1.000000   1.000000
  183        3.577832      3.577825   1.000000   1.000000
  184        3.605865      3.605859   1.000000   1.000000
  185        7.227363      7.227424   0.000000   0.000000
  186        7.437450      7.437498   0.000000   0.000000
  187        7.492020      7.492067   0.000000   0.000000
  188        7.652878      7.652935   0.000000   0.000000
  189        7.935538      7.935579   0.000000   0.000000
  190        8.270764      8.270808   0.000000   0.000000
  191        8.397754      8.397797   0.000000   0.000000
  192        8.438502      8.438538   0.000000   0.000000
  193        8.460853      8.460891   0.000000   0.000000
  194        8.469451      8.469490   0.000000   0.000000
  195        8.655987      8.656027   0.000000   0.000000
  196        8.724230      8.724271   0.000000   0.000000
  197        8.870227      8.870275   0.000000   0.000000
  198        8.986789      8.986819   0.000000   0.000000
  199        9.010150      9.010184   0.000000   0.000000
  200        9.076517      9.076562   0.000000   0.000000
  201        9.182518      9.182556   0.000000   0.000000
  202        9.281364      9.281410   0.000000   0.000000
  203        9.305325      9.305370   0.000000   0.000000
  204        9.371773      9.371810   0.000000   0.000000
  205        9.484760      9.484835   0.000000   0.000000
  206        9.515551      9.515593   0.000000   0.000000
  207        9.605038      9.605079   0.000000   0.000000
  208        9.693240      9.693280   0.000000   0.000000
  209        9.770767      9.770798   0.000000   0.000000
  210        9.826753      9.826772   0.000000   0.000000
  211        9.903530      9.903548   0.000000   0.000000
  212        9.939882      9.939923   0.000000   0.000000
  213       10.048585     10.048656   0.000000   0.000000
  214       10.175424     10.175484   0.000000   0.000000
  215       10.318975     10.319007   0.000000   0.000000
  216       10.413503     10.413522   0.000000   0.000000
  217       10.802037     10.802055   0.000000   0.000000
  218       10.924396     10.924422   0.000000   0.000000
  219       10.966648     10.966695   0.000000   0.000000
  220       11.093411     11.093399   0.000000   0.000000
  221       11.152213     11.152185   0.000000   0.000000
  222       11.184760     11.184879   0.000000   0.000000
  223       11.256665     11.256664   0.000000   0.000000
  224       11.388536     11.388548   0.000000   0.000000
  225       11.478309     11.478287   0.000000   0.000000
  226       11.501125     11.501102   0.000000   0.000000
  227       11.589245     11.589255   0.000000   0.000000
  228       11.650732     11.650549   0.000000   0.000000
  229       11.715710     11.715766   0.000000   0.000000
  230       11.727220     11.727076   0.000000   0.000000
  231       11.804178     11.804212   0.000000   0.000000
  232       11.850513     11.850766   0.000000   0.000000
  233       11.912400     11.913021   0.000000   0.000000
  234       11.949255     11.949768   0.000000   0.000000
  235       11.992284     11.992036   0.000000   0.000000
  236       12.058167     12.057175   0.000000   0.000000
  237       12.138557     12.138625   0.000000   0.000000
  238       12.204585     12.204280   0.000000   0.000000
  239       12.301423     12.301936   0.000000   0.000000
  240       12.306872     12.306541   0.000000   0.000000
  241       12.427244     12.431673   0.000000   0.000000
  242       12.504303     12.503739   0.000000   0.000000
  243       12.562614     12.564605   0.000000   0.000000
  244       12.665358     12.661973   0.000000   0.000000
  245       12.729341     12.716293   0.000000   0.000000
  246       12.850056     12.823533   0.000000   0.000000
  247       12.876543     12.868388   0.000000   0.000000