       N       E                     dE             d eps       ncg     rms          rms(c)
DAV:   1     0.349554182497E+04    0.34955E+04   -0.15332E+05  8448   0.156E+03
DAV:   2     0.377655068471E+02   -0.34578E+04   -0.31153E+04  8992   0.436E+02
DAV:   3    -0.448087904138E+03   -0.48585E+03   -0.47936E+03 11432   0.146E+02
DAV:   4    -0.518062507333E+03   -0.69975E+02   -0.69237E+02 15152   0.474E+01
DAV:   5    -0.525022608769E+03   -0.69601E+01   -0.69550E+01 13408   0.126E+01    0.741E+01
RMM:   6    -0.468169131064E+03    0.56853E+02   -0.20916E+02 10127   0.209E+01    0.323E+01
RMM:   7    -0.481496768270E+03   -0.13328E+02   -0.47130E+01 13519   0.121E+01    0.174E+01
RMM:   8    -0.484079289221E+03   -0.25825E+01   -0.11672E+01 15159   0.566E+00    0.913E+00
RMM:   9    -0.484859699587E+03   -0.78041E+00   -0.52635E+00 13765   0.433E+00    0.299E+00
RMM:  10    -0.484954491704E+03   -0.94792E-01   -0.22529E+00 15137   0.283E+00    0.161E+00
RMM:  11    -0.485052779609E+03   -0.98288E-01   -0.13772E+00 15688   0.164E+00    0.128E+00
RMM:  12    -0.485126784501E+03   -0.74005E-01   -0.65492E-01 15993   0.107E+00    0.106E+00
RMM:  13    -0.485159222256E+03   -0.32438E-01   -0.27436E-01 15552   0.732E-01    0.499E-01
RMM:  14    -0.485172847343E+03   -0.13625E-01   -0.12170E-01 15949   0.525E-01    0.106E-01
RMM:  15    -0.485180287116E+03   -0.74398E-02   -0.69489E-02 16000   0.365E-01    0.807E-02
RMM:  16    -0.485183928478E+03   -0.36414E-02   -0.33372E-02 16000   0.258E-01    0.768E-02
RMM:  17    -0.485185801408E+03   -0.18729E-02   -0.18716E-02 14991   0.187E-01    0.383E-02
RMM:  18    -0.485186838617E+03   -0.10372E-02   -0.10633E-02 14366   0.141E-01    0.178E-02
RMM:  19    -0.485187511991E+03   -0.67337E-03   -0.61982E-03 14208   0.108E-01    0.246E-02
RMM:  20    -0.485187898014E+03   -0.38602E-03   -0.37526E-03 14208   0.818E-02    0.226E-02
RMM:  21    -0.485188145486E+03   -0.24747E-03   -0.23992E-03 14154   0.630E-02    0.272E-02
RMM:  22    -0.485188328239E+03   -0.18275E-03   -0.15583E-03 14021   0.492E-02    0.454E-02
RMM:  23    -0.485188392694E+03   -0.64455E-04   -0.98167E-04 13476   0.397E-02    0.249E-02
RMM:  24    -0.485188450033E+03   -0.57338E-04   -0.64361E-04 11790   0.310E-02    0.198E-02
RMM:  25    -0.485188481694E+03   -0.31662E-04   -0.45872E-04 12677   0.271E-02    0.108E-02
RMM:  26    -0.485188498225E+03   -0.16531E-04   -0.35118E-04 12962   0.245E-02    0.230E-02
RMM:  27    -0.485188515198E+03   -0.16973E-04   -0.19836E-04  9917   0.187E-02    0.233E-02
RMM:  28    -0.485188529704E+03   -0.14506E-04   -0.15008E-04 10536   0.176E-02    0.192E-02
RMM:  29    -0.485188540163E+03   -0.10459E-04   -0.11292E-04 10462   0.154E-02    0.172E-02
RMM:  30    -0.485188548005E+03   -0.78423E-05   -0.82245E-05 10135   0.140E-02
   1 F= -.48518855E+03 E0= -.48518855E+03  d E =0.000000E+00  mag=    -0.0000
