       N       E                     dE             d eps       ncg     rms          rms(c)
DAV:   1     0.451609701393E+03    0.45161E+03   -0.39046E+04 13440   0.129E+03
DAV:   2    -0.964204275016E+02   -0.54803E+03   -0.52387E+03 17280   0.290E+02
DAV:   3    -0.134986199397E+03   -0.38566E+02   -0.38186E+02 16880   0.809E+01
DAV:   4    -0.135772212622E+03   -0.78601E+00   -0.78233E+00 17536   0.122E+01
DAV:   5    -0.135793542847E+03   -0.21330E-01   -0.21307E-01 16504   0.189E+00    0.412E+01
DAV:   6    -0.116679175544E+03    0.19114E+02   -0.64495E+01 15992   0.305E+01    0.201E+01
DAV:   7    -0.119425988335E+03   -0.27468E+01   -0.91183E+00 16240   0.112E+01    0.683E+00
DAV:   8    -0.120007994045E+03   -0.58201E+00   -0.12033E+00 16504   0.422E+00    0.404E+00
DAV:   9    -0.120017721841E+03   -0.97278E-02   -0.94632E-02 16328   0.152E+00    0.200E+00
DAV:  10    -0.120016472325E+03    0.12495E-02   -0.23021E-02 18032   0.789E-01    0.425E-01
DAV:  11    -0.120018691246E+03   -0.22189E-02   -0.53069E-03 16120   0.369E-01    0.251E-01
DAV:  12    -0.120019140988E+03   -0.44974E-03   -0.64172E-04 17808   0.129E-01    0.153E-01
DAV:  13    -0.120019373235E+03   -0.23225E-03   -0.21235E-04 15880   0.700E-02    0.582E-02
DAV:  14    -0.120019420205E+03   -0.46971E-04   -0.30362E-05 13984   0.269E-02    0.182E-02
DAV:  15    -0.120019429536E+03   -0.93302E-05   -0.98458E-06 10624   0.152E-02
   1 F= -.12001943E+03 E0= -.12001943E+03  d E =0.000000E+00  mag=     0.0001
