       N       E                     dE             d eps       ncg     rms          rms(c)
DAV:   1     0.389463245836E+03    0.38946E+03   -0.25436E+04  7680   0.130E+03
DAV:   2    -0.426013962347E+01   -0.39372E+03   -0.36083E+03  8632   0.309E+02
DAV:   3    -0.558722015854E+02   -0.51612E+02   -0.50939E+02 11016   0.870E+01
DAV:   4    -0.632279489660E+02   -0.73557E+01   -0.72819E+01 13888   0.324E+01
DAV:   5    -0.640149474836E+02   -0.78700E+00   -0.78673E+00 10960   0.738E+00    0.203E+01
DAV:   6    -0.653255012714E+02   -0.13106E+01   -0.27257E+00 10336   0.617E+00    0.108E+01
DAV:   7    -0.665994991915E+02   -0.12740E+01   -0.68981E-01  9488   0.395E+00    0.549E+00
DAV:   8    -0.668631629749E+02   -0.26366E+00   -0.61051E-01  9904   0.286E+00    0.122E+00
DAV:   9    -0.668920427150E+02   -0.28880E-01   -0.81269E-02 11472   0.109E+00    0.461E-01
DAV:  10    -0.668952682039E+02   -0.32255E-02   -0.66972E-03  9816   0.380E-01    0.201E-01
DAV:  11    -0.668965938697E+02   -0.13257E-02   -0.16551E-03  9720   0.200E-01    0.988E-02
DAV:  12    -0.668969037457E+02   -0.30988E-03   -0.61459E-04  9800   0.966E-02    0.413E-02
DAV:  13    -0.668969552797E+02   -0.51534E-04   -0.10182E-04  8776   0.525E-02    0.203E-02
DAV:  14    -0.668969715901E+02   -0.16310E-04   -0.36670E-05  7920   0.302E-02    0.584E-03
DAV:  15    -0.668969733557E+02   -0.17656E-05   -0.48569E-06  5584   0.134E-02
   1 F= -.66896973E+02 E0= -.66896973E+02  d E =0.000000E+00  mag=    -0.0003
