    4    4    1    2
  0.1237622E+02  0.3597398E-09  0.3300365E-09  0.4988583E-09  0.5000000E-15
  1.000000000000000E-004
  CAR 
 unknown system                          
     18    386     14
 
  0.0000000E+00  0.0000000E+00  0.0000000E+00  0.1298701E-02
    1      -44.094311    -44.094012   1.000000   1.000000
    2      -22.051216    -22.051214   1.000000   1.000000
    3      -17.709362    -17.709361   1.000000   1.000000
    4       -7.010255     -7.010253   1.000000   1.000000
    5       -5.744157     -5.744153   1.000000   1.000000
    6       -5.533747     -5.533749   1.000000   1.000000
    7       -4.027902     -4.027900   1.000000   1.000000
    8       -0.037322     -0.037316   1.000000   1.000000
    9        0.202581      0.202578   1.000000   1.000000
   10        5.511553      5.511533   0.000000   0.000000
   11        5.701518      5.701518   0.000000   0.000000
   12        6.016030      6.016033   0.000000   0.000000
   13        9.134572      9.134512   0.000000   0.000000
   14       10.876220     10.868968   0.000000   0.000000
 
  0.1000000E+00 -0.4889942E-17 -0.1133571E-16  0.2597403E-02
    1      -44.094110    -44.093810   1.000000   1.000000
    2      -22.040521    -22.040518   1.000000   1.000000
    3      -17.703910    -17.703908   1.000000   1.000000
    4       -6.975670     -6.975668   1.000000   1.000000
    5       -5.834327     -5.834322   1.000000   1.000000
    6       -5.546246     -5.546248   1.000000   1.000000
    7       -4.040321     -4.040318   1.000000   1.000000
    8       -0.156612     -0.156607   1.000000   1.000000
    9        0.156602      0.156599   1.000000   1.000000
   10        5.430368      5.430367   0.000000   0.000000
   11        5.822409      5.822407   0.000000   0.000000
   12        6.110089      6.110089   0.000000   0.000000
   13        9.338801      9.338741   0.000000   0.000000
   14       10.923169     10.921941   0.000000   0.000000
 
  0.2000000E+00 -0.9779884E-17 -0.2267141E-16  0.2597403E-02
    1      -44.093558    -44.093258   1.000000   1.000000
    2      -22.012325    -22.012325   1.000000   1.000000
    3      -17.689664    -17.689662   1.000000   1.000000
    4       -6.885823     -6.885822   1.000000   1.000000
    5       -6.054841     -6.054838   1.000000   1.000000
    6       -5.578607     -5.578609   1.000000   1.000000
    7       -4.076900     -4.076897   1.000000   1.000000
    8       -0.469551     -0.469549   1.000000   1.000000
    9        0.056938      0.056934   1.000000   1.000000
   10        5.204015      5.204015   0.000000   0.000000
   11        5.875667      5.875666   0.000000   0.000000
   12        6.646080      6.645583   0.000000   0.000000
   13        9.861305      9.860963   0.000000   0.000000
   14       11.003124     11.001698   0.000000   0.000000
 
  0.3000000E+00 -0.1297656E-16 -0.4823344E-16  0.2597403E-02
    1      -44.092847    -44.092548   1.000000   1.000000
    2      -21.976967    -21.976966   1.000000   1.000000
    3      -17.671962    -17.671960   1.000000   1.000000
    4       -6.792393     -6.792391   1.000000   1.000000
    5       -6.280367     -6.280363   1.000000   1.000000
    6       -5.618013     -5.618015   1.000000   1.000000
    7       -4.133263     -4.133260   1.000000   1.000000
    8       -0.832291     -0.832292   1.000000   1.000000
    9       -0.054146     -0.054150   1.000000   1.000000
   10        4.869849      4.869848   0.000000   0.000000
   11        5.941921      5.941920   0.000000   0.000000
   12        7.395328      7.395013   0.000000   0.000000
   13       10.393300     10.391078   0.000000   0.000000
   14       10.870382     10.870528   0.000000   0.000000
 
  0.4000000E+00 -0.3644210E-16 -0.4998056E-16  0.2597403E-02
    1      -44.092280    -44.091981   1.000000   1.000000
    2      -21.948076    -21.948073   1.000000   1.000000
    3      -17.657631    -17.657629   1.000000   1.000000
    4       -6.785197     -6.785195   1.000000   1.000000
    5       -6.369909     -6.369906   1.000000   1.000000
    6       -5.649513     -5.649515   1.000000   1.000000
    7       -4.191943     -4.191940   1.000000   1.000000
    8       -1.103653     -1.103655   1.000000   1.000000
    9       -0.139804     -0.139809   1.000000   1.000000
   10        4.591373      4.591370   0.000000   0.000000
   11        5.996857      5.996856   0.000000   0.000000
   12        8.029330      8.029308   0.000000   0.000000
   13       10.471281     10.470589   0.000000   0.000000
   14       10.802419     10.801276   0.000000   0.000000
 
  0.5000000E+00  0.9912559E-17 -0.1040899E-16  0.1298701E-02
    1      -44.092059    -44.091759   1.000000   1.000000
    2      -21.936914    -21.936912   1.000000   1.000000
    3      -17.652165    -17.652164   1.000000   1.000000
    4       -6.813500     -6.813497   1.000000   1.000000
    5       -6.366789     -6.366787   1.000000   1.000000
    6       -5.661465     -5.661466   1.000000   1.000000
    7       -4.218536     -4.218533   1.000000   1.000000
    8       -1.202223     -1.202226   1.000000   1.000000
    9       -0.171749     -0.171754   1.000000   1.000000
   10        4.485086      4.485083   0.000000   0.000000
   11        6.016922      6.016921   0.000000   0.000000
   12        8.267511      8.267505   0.000000   0.000000
   13       10.421206     10.421042   0.000000   0.000000
   14       10.838066     10.838030   0.000000   0.000000
 
 -0.4237948E-17  0.9090909E-01 -0.1449060E-16  0.2597403E-02
    1      -44.093996    -44.093697   1.000000   1.000000
    2      -22.037415    -22.037414   1.000000   1.000000
    3      -17.702370    -17.702368   1.000000   1.000000
    4       -6.973290     -6.973288   1.000000   1.000000
    5       -5.773389     -5.773385   1.000000   1.000000
    6       -5.614249     -5.614251   1.000000   1.000000
    7       -4.036908     -4.036906   1.000000   1.000000
    8       -0.081165     -0.081160   1.000000   1.000000
    9        0.072712      0.072709   1.000000   1.000000
   10        5.483653      5.483652   0.000000   0.000000
   11        5.763847      5.763849   0.000000   0.000000
   12        6.107992      6.107991   0.000000   0.000000
   13        9.324130      9.324072   0.000000   0.000000
   14       10.906037     10.902427   0.000000   0.000000
 
  0.1000000E+00  0.9090909E-01 -0.1343070E-16  0.2597403E-02
    1      -44.094008    -44.093708   1.000000   1.000000
    2      -22.036832    -22.036830   1.000000   1.000000
    3      -17.704579    -17.704578   1.000000   1.000000
    4       -6.952520     -6.952518   1.000000   1.000000
    5       -5.781337     -5.781333   1.000000   1.000000
    6       -5.619152     -5.619154   1.000000   1.000000
    7       -4.064543     -4.064541   1.000000   1.000000
    8       -0.132549     -0.132545   1.000000   1.000000
    9        0.147159      0.147159   1.000000   1.000000
   10        5.424833      5.424833   0.000000   0.000000
   11        5.915608      5.915611   0.000000   0.000000
   12        6.063827      6.063814   0.000000   0.000000
   13        9.279885      9.279829   0.000000   0.000000
   14       10.835724     10.826778   0.000000   0.000000
 
  0.2000000E+00  0.9090909E-01 -0.6343541E-16  0.2597403E-02
    1      -44.093637    -44.093337   1.000000   1.000000
    2      -22.016664    -22.016663   1.000000   1.000000
    3      -17.696481    -17.696479   1.000000   1.000000
    4       -6.868660     -6.868658   1.000000   1.000000
    5       -5.951706     -5.951702   1.000000   1.000000
    6       -5.640879     -5.640881   1.000000   1.000000
    7       -4.115176     -4.115173   1.000000   1.000000
    8       -0.345739     -0.345736   1.000000   1.000000
    9        0.087157      0.087155   1.000000   1.000000
   10        5.334898      5.334898   0.000000   0.000000
   11        5.821152      5.821152   0.000000   0.000000
   12        6.518857      6.518721   0.000000   0.000000
   13        9.620420      9.620284   0.000000   0.000000
   14       10.855263     10.853729   0.000000   0.000000
 
  0.3000000E+00  0.9090909E-01 -0.4767874E-16  0.2597403E-02
    1      -44.092992    -44.092692   1.000000   1.000000
    2      -21.984261    -21.984261   1.000000   1.000000
    3      -17.681106    -17.681105   1.000000   1.000000
    4       -6.753626     -6.753624   1.000000   1.000000
    5       -6.186213     -6.186209   1.000000   1.000000
    6       -5.681519     -5.681521   1.000000   1.000000
    7       -4.179885     -4.179882   1.000000   1.000000
    8       -0.646382     -0.646381   1.000000   1.000000
    9       -0.049620     -0.049623   1.000000   1.000000
   10        5.042683      5.042681   0.000000   0.000000
   11        5.850227      5.850227   0.000000   0.000000
   12        7.212258      7.211896   0.000000   0.000000
   13       10.123097     10.122538   0.000000   0.000000
   14       10.909932     10.906125   0.000000   0.000000
 
  0.4000000E+00  0.9090909E-01 -0.6033929E-16  0.2597403E-02
    1      -44.092349    -44.092049   1.000000   1.000000
    2      -21.951945    -21.951943   1.000000   1.000000
    3      -17.664314    -17.664312   1.000000   1.000000
    4       -6.699676     -6.699672   1.000000   1.000000
    5       -6.341561     -6.341558   1.000000   1.000000
    6       -5.716786     -5.716788   1.000000   1.000000
    7       -4.242522     -4.242519   1.000000   1.000000
    8       -0.937080     -0.937080   1.000000   1.000000
    9       -0.177721     -0.177725   1.000000   1.000000
   10        4.712766      4.712763   0.000000   0.000000
   11        5.895995      5.895994   0.000000   0.000000
   12        7.969154      7.969140   0.000000   0.000000
   13       10.340721     10.339565   0.000000   0.000000
   14       10.910994     10.910239   0.000000   0.000000
 
  0.5000000E+00  0.9090909E-01 -0.7564953E-16  0.2597403E-02
    1      -44.091940    -44.091640   1.000000   1.000000
    2      -21.932079    -21.932077   1.000000   1.000000
    3      -17.652504    -17.652503   1.000000   1.000000
    4       -6.762480     -6.762477   1.000000   1.000000
    5       -6.340241     -6.340239   1.000000   1.000000
    6       -5.731265     -5.731267   1.000000   1.000000
    7       -4.270488     -4.270485   1.000000   1.000000
    8       -1.122110     -1.122112   1.000000   1.000000
    9       -0.250528     -0.250532   1.000000   1.000000
   10        4.510745      4.510741   0.000000   0.000000
   11        5.911183      5.911181   0.000000   0.000000
   12        8.464921      8.464915   0.000000   0.000000
   13       10.337211     10.337142   0.000000   0.000000
   14       10.922771     10.921949   0.000000   0.000000
 
 -0.4000000E+00  0.9090909E-01  0.1218093E-16  0.2597403E-02
    1      -44.091928    -44.091629   1.000000   1.000000
    2      -21.932737    -21.932734   1.000000   1.000000
    3      -17.650202    -17.650200   1.000000   1.000000
    4       -6.799230     -6.799228   1.000000   1.000000
    5       -6.321683     -6.321681   1.000000   1.000000
    6       -5.724737     -5.724739   1.000000   1.000000
    7       -4.235267     -4.235264   1.000000   1.000000
    8       -1.145579     -1.145581   1.000000   1.000000
    9       -0.249356     -0.249360   1.000000   1.000000
   10        4.510052      4.510049   0.000000   0.000000
   11        5.895935      5.895934   0.000000   0.000000
   12        8.458396      8.458345   0.000000   0.000000
   13       10.401650     10.401350   0.000000   0.000000
   14       10.894329     10.894180   0.000000   0.000000
 
 -0.3000000E+00  0.9090909E-01 -0.3649894E-16  0.2597403E-02
    1      -44.092315    -44.092016   1.000000   1.000000
    2      -21.953593    -21.953592   1.000000   1.000000
    3      -17.658355    -17.658354   1.000000   1.000000
    4       -6.802193     -6.802191   1.000000   1.000000
    5       -6.284328     -6.284325   1.000000   1.000000
    6       -5.698966     -5.698968   1.000000   1.000000
    7       -4.155458     -4.155455   1.000000   1.000000
    8       -0.990810     -0.990811   1.000000   1.000000
    9       -0.180993     -0.180997   1.000000   1.000000
   10        4.705173      4.705171   0.000000   0.000000
   11        5.853717      5.853715   0.000000   0.000000
   12        7.941409      7.941301   0.000000   0.000000
   13       10.689825     10.687816   0.000000   0.000000
   14       10.725946     10.725539   0.000000   0.000000
 
 -0.2000000E+00  0.9090909E-01 -0.4206404E-16  0.2597403E-02
    1      -44.092980    -44.092681   1.000000   1.000000
    2      -21.986327    -21.986329   1.000000   1.000000
    3      -17.673858    -17.673857   1.000000   1.000000
    4       -6.852924     -6.852922   1.000000   1.000000
    5       -6.138715     -6.138711   1.000000   1.000000
    6       -5.659341     -5.659343   1.000000   1.000000
    7       -4.080642     -4.080640   1.000000   1.000000
    8       -0.686489     -0.686489   1.000000   1.000000
    9       -0.078707     -0.078710   1.000000   1.000000
   10        5.023480      5.023479   0.000000   0.000000
   11        5.791268      5.791266   0.000000   0.000000
   12        7.175784      7.175051   0.000000   0.000000
   13       10.283017     10.282368   0.000000   0.000000
   14       11.129153     11.127632   0.000000   0.000000
 
 -0.1000000E+00  0.9090909E-01 -0.4864550E-16  0.2597403E-02
    1      -44.093606    -44.093306   1.000000   1.000000
    2      -22.018271    -22.018269   1.000000   1.000000
    3      -17.690651    -17.690649   1.000000   1.000000
    4       -6.930430     -6.930428   1.000000   1.000000
    5       -5.928101     -5.928097   1.000000   1.000000
    6       -5.624334     -5.624335   1.000000   1.000000
    7       -4.040119     -4.040116   1.000000   1.000000
    8       -0.324647     -0.324644   1.000000   1.000000
    9        0.008590      0.008587   1.000000   1.000000
   10        5.348640      5.348640   0.000000   0.000000
   11        5.725291      5.725290   0.000000   0.000000
   12        6.489786      6.489721   0.000000   0.000000
   13        9.718189      9.718129   0.000000   0.000000
   14       11.079293     11.078005   0.000000   0.000000
 
 -0.2444279E-16  0.1818182E+00 -0.1538578E-16  0.2597403E-02
    1      -44.093136    -44.092836   1.000000   1.000000
    2      -22.000077    -22.000077   1.000000   1.000000
    3      -17.683635    -17.683633   1.000000   1.000000
    4       -6.875920     -6.875919   1.000000   1.000000
    5       -5.904655     -5.904653   1.000000   1.000000
    6       -5.758411     -5.758410   1.000000   1.000000
    7       -4.064368     -4.064365   1.000000   1.000000
    8       -0.259933     -0.259937   1.000000   1.000000
    9       -0.195990     -0.195985   1.000000   1.000000
   10        5.317446      5.317447   0.000000   0.000000
   11        5.789698      5.789702   0.000000   0.000000
   12        6.571362      6.571177   0.000000   0.000000
   13        9.826590      9.826554   0.000000   0.000000
   14       10.969646     10.966849   0.000000   0.000000
 
  0.1000000E+00  0.1818182E+00 -0.1978259E-16  0.2597403E-02
    1      -44.093346    -44.093046   1.000000   1.000000
    2      -22.008195    -22.008193   1.000000   1.000000
    3      -17.692534    -17.692532   1.000000   1.000000
    4       -6.864122     -6.864121   1.000000   1.000000
    5       -5.824021     -5.824023   1.000000   1.000000
    6       -5.781111     -5.781107   1.000000   1.000000
    7       -4.105646     -4.105643   1.000000   1.000000
    8       -0.308471     -0.308471   1.000000   1.000000
    9        0.031182      0.031184   1.000000   1.000000
   10        5.393966      5.393967   0.000000   0.000000
   11        5.822004      5.822009   0.000000   0.000000
   12        6.433125      6.433042   0.000000   0.000000
   13        9.593153      9.593067   0.000000   0.000000
   14       10.790272     10.789940   0.000000   0.000000
 
  0.2000000E+00  0.1818182E+00 -0.5002239E-17  0.2597403E-02
    1      -44.093199    -44.092900   1.000000   1.000000
    2      -21.998043    -21.998045   1.000000   1.000000
    3      -17.692272    -17.692270   1.000000   1.000000
    4       -6.795793     -6.795791   1.000000   1.000000
    5       -5.912566     -5.912564   1.000000   1.000000
    6       -5.785720     -5.785719   1.000000   1.000000
    7       -4.179166     -4.179163   1.000000   1.000000
    8       -0.470258     -0.470258   1.000000   1.000000
    9        0.113899      0.113901   1.000000   1.000000
   10        5.428577      5.428578   0.000000   0.000000
   11        5.652305      5.652306   0.000000   0.000000
   12        6.723502      6.723379   0.000000   0.000000
   13        9.669073      9.669005   0.000000   0.000000
   14       10.770016     10.769419   0.000000   0.000000
 
  0.3000000E+00  0.1818182E+00 -0.7188296E-16  0.2597403E-02
    1      -44.092742    -44.092443   1.000000   1.000000
    2      -21.973291    -21.973290   1.000000   1.000000
    3      -17.683019    -17.683018   1.000000   1.000000
    4       -6.689730     -6.689729   1.000000   1.000000
    5       -6.071762     -6.071759   1.000000   1.000000
    6       -5.830285     -5.830286   1.000000   1.000000
    7       -4.269567     -4.269565   1.000000   1.000000
    8       -0.668062     -0.668062   1.000000   1.000000
    9        0.011543      0.011544   1.000000   1.000000
   10        5.212864      5.212862   0.000000   0.000000
   11        5.619454      5.619453   0.000000   0.000000
   12        7.293394      7.292985   0.000000   0.000000
   13        9.965932      9.965787   0.000000   0.000000
   14       10.906579     10.909511   0.000000   0.000000
 
  0.4000000E+00  0.1818182E+00 -0.8189382E-16  0.2597403E-02
    1      -44.092129    -44.091830   1.000000   1.000000
    2      -21.943141    -21.943143   1.000000   1.000000
    3      -17.668249    -17.668248   1.000000   1.000000
    4       -6.605376     -6.605374   1.000000   1.000000
    5       -6.230517     -6.230514   1.000000   1.000000
    6       -5.870096     -5.870096   1.000000   1.000000
    7       -4.357883     -4.357880   1.000000   1.000000
    8       -0.847749     -0.847749   1.000000   1.000000
    9       -0.194387     -0.194389   1.000000   1.000000
   10        4.861371      4.861367   0.000000   0.000000
   11        5.659299      5.659297   0.000000   0.000000
   12        8.083293      8.083156   0.000000   0.000000
   13       10.187085     10.186474   0.000000   0.000000
   14       11.121714     11.057927   0.000000   0.000000
 
  0.5000000E+00  0.1818182E+00 -0.4762163E-16  0.2597403E-02
    1      -44.091649    -44.091350   1.000000   1.000000
    2      -21.919230    -21.919228   1.000000   1.000000
    3      -17.653596    -17.653595   1.000000   1.000000
    4       -6.632475     -6.632473   1.000000   1.000000
    5       -6.289573     -6.289571   1.000000   1.000000
    6       -5.872652     -5.872652   1.000000   1.000000
    7       -4.407545     -4.407543   1.000000   1.000000
    8       -0.972819     -0.972819   1.000000   1.000000
    9       -0.390808     -0.390811   1.000000   1.000000
   10        4.588184      4.588180   0.000000   0.000000
   11        5.675067      5.675064   0.000000   0.000000
   12        8.855253      8.855248   0.000000   0.000000
   13       10.204590     10.204562   0.000000   0.000000
   14       11.066964     11.066673   0.000000   0.000000
 
 -0.4000000E+00  0.1818182E+00  0.9803564E-17  0.2597403E-02
    1      -44.091425    -44.091125   1.000000   1.000000
    2      -21.910791    -21.910789   1.000000   1.000000
    3      -17.644552    -17.644550   1.000000   1.000000
    4       -6.717077     -6.717074   1.000000   1.000000
    5       -6.258597     -6.258595   1.000000   1.000000
    6       -5.874492     -5.874492   1.000000   1.000000
    7       -4.373173     -4.373171   1.000000   1.000000
    8       -1.032387     -1.032388   1.000000   1.000000
    9       -0.484959     -0.484963   1.000000   1.000000
   10        4.484570      4.484566   0.000000   0.000000
   11        5.680890      5.680888   0.000000   0.000000
   12        9.157654      9.157495   0.000000   0.000000
   13       10.207686     10.207659   0.000000   0.000000
   14       11.070075     11.067060   0.000000   0.000000
 
 -0.3000000E+00  0.1818182E+00 -0.4830755E-16  0.2597403E-02
    1      -44.091590    -44.091290   1.000000   1.000000
    2      -21.921348    -21.921346   1.000000   1.000000
    3      -17.644689    -17.644687   1.000000   1.000000
    4       -6.768614     -6.768612   1.000000   1.000000
    5       -6.205375     -6.205372   1.000000   1.000000
    6       -5.885394     -5.885395   1.000000   1.000000
    7       -4.261590     -4.261588   1.000000   1.000000
    8       -1.006036     -1.006037   1.000000   1.000000
    9       -0.450247     -0.450251   1.000000   1.000000
   10        4.571982      4.571980   0.000000   0.000000
   11        5.684176      5.684174   0.000000   0.000000
   12        8.700503      8.700445   0.000000   0.000000
   13       10.479920     10.479873   0.000000   0.000000
   14       11.013171     11.013007   0.000000   0.000000
 
 -0.2000000E+00  0.1818182E+00 -0.6324156E-16  0.2597403E-02
    1      -44.092067    -44.091767   1.000000   1.000000
    2      -21.946550    -21.946546   1.000000   1.000000
    3      -17.654058    -17.654057   1.000000   1.000000
    4       -6.800190     -6.800189   1.000000   1.000000
    5       -6.143113     -6.143109   1.000000   1.000000
    6       -5.852453     -5.852454   1.000000   1.000000
    7       -4.141985     -4.141983   1.000000   1.000000
    8       -0.850869     -0.850872   1.000000   1.000000
    9       -0.341504     -0.341506   1.000000   1.000000
   10        4.809423      4.809422   0.000000   0.000000
   11        5.686267      5.686265   0.000000   0.000000
   12        7.901102      7.900711   0.000000   0.000000
   13       10.690572     10.679838   0.000000   0.000000
   14       11.080270     11.079356   0.000000   0.000000
 
 -0.1000000E+00  0.1818182E+00 -0.6801538E-16  0.2597403E-02
    1      -44.092648    -44.092349   1.000000   1.000000
    2      -21.976621    -21.976621   1.000000   1.000000
    3      -17.668949    -17.668947   1.000000   1.000000
    4       -6.842811     -6.842809   1.000000   1.000000
    5       -6.037229     -6.037225   1.000000   1.000000
    6       -5.789976     -5.789976   1.000000   1.000000
    7       -4.072196     -4.072193   1.000000   1.000000
    8       -0.568191     -0.568193   1.000000   1.000000
    9       -0.242209     -0.242209   1.000000   1.000000
   10        5.104441      5.104441   0.000000   0.000000
   11        5.706062      5.706062   0.000000   0.000000
   12        7.122478      7.121932   0.000000   0.000000
   13       10.257782     10.257741   0.000000   0.000000
   14       11.242603     11.241978   0.000000   0.000000
 
 -0.4196163E-16  0.2727273E+00 -0.3400825E-16  0.2597403E-02
    1      -44.092040    -44.091740   1.000000   1.000000
    2      -21.950455    -21.950455   1.000000   1.000000
    3      -17.659110    -17.659109   1.000000   1.000000
    4       -6.772237     -6.772236   1.000000   1.000000
    5       -6.117186     -6.117186   1.000000   1.000000
    6       -5.845073     -5.845070   1.000000   1.000000
    7       -4.112528     -4.112525   1.000000   1.000000
    8       -0.665153     -0.665159   1.000000   1.000000
    9       -0.338974     -0.338970   1.000000   1.000000
   10        5.013581      5.013584   0.000000   0.000000
   11        5.813177      5.813181   0.000000   0.000000
   12        7.215556      7.215233   0.000000   0.000000
   13       10.399961     10.399979   0.000000   0.000000
   14       10.983843     10.976450   0.000000   0.000000
 
  0.1000000E+00  0.2727273E+00 -0.3575537E-16  0.2597403E-02
    1      -44.092340    -44.092040   1.000000   1.000000
    2      -21.963224    -21.963225   1.000000   1.000000
    3      -17.671571    -17.671570   1.000000   1.000000
    4       -6.749098     -6.749097   1.000000   1.000000
    5       -6.061572     -6.061572   1.000000   1.000000
    6       -5.830738     -5.830734   1.000000   1.000000
    7       -4.160366     -4.160363   1.000000   1.000000
    8       -0.626815     -0.626818   1.000000   1.000000
    9       -0.131387     -0.131384   1.000000   1.000000
   10        5.160604      5.160606   0.000000   0.000000
   11        5.808844      5.808849   0.000000   0.000000
   12        7.038960      7.038569   0.000000   0.000000
   13       10.149459     10.149201   0.000000   0.000000
   14       10.743648     10.742136   0.000000   0.000000
 
  0.2000000E+00  0.2727273E+00 -0.9534867E-16  0.2597403E-02
    1      -44.092385    -44.092086   1.000000   1.000000
    2      -21.961983    -21.961984   1.000000   1.000000
    3      -17.678464    -17.678462   1.000000   1.000000
    4       -6.700719     -6.700718   1.000000   1.000000
    5       -6.042795     -6.042795   1.000000   1.000000
    6       -5.846751     -5.846747   1.000000   1.000000
    7       -4.258685     -4.258682   1.000000   1.000000
    8       -0.741725     -0.741726   1.000000   1.000000
    9        0.072958      0.072961   1.000000   1.000000
   10        5.267808      5.267808   0.000000   0.000000
   11        5.630815      5.630815   0.000000   0.000000
   12        7.178126      7.177868   0.000000   0.000000
   13        9.968367      9.968281   0.000000   0.000000
   14       10.733035     10.733592   0.000000   0.000000
 
  0.3000000E+00  0.2727273E+00 -0.9611948E-16  0.2597403E-02
    1      -44.092143    -44.091844   1.000000   1.000000
    2      -21.947162    -21.947163   1.000000   1.000000
    3      -17.677178    -17.677176   1.000000   1.000000
    4       -6.641725     -6.641725   1.000000   1.000000
    5       -6.048929     -6.048928   1.000000   1.000000
    6       -5.902876     -5.902873   1.000000   1.000000
    7       -4.382815     -4.382813   1.000000   1.000000
    8       -0.896854     -0.896855   1.000000   1.000000
    9        0.119959      0.119961   1.000000   1.000000
   10        5.319187      5.319186   0.000000   0.000000
   11        5.374251      5.374247   0.000000   0.000000
   12        7.548861      7.548623   0.000000   0.000000
   13        9.937000      9.937012   0.000000   0.000000
   14       10.944865     10.944053   0.000000   0.000000
 
  0.4000000E+00  0.2727273E+00 -0.1887677E-15  0.2597403E-02
    1      -44.091726    -44.091426   1.000000   1.000000
    2      -21.924248    -21.924249   1.000000   1.000000
    3      -17.668326    -17.668325   1.000000   1.000000
    4       -6.596789     -6.596789   1.000000   1.000000
    5       -6.078952     -6.078948   1.000000   1.000000
    6       -5.960509     -5.960509   1.000000   1.000000
    7       -4.508343     -4.508342   1.000000   1.000000
    8       -1.015318     -1.015319   1.000000   1.000000
    9       -0.021077     -0.021075   1.000000   1.000000
   10        5.009703      5.009698   0.000000   0.000000
   11        5.393054      5.393051   0.000000   0.000000
   12        8.189955      8.189802   0.000000   0.000000
   13       10.060719     10.060618   0.000000   0.000000
   14       11.203228     11.186981   0.000000   0.000000
 
  0.5000000E+00  0.2727273E+00 -0.2757509E-16  0.2597403E-02
    1      -44.091269    -44.090969   1.000000   1.000000
    2      -21.902058    -21.902053   1.000000   1.000000
    3      -17.655127    -17.655125   1.000000   1.000000
    4       -6.551760     -6.551758   1.000000   1.000000
    5       -6.263928     -6.263926   1.000000   1.000000
    6       -5.881462     -5.881460   1.000000   1.000000
    7       -4.592803     -4.592802   1.000000   1.000000
    8       -1.048487     -1.048487   1.000000   1.000000
    9       -0.287865     -0.287865   1.000000   1.000000
   10        4.711198      4.711193   0.000000   0.000000
   11        5.413281      5.413277   0.000000   0.000000
   12        9.052991      9.053227   0.000000   0.000000
   13       10.184127     10.183280   0.000000   0.000000
   14       11.586282     11.528714   0.000000   0.000000
 
 -0.4000000E+00  0.2727273E+00 -0.5360705E-16  0.2597403E-02
    1      -44.090961    -44.090661   1.000000   1.000000
    2      -21.889050    -21.889048   1.000000   1.000000
    3      -17.642559    -17.642557   1.000000   1.000000
    4       -6.550662     -6.550658   1.000000   1.000000
    5       -6.372196     -6.372196   1.000000   1.000000
    6       -5.854981     -5.854979   1.000000   1.000000
    7       -4.571351     -4.571351   1.000000   1.000000
    8       -0.981561     -0.981561   1.000000   1.000000
    9       -0.582161     -0.582165   1.000000   1.000000
   10        4.527918      4.527913   0.000000   0.000000
   11        5.445620      5.445615   0.000000   0.000000
   12        9.882616      9.882782   0.000000   0.000000
   13       10.020573     10.020982   0.000000   0.000000
   14       11.382593     11.301822   0.000000   0.000000
 
 -0.3000000E+00  0.2727273E+00 -0.3468395E-16  0.2597403E-02
    1      -44.090899    -44.090600   1.000000   1.000000
    2      -21.890334    -21.890332   1.000000   1.000000
    3      -17.635448    -17.635446   1.000000   1.000000
    4       -6.676654     -6.676651   1.000000   1.000000
    5       -6.250784     -6.250784   1.000000   1.000000
    6       -5.932319     -5.932317   1.000000   1.000000
    7       -4.432502     -4.432501   1.000000   1.000000
    8       -0.867769     -0.867769   1.000000   1.000000
    9       -0.775843     -0.775847   1.000000   1.000000
   10        4.501945      4.501943   0.000000   0.000000
   11        5.504321      5.504317   0.000000   0.000000
   12        9.354108      9.354096   0.000000   0.000000
   13       10.474199     10.474459   0.000000   0.000000
   14       11.185889     11.235417   0.000000   0.000000
 