Automatically generated mesh
     386
Reciprocal lattice
    0.00000000000000    0.00000000000000    0.00000000000000             1
    0.10000000000000   -0.00000000000000   -0.00000000000000             2
    0.20000000000000   -0.00000000000000   -0.00000000000000             2
    0.30000000000000   -0.00000000000000   -0.00000000000000             2
    0.40000000000000   -0.00000000000000   -0.00000000000000             2
    0.50000000000000    0.00000000000000   -0.00000000000000             1
   -0.00000000000000    0.09090909090909   -0.00000000000000             2
    0.10000000000000    0.09090909090909   -0.00000000000000             2
    0.20000000000000    0.09090909090909   -0.00000000000000             2
    0.30000000000000    0.09090909090909   -0.00000000000000             2
    0.40000000000000    0.09090909090909   -0.00000000000000             2
    0.50000000000000    0.09090909090909   -0.00000000000000             2
   -0.40000000000000    0.09090909090909    0.00000000000000             2
   -0.30000000000000    0.09090909090909   -0.00000000000000             2
   -0.20000000000000    0.09090909090909   -0.00000000000000             2
   -0.10000000000000    0.09090909090909   -0.00000000000000             2
   -0.00000000000000    0.18181818181818   -0.00000000000000             2
    0.10000000000000    0.18181818181818   -0.00000000000000             2
    0.20000000000000    0.18181818181818   -0.00000000000000             2
    0.30000000000000    0.18181818181818   -0.00000000000000             2
    0.40000000000000    0.18181818181818   -0.00000000000000             2
    0.50000000000000    0.18181818181818   -0.00000000000000             2
   -0.40000000000000    0.18181818181818    0.00000000000000             2
   -0.30000000000000    0.18181818181818   -0.00000000000000             2
   -0.20000000000000    0.18181818181818   -0.00000000000000             2
   -0.10000000000000    0.18181818181818   -0.00000000000000             2
   -0.00000000000000    0.27272727272727   -0.00000000000000             2
    0.10000000000000    0.27272727272727   -0.00000000000000             2
    0.20000000000000    0.27272727272727   -0.00000000000000             2
    0.30000000000000    0.27272727272727   -0.00000000000000             2
    0.40000000000000    0.27272727272727   -0.00000000000000             2
    0.50000000000000    0.27272727272727   -0.00000000000000             2
   -0.40000000000000    0.27272727272727   -0.00000000000000             2
   -0.30000000000000    0.27272727272727   -0.00000000000000             2
   -0.20000000000000    0.27272727272727   -0.00000000000000             2
   -0.10000000000000    0.27272727272727   -0.00000000000000             2
   -0.00000000000000    0.36363636363637   -0.00000000000000             2
    0.10000000000000    0.36363636363637   -0.00000000000000             2
    0.20000000000000    0.36363636363637   -0.00000000000000             2
    0.30000000000000    0.36363636363637   -0.00000000000000             2
    0.40000000000000    0.36363636363637   -0.00000000000000             2
    0.50000000000000    0.36363636363637   -0.00000000000000             2
   -0.40000000000000    0.36363636363637   -0.00000000000000             2
   -0.30000000000000    0.36363636363637   -0.00000000000000             2
   -0.20000000000000    0.36363636363637   -0.00000000000000             2
   -0.10000000000000    0.36363636363637   -0.00000000000000             2
   -0.00000000000000    0.45454545454545   -0.00000000000000             2
    0.10000000000000    0.45454545454545   -0.00000000000000             2
    0.20000000000000    0.45454545454545   -0.00000000000000             2
    0.30000000000000    0.45454545454545   -0.00000000000000             2
    0.40000000000000    0.45454545454545   -0.00000000000000             2
    0.50000000000000    0.45454545454545   -0.00000000000000             2
   -0.40000000000000    0.45454545454545   -0.00000000000000             2
   -0.30000000000000    0.45454545454545   -0.00000000000000             2
   -0.20000000000000    0.45454545454545   -0.00000000000000             2
   -0.10000000000000    0.45454545454545   -0.00000000000000             2
    0.00000000000000    0.00000000000000    0.14285714285714             2
    0.10000000000000   -0.00000000000000    0.14285714285714             2
    0.20000000000000   -0.00000000000000    0.14285714285714             2
    0.30000000000000   -0.00000000000000    0.14285714285714             2
    0.40000000000000   -0.00000000000000    0.14285714285714             2
    0.50000000000000    0.00000000000000    0.14285714285714             2
   -0.40000000000000    0.00000000000000    0.14285714285714             2
   -0.30000000000000    0.00000000000000    0.14285714285714             2
   -0.20000000000000    0.00000000000000    0.14285714285714             2
   -0.10000000000000    0.00000000000000    0.14285714285714             2
   -0.00000000000000    0.09090909090909    0.14285714285714             2
    0.10000000000000    0.09090909090909    0.14285714285714             2
    0.20000000000000    0.09090909090909    0.14285714285714             2
    0.30000000000000    0.09090909090909    0.14285714285714             2
    0.40000000000000    0.09090909090909    0.14285714285714             2
    0.50000000000000    0.09090909090909    0.14285714285714             2
   -0.40000000000000    0.09090909090909    0.14285714285714             2
   -0.30000000000000    0.09090909090909    0.14285714285714             2
   -0.20000000000000    0.09090909090909    0.14285714285714             2
   -0.10000000000000    0.09090909090909    0.14285714285714             2
   -0.00000000000000    0.18181818181818    0.14285714285714             2
    0.10000000000000    0.18181818181818    0.14285714285714             2
    0.20000000000000    0.18181818181818    0.14285714285714             2
    0.30000000000000    0.18181818181818    0.14285714285714             2
    0.40000000000000    0.18181818181818    0.14285714285714             2
    0.50000000000000    0.18181818181818    0.14285714285714             2
   -0.40000000000000    0.18181818181818    0.14285714285714             2
   -0.30000000000000    0.18181818181818    0.14285714285714             2
   -0.20000000000000    0.18181818181818    0.14285714285714             2
   -0.10000000000000    0.18181818181818    0.14285714285714             2
   -0.00000000000000    0.27272727272727    0.14285714285714             2
    0.10000000000000    0.27272727272727    0.14285714285714             2
    0.20000000000000    0.27272727272727    0.14285714285714             2
    0.30000000000000    0.27272727272727    0.14285714285714             2
    0.40000000000000    0.27272727272727    0.14285714285714             2
    0.50000000000000    0.27272727272727    0.14285714285714             2
   -0.40000000000000    0.27272727272727    0.14285714285714             2
   -0.30000000000000    0.27272727272727    0.14285714285714             2
   -0.20000000000000    0.27272727272727    0.14285714285714             2
   -0.10000000000000    0.27272727272727    0.14285714285714             2
   -0.00000000000000    0.36363636363637    0.14285714285714             2
    0.10000000000000    0.36363636363637    0.14285714285714             2
    0.20000000000000    0.36363636363637    0.14285714285714             2
    0.30000000000000    0.36363636363637    0.14285714285714             2
    0.40000000000000    0.36363636363637    0.14285714285714             2
    0.50000000000000    0.36363636363637    0.14285714285714             2
   -0.40000000000000    0.36363636363637    0.14285714285714             2
   -0.30000000000000    0.36363636363637    0.14285714285714             2
   -0.20000000000000    0.36363636363637    0.14285714285714             2
   -0.10000000000000    0.36363636363637    0.14285714285714             2
   -0.00000000000000    0.45454545454545    0.14285714285714             2
    0.10000000000000    0.45454545454545    0.14285714285714             2
    0.20000000000000    0.45454545454545    0.14285714285714             2
    0.30000000000000    0.45454545454545    0.14285714285714             2
    0.40000000000000    0.45454545454545    0.14285714285714             2
    0.50000000000000    0.45454545454545    0.14285714285714             2
   -0.40000000000000    0.45454545454545    0.14285714285714             2
   -0.30000000000000    0.45454545454545    0.14285714285714             2
   -0.20000000000000    0.45454545454545    0.14285714285714             2
   -0.10000000000000    0.45454545454545    0.14285714285714             2
    0.00000000000000   -0.45454545454545    0.14285714285714             2
    0.10000000000000   -0.45454545454545    0.14285714285714             2
    0.20000000000000   -0.45454545454545    0.14285714285714             2
    0.30000000000000   -0.45454545454545    0.14285714285714             2
    0.40000000000000   -0.45454545454545    0.14285714285714             2
    0.50000000000000   -0.45454545454545    0.14285714285714             2
   -0.40000000000000   -0.45454545454545    0.14285714285714             2
   -0.30000000000000   -0.45454545454545    0.14285714285714             2
   -0.20000000000000   -0.45454545454545    0.14285714285714             2
   -0.10000000000000   -0.45454545454545    0.14285714285714             2
    0.00000000000000   -0.36363636363637    0.14285714285714             2
    0.10000000000000   -0.36363636363637    0.14285714285714             2
    0.20000000000000   -0.36363636363637    0.14285714285714             2
    0.30000000000000   -0.36363636363637    0.14285714285714             2
    0.40000000000000   -0.36363636363637    0.14285714285714             2
    0.50000000000000   -0.36363636363637    0.14285714285714             2
   -0.40000000000000   -0.36363636363637    0.14285714285714             2
   -0.30000000000000   -0.36363636363637    0.14285714285714             2
   -0.20000000000000   -0.36363636363637    0.14285714285714             2
   -0.10000000000000   -0.36363636363637    0.14285714285714             2
    0.00000000000000   -0.27272727272727    0.14285714285714             2
    0.10000000000000   -0.27272727272727    0.14285714285714             2
    0.20000000000000   -0.27272727272727    0.14285714285714             2
    0.30000000000000   -0.27272727272727    0.14285714285714             2
    0.40000000000000   -0.27272727272727    0.14285714285714             2
    0.50000000000000   -0.27272727272727    0.14285714285714             2
   -0.40000000000000   -0.27272727272727    0.14285714285714             2
   -0.30000000000000   -0.27272727272727    0.14285714285714             2
   -0.20000000000000   -0.27272727272727    0.14285714285714             2
   -0.10000000000000   -0.27272727272727    0.14285714285714             2
    0.00000000000000   -0.18181818181818    0.14285714285714             2
    0.10000000000000   -0.18181818181818    0.14285714285714             2
    0.20000000000000   -0.18181818181818    0.14285714285714             2
    0.30000000000000   -0.18181818181818    0.14285714285714             2
    0.40000000000000   -0.18181818181818    0.14285714285714             2
    0.50000000000000   -0.18181818181818    0.14285714285714             2
   -0.40000000000000   -0.18181818181818    0.14285714285714             2
   -0.30000000000000   -0.18181818181818    0.14285714285714             2
   -0.20000000000000   -0.18181818181818    0.14285714285714             2
   -0.10000000000000   -0.18181818181818    0.14285714285714             2
    0.00000000000000   -0.09090909090909    0.14285714285714             2
    0.10000000000000   -0.09090909090909    0.14285714285714             2
    0.20000000000000   -0.09090909090909    0.14285714285714             2
    0.30000000000000   -0.09090909090909    0.14285714285714             2
    0.40000000000000   -0.09090909090909    0.14285714285714             2
    0.50000000000000   -0.09090909090909    0.14285714285714             2
   -0.40000000000000   -0.09090909090909    0.14285714285714             2
   -0.30000000000000   -0.09090909090909    0.14285714285714             2
   -0.20000000000000   -0.09090909090909    0.14285714285714             2
   -0.10000000000000   -0.09090909090909    0.14285714285714             2
    0.00000000000000    0.00000000000000    0.28571428571429             2
    0.10000000000000   -0.00000000000000    0.28571428571429             2
    0.20000000000000   -0.00000000000000    0.28571428571429             2
    0.30000000000000   -0.00000000000000    0.28571428571429             2
    0.40000000000000   -0.00000000000000    0.28571428571429             2
    0.50000000000000    0.00000000000000    0.28571428571429             2
   -0.40000000000000    0.00000000000000    0.28571428571429             2
   -0.30000000000000    0.00000000000000    0.28571428571429             2
   -0.20000000000000    0.00000000000000    0.28571428571429             2
   -0.10000000000000    0.00000000000000    0.28571428571429             2
   -0.00000000000000    0.09090909090909    0.28571428571429             2
    0.10000000000000    0.09090909090909    0.28571428571429             2
    0.20000000000000    0.09090909090909    0.28571428571429             2
    0.30000000000000    0.09090909090909    0.28571428571429             2
    0.40000000000000    0.09090909090909    0.28571428571429             2
    0.50000000000000    0.09090909090909    0.28571428571429             2
   -0.40000000000000    0.09090909090909    0.28571428571429             2
   -0.30000000000000    0.09090909090909    0.28571428571429             2
   -0.20000000000000    0.09090909090909    0.28571428571429             2
   -0.10000000000000    0.09090909090909    0.28571428571429             2
   -0.00000000000000    0.18181818181818    0.28571428571429             2
    0.10000000000000    0.18181818181818    0.28571428571429             2
    0.20000000000000    0.18181818181818    0.28571428571429             2
    0.30000000000000    0.18181818181818    0.28571428571429             2
    0.40000000000000    0.18181818181818    0.28571428571429             2
    0.50000000000000    0.18181818181818    0.28571428571429             2
   -0.40000000000000    0.18181818181818    0.28571428571429             2
   -0.30000000000000    0.18181818181818    0.28571428571429             2
   -0.20000000000000    0.18181818181818    0.28571428571429             2
   -0.10000000000000    0.18181818181818    0.28571428571429             2
   -0.00000000000000    0.27272727272727    0.28571428571429             2
    0.10000000000000    0.27272727272727    0.28571428571429             2
    0.20000000000000    0.27272727272727    0.28571428571429             2
    0.30000000000000    0.27272727272727    0.28571428571429             2
    0.40000000000000    0.27272727272727    0.28571428571429             2
    0.50000000000000    0.27272727272727    0.28571428571429             2
   -0.40000000000000    0.27272727272727    0.28571428571429             2
   -0.30000000000000    0.27272727272727    0.28571428571429             2
   -0.20000000000000    0.27272727272727    0.28571428571429             2
   -0.10000000000000    0.27272727272727    0.28571428571429             2
   -0.00000000000000    0.36363636363637    0.28571428571429             2
    0.10000000000000    0.36363636363637    0.28571428571429             2
    0.20000000000000    0.36363636363637    0.28571428571429             2
    0.30000000000000    0.36363636363637    0.28571428571429             2
    0.40000000000000    0.36363636363637    0.28571428571429             2
    0.50000000000000    0.36363636363637    0.28571428571429             2
   -0.40000000000000    0.36363636363637    0.28571428571429             2
   -0.30000000000000    0.36363636363637    0.28571428571429             2
   -0.20000000000000    0.36363636363637    0.28571428571429             2
   -0.10000000000000    0.36363636363637    0.28571428571429             2
   -0.00000000000000    0.45454545454545    0.28571428571429             2
    0.10000000000000    0.45454545454545    0.28571428571429             2
    0.20000000000000    0.45454545454545    0.28571428571429             2
    0.30000000000000    0.45454545454545    0.28571428571429             2
    0.40000000000000    0.45454545454545    0.28571428571429             2
    0.50000000000000    0.45454545454545    0.28571428571429             2
   -0.40000000000000    0.45454545454545    0.28571428571429             2
   -0.30000000000000    0.45454545454545    0.28571428571429             2
   -0.20000000000000    0.45454545454545    0.28571428571429             2
   -0.10000000000000    0.45454545454545    0.28571428571429             2
    0.00000000000000   -0.45454545454545    0.28571428571429             2
    0.10000000000000   -0.45454545454545    0.28571428571429             2
    0.20000000000000   -0.45454545454545    0.28571428571429             2
    0.30000000000000   -0.45454545454545    0.28571428571429             2
    0.40000000000000   -0.45454545454545    0.28571428571429             2
    0.50000000000000   -0.45454545454545    0.28571428571429             2
   -0.40000000000000   -0.45454545454545    0.28571428571429             2
   -0.30000000000000   -0.45454545454545    0.28571428571429             2
   -0.20000000000000   -0.45454545454545    0.28571428571429             2
   -0.10000000000000   -0.45454545454545    0.28571428571429             2
    0.00000000000000   -0.36363636363637    0.28571428571429             2
    0.10000000000000   -0.36363636363637    0.28571428571429             2
    0.20000000000000   -0.36363636363637    0.28571428571429             2
    0.30000000000000   -0.36363636363637    0.28571428571429             2
    0.40000000000000   -0.36363636363637    0.28571428571429             2
    0.50000000000000   -0.36363636363637    0.28571428571429             2
   -0.40000000000000   -0.36363636363637    0.28571428571429             2
   -0.30000000000000   -0.36363636363637    0.28571428571429             2
   -0.20000000000000   -0.36363636363637    0.28571428571429             2
   -0.10000000000000   -0.36363636363637    0.28571428571429             2
    0.00000000000000   -0.27272727272727    0.28571428571429             2
    0.10000000000000   -0.27272727272727    0.28571428571429             2
    0.20000000000000   -0.27272727272727    0.28571428571429             2
    0.30000000000000   -0.27272727272727    0.28571428571429             2
    0.40000000000000   -0.27272727272727    0.28571428571429             2
    0.50000000000000   -0.27272727272727    0.28571428571429             2
   -0.40000000000000   -0.27272727272727    0.28571428571429             2
   -0.30000000000000   -0.27272727272727    0.28571428571429             2
   -0.20000000000000   -0.27272727272727    0.28571428571429             2
   -0.10000000000000   -0.27272727272727    0.28571428571429             2
    0.00000000000000   -0.18181818181818    0.28571428571429             2
    0.10000000000000   -0.18181818181818    0.28571428571429             2
    0.20000000000000   -0.18181818181818    0.28571428571429             2
    0.30000000000000   -0.18181818181818    0.28571428571429             2
    0.40000000000000   -0.18181818181818    0.28571428571429             2
    0.50000000000000   -0.18181818181818    0.28571428571429             2
   -0.40000000000000   -0.18181818181818    0.28571428571429             2
   -0.30000000000000   -0.18181818181818    0.28571428571429             2
   -0.20000000000000   -0.18181818181818    0.28571428571429             2
   -0.10000000000000   -0.18181818181818    0.28571428571429             2
    0.00000000000000   -0.09090909090909    0.28571428571429             2
    0.10000000000000   -0.09090909090909    0.28571428571429             2
    0.20000000000000   -0.09090909090909    0.28571428571429             2
    0.30000000000000   -0.09090909090909    0.28571428571429             2
    0.40000000000000   -0.09090909090909    0.28571428571429             2
    0.50000000000000   -0.09090909090909    0.28571428571429             2
   -0.40000000000000   -0.09090909090909    0.28571428571429             2
   -0.30000000000000   -0.09090909090909    0.28571428571429             2
   -0.20000000000000   -0.09090909090909    0.28571428571429             2
   -0.10000000000000   -0.09090909090909    0.28571428571429             2
    0.00000000000000    0.00000000000000    0.42857142857143             2
    0.10000000000000   -0.00000000000000    0.42857142857143             2
    0.20000000000000   -0.00000000000000    0.42857142857143             2
    0.30000000000000   -0.00000000000000    0.42857142857143             2
    0.40000000000000   -0.00000000000000    0.42857142857143             2
    0.50000000000000    0.00000000000000    0.42857142857143             2
   -0.40000000000000    0.00000000000000    0.42857142857143             2
   -0.30000000000000    0.00000000000000    0.42857142857143             2
   -0.20000000000000    0.00000000000000    0.42857142857143             2
   -0.10000000000000    0.00000000000000    0.42857142857143             2
   -0.00000000000000    0.09090909090909    0.42857142857143             2
    0.10000000000000    0.09090909090909    0.42857142857143             2
    0.20000000000000    0.09090909090909    0.42857142857143             2
    0.30000000000000    0.09090909090909    0.42857142857143             2
    0.40000000000000    0.09090909090909    0.42857142857143             2
    0.50000000000000    0.09090909090909    0.42857142857143             2
   -0.40000000000000    0.09090909090909    0.42857142857143             2
   -0.30000000000000    0.09090909090909    0.42857142857143             2
   -0.20000000000000    0.09090909090909    0.42857142857143             2
   -0.10000000000000    0.09090909090909    0.42857142857143             2
   -0.00000000000000    0.18181818181818    0.42857142857143             2
    0.10000000000000    0.18181818181818    0.42857142857143             2
    0.20000000000000    0.18181818181818    0.42857142857143             2
    0.30000000000000    0.18181818181818    0.42857142857143             2
    0.40000000000000    0.18181818181818    0.42857142857143             2
    0.50000000000000    0.18181818181818    0.42857142857143             2
   -0.40000000000000    0.18181818181818    0.42857142857143             2
   -0.30000000000000    0.18181818181818    0.42857142857143             2
   -0.20000000000000    0.18181818181818    0.42857142857143             2
   -0.10000000000000    0.18181818181818    0.42857142857143             2
   -0.00000000000000    0.27272727272727    0.42857142857143             2
    0.10000000000000    0.27272727272727    0.42857142857143             2
    0.20000000000000    0.27272727272727    0.42857142857143             2
    0.30000000000000    0.27272727272727    0.42857142857143             2
    0.40000000000000    0.27272727272727    0.42857142857143             2
    0.50000000000000    0.27272727272727    0.42857142857143             2
   -0.40000000000000    0.27272727272727    0.42857142857143             2
   -0.30000000000000    0.27272727272727    0.42857142857143             2
   -0.20000000000000    0.27272727272727    0.42857142857143             2
   -0.10000000000000    0.27272727272727    0.42857142857143             2
   -0.00000000000000    0.36363636363637    0.42857142857143             2
    0.10000000000000    0.36363636363637    0.42857142857143             2
    0.20000000000000    0.36363636363637    0.42857142857143             2
    0.30000000000000    0.36363636363637    0.42857142857143             2
    0.40000000000000    0.36363636363637    0.42857142857143             2
    0.50000000000000    0.36363636363637    0.42857142857143             2
   -0.40000000000000    0.36363636363637    0.42857142857143             2
   -0.30000000000000    0.36363636363637    0.42857142857143             2
   -0.20000000000000    0.36363636363637    0.42857142857143             2
   -0.10000000000000    0.36363636363637    0.42857142857143             2
   -0.00000000000000    0.45454545454545    0.42857142857143             2
    0.10000000000000    0.45454545454545    0.42857142857143             2
    0.20000000000000    0.45454545454545    0.42857142857143             2
    0.30000000000000    0.45454545454545    0.42857142857143             2
    0.40000000000000    0.45454545454545    0.42857142857143             2
    0.50000000000000    0.45454545454545    0.42857142857143             2
   -0.40000000000000    0.45454545454545    0.42857142857143             2
   -0.30000000000000    0.45454545454545    0.42857142857143             2
   -0.20000000000000    0.45454545454545    0.42857142857143             2
   -0.10000000000000    0.45454545454545    0.42857142857143             2
    0.00000000000000   -0.45454545454545    0.42857142857143             2
    0.10000000000000   -0.45454545454545    0.42857142857143             2
    0.20000000000000   -0.45454545454545    0.42857142857143             2
    0.30000000000000   -0.45454545454545    0.42857142857143             2
    0.40000000000000   -0.45454545454545    0.42857142857143             2
    0.50000000000000   -0.45454545454545    0.42857142857143             2
   -0.40000000000000   -0.45454545454545    0.42857142857143             2
   -0.30000000000000   -0.45454545454545    0.42857142857143             2
   -0.20000000000000   -0.45454545454545    0.42857142857143             2
   -0.10000000000000   -0.45454545454545    0.42857142857143             2
    0.00000000000000   -0.36363636363637    0.42857142857143             2
    0.10000000000000   -0.36363636363637    0.42857142857143             2
    0.20000000000000   -0.36363636363637    0.42857142857143             2
    0.30000000000000   -0.36363636363637    0.42857142857143             2
    0.40000000000000   -0.36363636363637    0.42857142857143             2
    0.50000000000000   -0.36363636363637    0.42857142857143             2
   -0.40000000000000   -0.36363636363637    0.42857142857143             2
   -0.30000000000000   -0.36363636363637    0.42857142857143             2
   -0.20000000000000   -0.36363636363637    0.42857142857143             2
   -0.10000000000000   -0.36363636363637    0.42857142857143             2
    0.00000000000000   -0.27272727272727    0.42857142857143             2
    0.10000000000000   -0.27272727272727    0.42857142857143             2
    0.20000000000000   -0.27272727272727    0.42857142857143             2
    0.30000000000000   -0.27272727272727    0.42857142857143             2
    0.40000000000000   -0.27272727272727    0.42857142857143             2
    0.50000000000000   -0.27272727272727    0.42857142857143             2
   -0.40000000000000   -0.27272727272727    0.42857142857143             2
   -0.30000000000000   -0.27272727272727    0.42857142857143             2
   -0.20000000000000   -0.27272727272727    0.42857142857143             2
   -0.10000000000000   -0.27272727272727    0.42857142857143             2
    0.00000000000000   -0.18181818181818    0.42857142857143             2
    0.10000000000000   -0.18181818181818    0.42857142857143             2
    0.20000000000000   -0.18181818181818    0.42857142857143             2
    0.30000000000000   -0.18181818181818    0.42857142857143             2
    0.40000000000000   -0.18181818181818    0.42857142857143             2
    0.50000000000000   -0.18181818181818    0.42857142857143             2
   -0.40000000000000   -0.18181818181818    0.42857142857143             2
   -0.30000000000000   -0.18181818181818    0.42857142857143             2
   -0.20000000000000   -0.18181818181818    0.42857142857143             2
   -0.10000000000000   -0.18181818181818    0.42857142857143             2
    0.00000000000000   -0.09090909090909    0.42857142857143             2
    0.10000000000000   -0.09090909090909    0.42857142857143             2
    0.20000000000000   -0.09090909090909    0.42857142857143             2
    0.30000000000000   -0.09090909090909    0.42857142857143             2
    0.40000000000000   -0.09090909090909    0.42857142857143             2
    0.50000000000000   -0.09090909090909    0.42857142857143             2
   -0.40000000000000   -0.09090909090909    0.42857142857143             2
   -0.30000000000000   -0.09090909090909    0.42857142857143             2
   -0.20000000000000   -0.09090909090909    0.42857142857143             2
   -0.10000000000000   -0.09090909090909    0.42857142857143             2
Tetrahedra
      2308    0.00021645021645
         2         1         7         8        68
         2         1         2         8        68
         2         1         2        58        68
         2         1         7        67        68
         2         1        57        67        68
         2         1        57        58        68
         2         2         8         9        69
         2         2         3         9        69
         2         2         3        59        69
         2         2         8        68        69
         2         2        58        68        69
         2         2        58        59        69
         2         3         9        10        70
         2         3         4        10        70
         2         3         4        60        70
         2         3         9        69        70
         2         3        59        69        70
         2         3        59        60        70