       N       E                     dE             d eps       ncg     rms          rms(c)
DAV:   1     0.906223475182E+02    0.90622E+02   -0.82680E+03 21616   0.117E+03
DAV:   2    -0.222099749922E+02   -0.11283E+03   -0.10907E+03 28814   0.267E+02
DAV:   3    -0.283075880447E+02   -0.60976E+01   -0.60725E+01 29710   0.676E+01
DAV:   4    -0.285450979679E+02   -0.23751E+00   -0.23736E+00 33862   0.113E+01
DAV:   5    -0.285480139765E+02   -0.29160E-02   -0.29158E-02 29336   0.131E+00    0.127E+01
RMM:   6    -0.274399695722E+02    0.11080E+01   -0.38369E+00 23441   0.135E+01    0.583E+00
RMM:   7    -0.273930118360E+02    0.46958E-01   -0.70354E-01 27925   0.754E+00    0.334E+00
RMM:   8    -0.273839814168E+02    0.90304E-02   -0.27960E-01 30809   0.418E+00    0.166E+00
RMM:   9    -0.273978128233E+02   -0.13831E-01   -0.73849E-02 33097   0.227E+00    0.642E-01
RMM:  10    -0.273991033700E+02   -0.12905E-02   -0.22948E-02 34710   0.122E+00    0.147E-01
RMM:  11    -0.274004589435E+02   -0.13556E-02   -0.89204E-03 37212   0.681E-01    0.893E-02
RMM:  12    -0.274010734682E+02   -0.61452E-03   -0.40314E-03 39213   0.424E-01    0.491E-02
RMM:  13    -0.274012998964E+02   -0.22643E-03   -0.16999E-03 38588   0.271E-01    0.164E-02
RMM:  14    -0.274014067282E+02   -0.10683E-03   -0.81625E-04 38161   0.189E-01    0.129E-02
RMM:  15    -0.274014537664E+02   -0.47038E-04   -0.37824E-04 35404   0.123E-01    0.757E-03
RMM:  16    -0.274014753515E+02   -0.21585E-04   -0.17581E-04 32058   0.864E-02    0.215E-03
RMM:  17    -0.274014857798E+02   -0.10428E-04   -0.82246E-05 27836   0.651E-02    0.192E-03
RMM:  18    -0.274014901286E+02   -0.43488E-05   -0.42342E-05 25538   0.531E-02
   1 F= -.27401490E+02 E0= -.27401490E+02  d E =0.000000E+00  mag=    -0.0000
