       N       E                     dE             d eps       ncg     rms          rms(c)
DAV:   1     0.390330933166E+03    0.39033E+03   -0.25576E+04 10304   0.134E+03
DAV:   2    -0.371167822609E+01   -0.39404E+03   -0.36316E+03 11828   0.318E+02
DAV:   3    -0.552715650349E+02   -0.51560E+02   -0.50869E+02 14740   0.892E+01
DAV:   4    -0.626341309595E+02   -0.73626E+01   -0.72965E+01 18832   0.338E+01
DAV:   5    -0.635608517626E+02   -0.92672E+00   -0.92641E+00 15268   0.797E+00    0.200E+01
DAV:   6    -0.649045863406E+02   -0.13437E+01   -0.28943E+00 13880   0.615E+00    0.105E+01
DAV:   7    -0.661315035687E+02   -0.12269E+01   -0.71901E-01 13160   0.392E+00    0.522E+00
DAV:   8    -0.663693098125E+02   -0.23781E+00   -0.62301E-01 12964   0.300E+00    0.118E+00
DAV:   9    -0.663964678327E+02   -0.27158E-01   -0.85848E-02 15596   0.113E+00    0.460E-01
DAV:  10    -0.663999028135E+02   -0.34350E-02   -0.72071E-03 12946   0.407E-01    0.194E-01
DAV:  11    -0.664013175418E+02   -0.14147E-02   -0.19238E-03 12910   0.216E-01    0.973E-02
DAV:  12    -0.664016339764E+02   -0.31643E-03   -0.68057E-04 13138   0.108E-01    0.426E-02
DAV:  13    -0.664016922790E+02   -0.58303E-04   -0.11234E-04 11580   0.568E-02    0.209E-02
DAV:  14    -0.664017098794E+02   -0.17600E-04   -0.43125E-05 10616   0.333E-02    0.549E-03
DAV:  15    -0.664017116519E+02   -0.17725E-05   -0.54087E-06  7280   0.149E-02
   1 F= -.66401712E+02 E0= -.66401712E+02  d E =0.000000E+00  mag=    -0.0003
