    4    4    1    2
  0.1172798E+02  0.3705367E-09  0.3705367E-09  0.3945389E-09  0.5000000E-15
  1.000000000000000E-004
  CAR 
 unknown system                          
     14     70     16
 
  0.0000000E+00  0.0000000E+00  0.0000000E+00  0.1250000E-02
    1      -43.508550    -43.507687   1.000000   1.000000
    2      -43.215126    -43.214244   1.000000   1.000000
    3      -43.077064    -43.076123   1.000000   1.000000
    4      -10.277622    -10.277688   1.000000   1.000000
    5       -0.316720     -0.316680   1.000000   1.000000
    6        0.953119      0.953020   1.000000   1.000000
    7        0.953144      0.953044   1.000000   1.000000
    8        2.057680      2.057226   0.000000   0.000000
    9        8.233331      8.233425   0.000000   0.000000
   10        8.233377      8.233479   0.000000   0.000000
   11        9.078214      9.077989   0.000000   0.000000
   12       12.957586     12.957004   0.000000   0.000000
   13       12.957681     12.957109   0.000000   0.000000
   14       13.236437     13.237181   0.000000   0.000000
   15       14.590842     14.590134   0.000000   0.000000
   16       17.057630     17.056959   0.000000   0.000000
 
  0.1000000E+00 -0.2785131E-17  0.0000000E+00  0.7500000E-02
    1      -43.502016    -43.501153   1.000000   1.000000
    2      -43.221309    -43.220427   1.000000   1.000000
    3      -43.077018    -43.076076   1.000000   1.000000
    4      -10.266988    -10.267059   1.000000   1.000000
    5       -0.254108     -0.254068   1.000000   1.000000
    6        0.561076      0.560955   1.000000   1.000000
    7        0.840477      0.840385   1.000000   1.000000
    8        2.434765      2.434339   0.000000   0.000000
    9        8.244447      8.244481   0.000000   0.000000
   10        8.499696      8.499767   0.000000   0.000000
   11        8.972147      8.971933   0.000000   0.000000
   12       12.708361     12.707889   0.000000   0.000000
   13       12.875777     12.875216   0.000000   0.000000
   14       13.336921     13.337324   0.000000   0.000000
   15       14.535729     14.535061   0.000000   0.000000
   16       16.040082     16.039709   0.000000   0.000000
 
  0.2000000E+00 -0.5570262E-17  0.0000000E+00  0.7500000E-02
    1      -43.483375    -43.482511   1.000000   1.000000
    2      -43.239335    -43.238455   1.000000   1.000000
    3      -43.077083    -43.076142   1.000000   1.000000
    4      -10.239505    -10.239582   1.000000   1.000000
    5       -0.082342     -0.082302   1.000000   1.000000
    6       -0.070714     -0.070811   1.000000   1.000000
    7        0.572155      0.572080   1.000000   1.000000
    8        3.080213      3.079783   0.000000   0.000000
    9        8.050743      8.050593   0.000000   0.000000
   10        8.696905      8.696720   0.000000   0.000000
   11        9.151046      9.151019   0.000000   0.000000
   12       12.456484     12.456133   0.000000   0.000000
   13       12.799426     12.798939   0.000000   0.000000
   14       13.403507     13.403793   0.000000   0.000000
   15       14.351533     14.351285   0.000000   0.000000
   16       14.733492     14.733001   0.000000   0.000000
 
  0.3000000E+00 -0.8675636E-17  0.0000000E+00  0.7500000E-02
    1      -43.455562    -43.454695   1.000000   1.000000
    2      -43.266268    -43.265389   1.000000   1.000000
    3      -43.077146    -43.076205   1.000000   1.000000
    4      -10.205256    -10.205340   1.000000   1.000000
    5       -0.616553     -0.616616   1.000000   1.000000
    6        0.148286      0.148325   1.000000   1.000000
    7        0.281333      0.281272   1.000000   1.000000
    8        3.794496      3.794057   0.000000   0.000000
    9        7.396693      7.396354   0.000000   0.000000
   10        8.351972      8.351826   0.000000   0.000000
   11        9.794145      9.793931   0.000000   0.000000
   12       12.563252     12.563116   0.000000   0.000000
   13       12.981410     12.981179   0.000000   0.000000
   14       13.105847     13.105511   0.000000   0.000000
   15       13.511776     13.511691   0.000000   0.000000
   16       15.171371     15.171268   0.000000   0.000000
 
  0.4000000E+00  0.2323370E-16  0.0000000E+00  0.7500000E-02
    1      -43.425128    -43.424259   1.000000   1.000000
    2      -43.296061    -43.295184   1.000000   1.000000
    3      -43.077242    -43.076301   1.000000   1.000000
    4      -10.177390    -10.177479   1.000000   1.000000
    5       -0.974934     -0.974971   1.000000   1.000000
    6        0.070865      0.070814   1.000000   1.000000
    7        0.353068      0.353107   1.000000   1.000000
    8        4.588919      4.588483   0.000000   0.000000
    9        6.468723      6.468276   0.000000   0.000000
   10        8.058096      8.057983   0.000000   0.000000
   11       10.100066     10.099684   0.000000   0.000000
   12       12.124961     12.124721   0.000000   0.000000
   13       12.728232     12.728254   0.000000   0.000000
   14       13.783137     13.782740   0.000000   0.000000
   15       13.938477     13.938258   0.000000   0.000000
   16       15.477016     15.468536   0.000000   0.000000
 
  0.5000000E+00  0.2738747E-16  0.0000000E+00  0.3750000E-02
    1      -43.408695    -43.407825   1.000000   1.000000
    2      -43.312112    -43.311236   1.000000   1.000000
    3      -43.077214    -43.076273   1.000000   1.000000
    4      -10.166638    -10.166731   1.000000   1.000000
    5       -1.098897     -1.098926   1.000000   1.000000
    6       -0.004748     -0.004796   1.000000   1.000000
    7        0.436453      0.436492   1.000000   1.000000
    8        5.366223      5.365939   0.000000   0.000000
    9        5.620222      5.619594   0.000000   0.000000
   10        7.939936      7.939837   0.000000   0.000000
   11       10.163598     10.163164   0.000000   0.000000
   12       11.836711     11.836465   0.000000   0.000000
   13       12.772837     12.772947   0.000000   0.000000
   14       13.986949     13.983176   0.000000   0.000000
   15       14.526581     14.526370   0.000000   0.000000
   16       15.515998     15.517472   0.000000   0.000000
 
  0.1000000E+00  0.1000000E+00  0.0000000E+00  0.7500000E-02
    1      -43.489408    -43.488544   1.000000   1.000000
    2      -43.233487    -43.232606   1.000000   1.000000
    3      -43.077049    -43.076108   1.000000   1.000000
    4      -10.248046    -10.248120   1.000000   1.000000
    5       -0.136782     -0.136742   1.000000   1.000000
    6        0.108005      0.107899   1.000000   1.000000
    7        0.634343      0.634263   1.000000   1.000000
    8        2.905781      2.905353   0.000000   0.000000
    9        8.205006      8.204914   0.000000   0.000000
   10        8.786564      8.786369   0.000000   0.000000
   11        8.881525      8.881528   0.000000   0.000000
   12       12.509661     12.509304   0.000000   0.000000
   13       12.747368     12.746877   0.000000   0.000000
   14       13.443871     13.444355   0.000000   0.000000
   15       14.663937     14.663312   0.000000   0.000000
   16       14.701158     14.700922   0.000000   0.000000
 
  0.2000000E+00  0.1000000E+00  0.0000000E+00  0.1500000E-01
    1      -43.465980    -43.465114   1.000000   1.000000
    2      -43.256127    -43.255247   1.000000   1.000000
    3      -43.077126    -43.076185   1.000000   1.000000
    4      -10.217228    -10.217310   1.000000   1.000000
    5       -0.410602     -0.410678   1.000000   1.000000
    6        0.065462      0.065501   1.000000   1.000000
    7        0.326824      0.326764   1.000000   1.000000
    8        3.555948      3.555506   0.000000   0.000000
    9        7.834293      7.834007   0.000000   0.000000
   10        8.504564      8.504401   0.000000   0.000000
   11        9.317622      9.317480   0.000000   0.000000
   12       12.542252     12.542044   0.000000   0.000000
   13       12.873208     12.872867   0.000000   0.000000
   14       13.175958     13.175773   0.000000   0.000000
   15       13.626407     13.626627   0.000000   0.000000
   16       15.085632     15.085064   0.000000   0.000000
 
  0.3000000E+00  0.1000000E+00  0.0000000E+00  0.1500000E-01
    1      -43.435865    -43.434997   1.000000   1.000000
    2      -43.285481    -43.284603   1.000000   1.000000
    3      -43.077229    -43.076288   1.000000   1.000000
    4      -10.186274    -10.186361   1.000000   1.000000
    5       -0.818136     -0.818183   1.000000   1.000000
    6        0.055162      0.055112   1.000000   1.000000
    7        0.285968      0.286007   1.000000   1.000000
    8        4.304166      4.303712   0.000000   0.000000
    9        7.037761      7.037341   0.000000   0.000000
   10        8.235391      8.235263   0.000000   0.000000
   11        9.581920      9.581626   0.000000   0.000000
   12       12.013242     12.013060   0.000000   0.000000
   13       12.751093     12.751096   0.000000   0.000000
   14       13.476486     13.476227   0.000000   0.000000
   15       14.038384     14.038264   0.000000   0.000000
   16       15.498014     15.498745   0.000000   0.000000
 
  0.4000000E+00  0.1000000E+00  0.0000000E+00  0.1500000E-01
    1      -43.408830    -43.407960   1.000000   1.000000
    2      -43.311924    -43.311048   1.000000   1.000000
    3      -43.077256    -43.076315   1.000000   1.000000
    4      -10.167026    -10.167120   1.000000   1.000000
    5       -1.037695     -1.037724   1.000000   1.000000
    6       -0.098302     -0.098346   1.000000   1.000000
    7        0.433303      0.433341   1.000000   1.000000
    8        5.147325      5.146874   0.000000   0.000000
    9        6.085944      6.085461   0.000000   0.000000
   10        8.070255      8.070152   0.000000   0.000000
   11        9.667074      9.666702   0.000000   0.000000
   12       11.394172     11.393982   0.000000   0.000000
   13       12.837833     12.837936   0.000000   0.000000
   14       14.200815     14.199624   0.000000   0.000000
   15       14.606487     14.605842   0.000000   0.000000
   16       15.531397     15.533317   0.000000   0.000000
 
  0.2000000E+00  0.2000000E+00  0.0000000E+00  0.7500000E-02
    1      -43.439637    -43.438770   1.000000   1.000000
    2      -43.281816    -43.280938   1.000000   1.000000
    3      -43.077266    -43.076325   1.000000   1.000000
    4      -10.189860    -10.189949   1.000000   1.000000
    5       -0.714207     -0.714260   1.000000   1.000000
    6       -0.009256     -0.009299   1.000000   1.000000
    7        0.259918      0.259956   1.000000   1.000000
    8        4.227755      4.227289   0.000000   0.000000
    9        7.461093      7.460656   0.000000   0.000000
   10        8.354754      8.354616   0.000000   0.000000
   11        9.051323      9.051095   0.000000   0.000000
   12       11.799724     11.799583   0.000000   0.000000
   13       12.823833     12.823802   0.000000   0.000000
   14       13.254974     13.254719   0.000000   0.000000
   15       14.263780     14.263883   0.000000   0.000000
   16       15.667365     15.666555   0.000000   0.000000
 
  0.3000000E+00  0.2000000E+00  0.0000000E+00  0.1500000E-01
    1      -43.409026    -43.408157   1.000000   1.000000
    2      -43.311715    -43.310840   1.000000   1.000000
    3      -43.077332    -43.076391   1.000000   1.000000
    4      -10.167734    -10.167829   1.000000   1.000000
    5       -0.905181     -0.905214   1.000000   1.000000
    6       -0.281306     -0.281341   1.000000   1.000000
    7        0.428227      0.428265   1.000000   1.000000
    8        5.019820      5.019319   0.000000   0.000000
    9        6.767446      6.766938   0.000000   0.000000
   10        8.334735      8.334620   0.000000   0.000000
   11        8.809079      8.808821   0.000000   0.000000
   12       10.740735     10.740602   0.000000   0.000000
   13       12.973580     12.973622   0.000000   0.000000
   14       13.947637     13.947438   0.000000   0.000000
   15       15.069842     15.070030   0.000000   0.000000
   16       15.990564     15.989816   0.000000   0.000000
 
  0.4000000E+00  0.2000000E+00  0.0000000E+00  0.7500000E-02
    1      -43.390116    -43.389246   1.000000   1.000000
    2      -43.330290    -43.329415   1.000000   1.000000
    3      -43.077337    -43.076396   1.000000   1.000000
    4      -10.159308    -10.159405   1.000000   1.000000
    5       -0.967658     -0.967684   1.000000   1.000000
    6       -0.384995     -0.385027   1.000000   1.000000
    7        0.495448      0.495486   1.000000   1.000000
    8        5.809442      5.808820   0.000000   0.000000
    9        5.977433      5.977023   0.000000   0.000000
   10        8.371484      8.371382   0.000000   0.000000
   11        8.738103      8.737829   0.000000   0.000000
   12       10.319454     10.319318   0.000000   0.000000
   13       13.007724     13.007779   0.000000   0.000000
   14       14.486787     14.486612   0.000000   0.000000
   15       15.401496     15.401378   0.000000   0.000000
   16       15.763317     15.763912   0.000000   0.000000
 
  0.3000000E+00  0.3000000E+00  0.0000000E+00  0.7500000E-02
    1      -43.378693    -43.377821   1.000000   1.000000
    2      -43.341537    -43.340663   1.000000   1.000000
    3      -43.077367    -43.076426   1.000000   1.000000
    4      -10.156465    -10.156563   1.000000   1.000000
    5       -0.849353     -0.849380   1.000000   1.000000
    6       -0.590009     -0.590036   1.000000   1.000000
    7        0.518420      0.518457   1.000000   1.000000
    8        5.794530      5.793956   0.000000   0.000000
    9        6.438732      6.438145   0.000000   0.000000
   10        8.146873      8.146728   0.000000   0.000000
   11        8.729235      8.729127   0.000000   0.000000
   12        9.663091      9.662977   0.000000   0.000000
   13       13.102891     13.102925   0.000000   0.000000
   14       14.577595     14.570270   0.000000   0.000000
   15       15.279330     15.279622   0.000000   0.000000
   16       17.060527     16.687366   0.000000   0.000000
 
  0.0000000E+00  0.0000000E+00  0.1250000E+00  0.2500000E-02
    1      -43.508241    -43.507378   1.000000   1.000000
    2      -43.215040    -43.214158   1.000000   1.000000
    3      -43.077184    -43.076242   1.000000   1.000000
    4      -10.283973    -10.284044   1.000000   1.000000
    5       -0.578339     -0.578357   1.000000   1.000000
    6        0.979927      0.979828   1.000000   1.000000
    7        0.979952      0.979852   1.000000   1.000000
    8        2.498332      2.497933   0.000000   0.000000
    9        8.324341      8.324442   0.000000   0.000000
   10        8.324388      8.324497   0.000000   0.000000
   11        8.855999      8.855844   0.000000   0.000000
   12       12.613086     12.612559   0.000000   0.000000
   13       12.613178     12.612660   0.000000   0.000000
   14       13.563334     13.563495   0.000000   0.000000
   15       14.228652     14.227911   0.000000   0.000000
   16       17.299650     17.296858   0.000000   0.000000
 
  0.1000000E+00 -0.2785131E-17  0.1250000E+00  0.1500000E-01
    1      -43.501756    -43.500893   1.000000   1.000000
    2      -43.221344    -43.220462   1.000000   1.000000
    3      -43.077201    -43.076260   1.000000   1.000000
    4      -10.274092    -10.274162   1.000000   1.000000
    5       -0.519793     -0.519816   1.000000   1.000000
    6        0.679567      0.679481   1.000000   1.000000
    7        0.868944      0.868852   1.000000   1.000000
    8        2.772248      2.771848   0.000000   0.000000
    9        8.318430      8.318456   0.000000   0.000000
   10        8.587081      8.587158   0.000000   0.000000
   11        8.778531      8.778386   0.000000   0.000000
   12       12.423128     12.422673   0.000000   0.000000
   13       12.469524     12.469029   0.000000   0.000000
   14       13.576367     13.576725   0.000000   0.000000
   15       13.919117     13.918516   0.000000   0.000000
   16       16.830410     16.825797   0.000000   0.000000
 
  0.2000000E+00 -0.5570262E-17  0.1250000E+00  0.1500000E-01
    1      -43.483161    -43.482296   1.000000   1.000000
    2      -43.239328    -43.238447   1.000000   1.000000
    3      -43.077200    -43.076259   1.000000   1.000000
    4      -10.248149    -10.248226   1.000000   1.000000
    5       -0.411700     -0.411755   1.000000   1.000000
    6        0.194401      0.194381   1.000000   1.000000
    7        0.604143      0.604068   1.000000   1.000000
    8        3.283990      3.283571   0.000000   0.000000
    9        7.912848      7.912698   0.000000   0.000000
   10        8.767702      8.767564   0.000000   0.000000
   11        9.217792      9.217762   0.000000   0.000000
   12       12.025335     12.025072   0.000000   0.000000
   13       12.276591     12.276199   0.000000   0.000000
   14       13.400880     13.400555   0.000000   0.000000
   15       13.911309     13.911206   0.000000   0.000000
   16       15.996181     15.995860   0.000000   0.000000
 
  0.3000000E+00 -0.8675636E-17  0.1250000E+00  0.1500000E-01
    1      -43.455408    -43.454542   1.000000   1.000000
    2      -43.266250    -43.265371   1.000000   1.000000
    3      -43.077187    -43.076245   1.000000   1.000000
    4      -10.215956    -10.216040   1.000000   1.000000
    5       -0.601502     -0.601568   1.000000   1.000000
    6        0.137527      0.137563   1.000000   1.000000
    7        0.316583      0.316523   1.000000   1.000000
    8        3.833430      3.832988   0.000000   0.000000
    9        7.061145      7.060877   0.000000   0.000000
   10        8.772336      8.772148   0.000000   0.000000
   11        9.776310      9.776069   0.000000   0.000000
   12       11.724463     11.724368   0.000000   0.000000
   13       12.500363     12.500168   0.000000   0.000000
   14       13.131606     13.131271   0.000000   0.000000
   15       14.095732     14.095742   0.000000   0.000000
   16       15.798994     15.798486   0.000000   0.000000
 
  0.4000000E+00  0.2323370E-16  0.1250000E+00  0.1500000E-01
    1      -43.424997    -43.424129   1.000000   1.000000
    2      -43.295975    -43.295098   1.000000   1.000000
    3      -43.077198    -43.076257   1.000000   1.000000
    4      -10.189771    -10.189863   1.000000   1.000000
    5       -0.898314     -0.898349   1.000000   1.000000
    6        0.108195      0.108145   1.000000   1.000000
    7        0.340618      0.340655   1.000000   1.000000
    8        4.407818      4.407352   0.000000   0.000000
    9        6.121745      6.121420   0.000000   0.000000
   10        8.770866      8.770674   0.000000   0.000000
   11        9.957843      9.957447   0.000000   0.000000
   12       11.287101     11.286972   0.000000   0.000000
   13       13.065596     13.065499   0.000000   0.000000
   14       13.219582     13.219525   0.000000   0.000000
   15       14.436432     14.436240   0.000000   0.000000
   16       15.798083     15.797739   0.000000   0.000000
 
  0.5000000E+00  0.2738747E-16  0.1250000E+00  0.7500000E-02
    1      -43.408726    -43.407857   1.000000   1.000000
    2      -43.312010    -43.311134   1.000000   1.000000
    3      -43.077216    -43.076274   1.000000   1.000000
    4      -10.179732    -10.179827   1.000000   1.000000
    5       -1.010584     -1.010608   1.000000   1.000000
    6        0.033277      0.033231   1.000000   1.000000
    7        0.438261      0.438300   1.000000   1.000000
    8        4.851169      4.850644   0.000000   0.000000
    9        5.524156      5.523864   0.000000   0.000000
   10        8.782130      8.781947   0.000000   0.000000
   11        9.972401      9.971966   0.000000   0.000000
   12       11.055095     11.054897   0.000000   0.000000
   13       13.070253     13.070246   0.000000   0.000000
   14       13.650100     13.650075   0.000000   0.000000
   15       14.711679     14.709223   0.000000   0.000000
   16       15.676659     15.676350   0.000000   0.000000
 
  0.1000000E+00  0.1000000E+00  0.1250000E+00  0.1500000E-01
    1      -43.489182    -43.488318   1.000000   1.000000
    2      -43.233473    -43.232592   1.000000   1.000000
    3      -43.077198    -43.076257   1.000000   1.000000
    4      -10.256158    -10.256235   1.000000   1.000000
    5       -0.430797     -0.430836   1.000000   1.000000
    6        0.318383      0.318337   1.000000   1.000000
    7        0.666588      0.666510   1.000000   1.000000
    8        3.144803      3.144390   0.000000   0.000000
    9        8.280037      8.279936   0.000000   0.000000
   10        8.458432      8.458323   0.000000   0.000000
   11        9.122766      9.122747   0.000000   0.000000
   12       12.048181     12.047830   0.000000   0.000000
   13       12.330220     12.329862   0.000000   0.000000
   14       13.652854     13.653090   0.000000   0.000000
   15       13.801452     13.800854   0.000000   0.000000
   16       16.153989     16.155303   0.000000   0.000000
 
  0.2000000E+00  0.1000000E+00  0.1250000E+00  0.3000000E-01
    1      -43.465791    -43.464925   1.000000   1.000000
    2      -43.256102    -43.255223   1.000000   1.000000
    3      -43.077183    -43.076241   1.000000   1.000000
    4      -10.227167    -10.227248   1.000000   1.000000
    5       -0.470676     -0.470752   1.000000   1.000000
    6        0.105761      0.105790   1.000000   1.000000
    7        0.365208      0.365148   1.000000   1.000000
    8        3.651065      3.650628   0.000000   0.000000
    9        7.654964      7.654711   0.000000   0.000000
   10        8.440385      8.440211   0.000000   0.000000
   11        9.604718      9.604571   0.000000   0.000000
   12       11.708509     11.708384   0.000000   0.000000
   13       12.369231     12.369023   0.000000   0.000000
   14       13.565212     13.564791   0.000000   0.000000
   15       13.985055     13.984902   0.000000   0.000000
   16       15.739455     15.739115   0.000000   0.000000
 
  0.3000000E+00  0.1000000E+00  0.1250000E+00  0.3000000E-01
    1      -43.435733    -43.434865   1.000000   1.000000
    2      -43.285414    -43.284537   1.000000   1.000000
    3      -43.077211    -43.076270   1.000000   1.000000
    4      -10.198122    -10.198212   1.000000   1.000000
    5       -0.759791     -0.759838   1.000000   1.000000
    6        0.093540      0.093493   1.000000   1.000000
    7        0.274639      0.274675   1.000000   1.000000
    8        4.200639      4.200174   0.000000   0.000000
    9        6.706080      6.705739   0.000000   0.000000
   10        8.559804      8.559601   0.000000   0.000000
   11        9.701266      9.700991   0.000000   0.000000
   12       11.429516     11.429447   0.000000   0.000000
   13       12.725020     12.724983   0.000000   0.000000
   14       13.448991     13.448647   0.000000   0.000000
   15       14.447711     14.447645   0.000000   0.000000
   16       15.812273     15.811774   0.000000   0.000000
 
  0.4000000E+00  0.1000000E+00  0.1250000E+00  0.3000000E-01
    1      -43.408778    -43.407908   1.000000   1.000000
    2      -43.311868    -43.310992   1.000000   1.000000
    3      -43.077217    -43.076276   1.000000   1.000000
    4      -10.180135    -10.180231   1.000000   1.000000
    5       -0.953202     -0.953228   1.000000   1.000000
    6       -0.056145     -0.056187   1.000000   1.000000
    7        0.438581      0.438620   1.000000   1.000000
    8        4.764608      4.764104   0.000000   0.000000
    9        5.845732      5.845379   0.000000   0.000000
   10        8.791921      8.791731   0.000000   0.000000
   11        9.439240      9.438936   0.000000   0.000000
   12       11.176978     11.176828   0.000000   0.000000
   13       12.991706     12.991732   0.000000   0.000000
   14       13.650302     13.650077   0.000000   0.000000
   15       15.053841     15.052716   0.000000   0.000000
   16       15.719943     15.720117   0.000000   0.000000
 
  0.2000000E+00  0.2000000E+00  0.1250000E+00  0.1500000E-01
    1      -43.439469    -43.438601   1.000000   1.000000
    2      -43.281759    -43.280882   1.000000   1.000000
    3      -43.077234    -43.076293   1.000000   1.000000
    4      -10.201466    -10.201554   1.000000   1.000000
    5       -0.671008     -0.671062   1.000000   1.000000
    6        0.038280      0.038237   1.000000   1.000000
    7        0.251411      0.251449   1.000000   1.000000
    8        4.141472      4.141005   0.000000   0.000000
    9        7.283183      7.282721   0.000000   0.000000
   10        8.015871      8.015778   0.000000   0.000000
   11        9.694206      9.693973   0.000000   0.000000
   12       11.284497     11.284465   0.000000   0.000000
   13       12.604196     12.604187   0.000000   0.000000
   14       13.822404     13.821961   0.000000   0.000000
   15       14.487410     14.487295   0.000000   0.000000
   16       15.936000     15.917923   0.000000   0.000000
 
  0.3000000E+00  0.2000000E+00  0.1250000E+00  0.3000000E-01
    1      -43.408920    -43.408051   1.000000   1.000000
    2      -43.311664    -43.310789   1.000000   1.000000
    3      -43.077260    -43.076319   1.000000   1.000000
    4      -10.180788    -10.180884   1.000000   1.000000
    5       -0.830317     -0.830349   1.000000   1.000000
    6       -0.227064     -0.227098   1.000000   1.000000
    7        0.436625      0.436665   1.000000   1.000000
    8        4.693768      4.693268   0.000000   0.000000
    9        6.442184      6.441707   0.000000   0.000000
   10        8.213888      8.213753   0.000000   0.000000
   11        9.447255      9.447029   0.000000   0.000000
   12       10.807891     10.807814   0.000000   0.000000
   13       12.813525     12.813568   0.000000   0.000000
   14       14.145887     14.145554   0.000000   0.000000
   15       15.273026     15.273337   0.000000   0.000000
   16       16.047547     16.047173   0.000000   0.000000
 
  0.4000000E+00  0.2000000E+00  0.1250000E+00  0.1500000E-01
    1      -43.390079    -43.389208   1.000000   1.000000
    2      -43.330219    -43.329345   1.000000   1.000000
    3      -43.077254    -43.076313   1.000000   1.000000
    4      -10.172896    -10.172994   1.000000   1.000000
    5       -0.884612     -0.884634   1.000000   1.000000
    6       -0.328746     -0.328777   1.000000   1.000000
    7        0.516401      0.516442   1.000000   1.000000
    8        5.121032      5.120494   0.000000   0.000000
    9        5.863040      5.862592   0.000000   0.000000
   10        8.533055      8.532868   0.000000   0.000000
   11        9.105621      9.105458   0.000000   0.000000
   12       10.623195     10.623069   0.000000   0.000000
   13       12.891960     12.891987   0.000000   0.000000
   14       14.415075     14.414781   0.000000   0.000000
   15       15.589369     15.589970   0.000000   0.000000
   16       15.938285     15.937494   0.000000   0.000000
 
  0.3000000E+00  0.3000000E+00  0.1250000E+00  0.1500000E-01
    1      -43.378648    -43.377776   1.000000   1.000000
    2      -43.341548    -43.340674   1.000000   1.000000
    3      -43.077310    -43.076368   1.000000   1.000000
    4      -10.170324    -10.170424   1.000000   1.000000
    5       -0.772214     -0.772236   1.000000   1.000000
    6       -0.522614     -0.522639   1.000000   1.000000
    7        0.544797      0.544839   1.000000   1.000000
    8        5.260530      5.259997   0.000000   0.000000
    9        5.960272      5.959723   0.000000   0.000000
   10        8.161231      8.161137   0.000000   0.000000
   11        9.446998      9.446835   0.000000   0.000000
   12       10.055137     10.055034   0.000000   0.000000
   13       12.900410     12.900409   0.000000   0.000000
   14       14.826405     14.826162   0.000000   0.000000
   15       15.458797     15.459004   0.000000   0.000000
   16       16.850633     16.850006   0.000000   0.000000
 
  0.0000000E+00  0.0000000E+00  0.2500000E+00  0.2500000E-02
    1      -43.507544    -43.506681   1.000000   1.000000
    2      -43.215009    -43.214127   1.000000   1.000000
    3      -43.077593    -43.076652   1.000000   1.000000
    4      -10.299470    -10.299540   1.000000   1.000000
    5       -1.022489     -1.022567   1.000000   1.000000
    6        1.046245      1.046147   1.000000   1.000000
    7        1.046269      1.046170   1.000000   1.000000
    8        3.439551      3.439199   0.000000   0.000000
    9        8.321827      8.321779   0.000000   0.000000
   10        8.568734      8.568864   0.000000   0.000000
   11        8.568783      8.568921   0.000000   0.000000
   12       11.927488     11.927039   0.000000   0.000000
   13       11.927577     11.927136   0.000000   0.000000
   14       13.647259     13.646511   0.000000   0.000000
   15       14.365030     14.365066   0.000000   0.000000
   16       15.649845     15.649492   0.000000   0.000000
 
  0.1000000E+00 -0.2785131E-17  0.2500000E+00  0.1500000E-01
    1      -43.501120    -43.500257   1.000000   1.000000
    2      -43.221282    -43.220401   1.000000   1.000000
    3      -43.077571    -43.076630   1.000000   1.000000
    4      -10.291002    -10.291074   1.000000   1.000000
    5       -0.942656     -0.942735   1.000000   1.000000
    6        0.828657      0.828582   1.000000   1.000000
    7        0.939466      0.939375   1.000000   1.000000
    8        3.555362      3.554992   0.000000   0.000000
    9        8.210858      8.210826   0.000000   0.000000
   10        8.669120      8.669189   0.000000   0.000000
   11        8.826002      8.826102   0.000000   0.000000
   12       11.646118     11.645721   0.000000   0.000000
   13       11.668996     11.668586   0.000000   0.000000
   14       13.098632     13.098051   0.000000   0.000000
   15       14.389652     14.389543   0.000000   0.000000
   16       16.175352     16.174209   0.000000   0.000000
 
  0.2000000E+00 -0.5570262E-17  0.2500000E+00  0.1500000E-01