       N       E                     dE             d eps       ncg     rms          rms(c)
DAV:   1     0.104766968602E+04    0.10477E+04   -0.68106E+04  5856   0.132E+03
DAV:   2    -0.289016768736E+02   -0.10766E+04   -0.99547E+03  6856   0.284E+02
DAV:   3    -0.165794746171E+03   -0.13689E+03   -0.13514E+03  7908   0.959E+01
DAV:   4    -0.181366432068E+03   -0.15572E+02   -0.15475E+02 10440   0.288E+01
DAV:   5    -0.184679047687E+03   -0.33126E+01   -0.33108E+01  9808   0.866E+00    0.324E+01
DAV:   6    -0.185197350502E+03   -0.51830E+00   -0.92920E+00  7672   0.713E+00    0.177E+01
DAV:   7    -0.187334680117E+03   -0.21373E+01   -0.31414E+00  7592   0.428E+00    0.105E+01
DAV:   8    -0.188203301499E+03   -0.86862E+00   -0.13595E+00  7080   0.304E+00    0.248E+00
DAV:   9    -0.188290014504E+03   -0.86713E-01   -0.20760E-01  8216   0.136E+00    0.107E+00
DAV:  10    -0.188305692775E+03   -0.15678E-01   -0.37590E-02  7872   0.516E-01    0.392E-01
DAV:  11    -0.188310366851E+03   -0.46741E-02   -0.57943E-03  7176   0.240E-01    0.203E-01
DAV:  12    -0.188312897723E+03   -0.25309E-02   -0.24817E-03  7592   0.139E-01    0.103E-01
DAV:  13    -0.188314015648E+03   -0.11179E-02   -0.88963E-04  7280   0.770E-02    0.414E-02
DAV:  14    -0.188314339185E+03   -0.32354E-03   -0.29745E-04  6928   0.428E-02    0.239E-02
DAV:  15    -0.188314438019E+03   -0.98834E-04   -0.11104E-04  6120   0.270E-02    0.114E-02
DAV:  16    -0.188314459074E+03   -0.21055E-04   -0.23724E-05  5816   0.143E-02    0.534E-03
DAV:  17    -0.188314463998E+03   -0.49238E-05   -0.58459E-06  4440   0.793E-03
   1 F= -.18831446E+03 E0= -.18831446E+03  d E =0.000000E+00  mag=    -0.0003
