 running on   48 total cores
 distrk:  each k-point on   48 cores,    1 groups
 distr:  one band on    6 cores,    8 groups
 using from now: INCAR     
 vasp.6.1.2 22Jul20 (build Mar 31 2021 18:09:49) complex                        
  
 POSCAR found type information on POSCAR LiP O 
 POSCAR found :  3 types and     100 ions
 scaLAPACK will be used
 LDA part: xc-table for Pade appr. of Perdew
 generate k-points for:    6    3    2
 POSCAR, INCAR and KPOINTS ok, starting setup
 FFT: planning ...
 WAVECAR not read
 entering main loop
       N       E                     dE             d eps       ncg     rms          rms(c)
DAV:   1     0.450787945543E+04    0.45079E+04   -0.25651E+05 27520   0.151E+03
DAV:   2    -0.252621443901E+03   -0.47605E+04   -0.45122E+04 32520   0.387E+02
DAV:   3    -0.707260665312E+03   -0.45464E+03   -0.45119E+03 34560   0.129E+02
DAV:   4    -0.737870463265E+03   -0.30610E+02   -0.30467E+02 47496   0.267E+01
DAV:   5    -0.744240872625E+03   -0.63704E+01   -0.63668E+01 44392   0.730E+00    0.108E+02
DAV:   6    -0.565452209321E+03    0.17879E+03   -0.43617E+02 32936   0.393E+01    0.612E+01
DAV:   7    -0.589623987043E+03   -0.24172E+02   -0.65476E+01 33824   0.143E+01    0.206E+01
DAV:   8    -0.605479834335E+03   -0.15856E+02   -0.11818E+01 33376   0.682E+00    0.123E+01
DAV:   9    -0.625789685895E+03   -0.20310E+02   -0.97408E+00 33376   0.529E+00    0.780E+00
DAV:  10    -0.650297787295E+03   -0.24508E+02   -0.22461E+01 33752   0.683E+00    0.407E+00
DAV:  11    -0.660249699129E+03   -0.99519E+01   -0.11146E+01 34384   0.464E+00    0.286E+00
DAV:  12    -0.663153059698E+03   -0.29034E+01   -0.38727E+00 33248   0.297E+00    0.177E+00
DAV:  13    -0.663352907044E+03   -0.19985E+00   -0.61520E-01 31408   0.135E+00    0.974E-01
DAV:  14    -0.663367870305E+03   -0.14963E-01   -0.81664E-02 34568   0.618E-01    0.582E-01
DAV:  15    -0.663366695005E+03    0.11753E-02   -0.19481E-02 31040   0.320E-01    0.295E-01
DAV:  16    -0.663367151703E+03   -0.45670E-03   -0.48616E-03 35168   0.155E-01    0.106E-01
DAV:  17    -0.663367769315E+03   -0.61761E-03   -0.16045E-03 36696   0.839E-02    0.584E-02
DAV:  18    -0.663367901852E+03   -0.13254E-03   -0.22912E-04 34072   0.386E-02    0.333E-02
DAV:  19    -0.663367937826E+03   -0.35973E-04   -0.60410E-05 29192   0.190E-02    0.150E-02
DAV:  20    -0.663367943824E+03   -0.59979E-05   -0.13022E-05 22272   0.102E-02
   1 F= -.66336794E+03 E0= -.66336794E+03  d E =0.000000E+00  mag=     0.0001
