 running on   12 total cores
 distrk:  each k-point on   12 cores,    1 groups
 distr:  one band on    6 cores,    2 groups
 using from now: INCAR     
 vasp.6.1.2 22Jul20 (build Mar 20 2021 11:25:07) complex                        
  
 POSCAR found type information on POSCAR LiO 
 POSCAR found :  2 types and       9 ions
 scaLAPACK will be used
 LDA part: xc-table for Pade appr. of Perdew
 generate k-points for:    8    7    7
 POSCAR, INCAR and KPOINTS ok, starting setup
 FFT: planning ...
 WAVECAR not read
 entering main loop
       N       E                     dE             d eps       ncg     rms          rms(c)
DAV:   1     0.363468526091E+03    0.36347E+03   -0.28067E+04 15784   0.147E+03
DAV:   2    -0.183907924663E+02   -0.38186E+03   -0.36866E+03 20626   0.351E+02
DAV:   3    -0.435448135244E+02   -0.25154E+02   -0.24881E+02 23448   0.909E+01
DAV:   4    -0.444369467293E+02   -0.89213E+00   -0.88813E+00 26456   0.125E+01
DAV:   5    -0.445130951155E+02   -0.76148E-01   -0.76142E-01 21368   0.173E+00    0.145E+01
RMM:   6    -0.448197301540E+02   -0.30664E+00   -0.30799E+00 18129   0.909E+00    0.102E+01
RMM:   7    -0.443260468887E+02    0.49368E+00   -0.10876E+00 17622   0.567E+00    0.550E+00
RMM:   8    -0.440399479155E+02    0.28610E+00   -0.48001E-01 17942   0.407E+00    0.256E+00
RMM:   9    -0.440695742128E+02   -0.29626E-01   -0.16077E-01 18774   0.243E+00    0.140E+00
RMM:  10    -0.440692234196E+02    0.35079E-03   -0.34809E-02 20255   0.108E+00    0.106E+00
RMM:  11    -0.440638860502E+02    0.53374E-02   -0.93245E-03 21210   0.580E-01    0.387E-01
WARNING in EDDRMM: call to ZHEGV failed, returncode =   6  3      5
RMM:  12    -0.440642581888E+02   -0.37214E-03   -0.45765E-03 21889   0.428E-01    0.119E-01
RMM:  13    -0.440646864835E+02   -0.42829E-03   -0.17198E-03 26136   0.226E-01    0.515E-02
WARNING in EDDRMM: call to ZHEGV failed, returncode =   6  3     14
WARNING in EDDRMM: call to ZHEGV failed, returncode =   6  3      2
WARNING in EDDRMM: call to ZHEGV failed, returncode =   8  4     14
RMM:  14    -0.440648262222E+02   -0.13974E-03   -0.70691E-04 26881   0.131E-01    0.266E-02
WARNING in EDDRMM: call to ZHEGV failed, returncode =   6  3     11
RMM:  15    -0.440648847344E+02   -0.58512E-04   -0.35539E-04 26761   0.884E-02    0.161E-02
RMM:  16    -0.440649107187E+02   -0.25984E-04   -0.16717E-04 24071   0.587E-02    0.115E-02
WARNING in EDDRMM: call to ZHEGV failed, returncode =   6  3      5
WARNING in EDDRMM: call to ZHEGV failed, returncode =   6  3     12
WARNING in EDDRMM: call to ZHEGV failed, returncode =   8  4      3
RMM:  17    -0.440649257684E+02   -0.15050E-04   -0.74810E-05 20345   0.441E-02    0.572E-03
RMM:  18    -0.440649285921E+02   -0.28237E-05   -0.16596E-05 14412   0.322E-02
   1 F= -.44064929E+02 E0= -.44064929E+02  d E =0.000000E+00  mag=     0.0109
 -----------------------------------------------------------------------------
|                                                                             |
|           W    W    AA    RRRRR   N    N  II  N    N   GGGG   !!!           |
|           W    W   A  A   R    R  NN   N  II  NN   N  G    G  !!!           |
|           W    W  A    A  R    R  N N  N  II  N N  N  G       !!!           |
|           W WW W  AAAAAA  RRRRR   N  N N  II  N  N N  G  GGG   !            |
|           WW  WW  A    A  R   R   N   NN  II  N   NN  G    G                |
|           W    W  A    A  R    R  N    N  II  N    N   GGGG   !!!           |
|                                                                             |
|     Tetrahedron method does not include variations of the Fermi             |
|     occupations, so forces and stress will be inaccurate. We suggest        |
|     using a different smearing scheme ISMEAR = 1 or 2 for metals in         |
|     relaxations.                                                            |
|                                                                             |
 -----------------------------------------------------------------------------

