    4    4    1    2
  0.1150669E+02  0.3681914E-09  0.3681914E-09  0.3920418E-09  0.5000000E-15
  1.000000000000000E-004
  CAR 
 unknown system                          
     14     70     12
 
  0.0000000E+00  0.0000000E+00  0.0000000E+00  0.1250000E-02
    1      -43.398232    -43.397668   1.000000   1.000000
    2      -43.088362    -43.087786   1.000000   1.000000
    3      -42.956141    -42.955779   1.000000   1.000000
    4      -10.222001    -10.222086   1.000000   1.000000
    5       -0.271764     -0.271813   1.000000   1.000000
    6        1.023002      1.022892   1.000000   1.000000
    7        1.023029      1.022916   1.000000   1.000000
    8        2.178449      2.178602   0.000001   0.000001
    9        8.379640      8.379787   0.000000   0.000000
   10        8.379712      8.379857   0.000000   0.000000
   11        9.263474      9.263492   0.000000   0.000000
   12       13.184062     13.183675   0.000000   0.000000
 
  0.1000000E+00 -0.5327080E-18  0.0000000E+00  0.7500000E-02
    1      -43.391365    -43.390801   1.000000   1.000000
    2      -43.095043    -43.094468   1.000000   1.000000
    3      -42.956215    -42.955853   1.000000   1.000000
    4      -10.211684    -10.211771   1.000000   1.000000
    5       -0.207992     -0.208040   1.000000   1.000000
    6        0.631208      0.631152   1.000000   1.000000
    7        0.908016      0.907912   1.000000   1.000000
    8        2.554008      2.554120  -0.000000  -0.000000
    9        8.396648      8.396945   0.000000   0.000000
   10        8.652142      8.652283   0.000000   0.000000
   11        9.153233      9.153295   0.000000   0.000000
   12       12.975995     12.949998   0.000000   0.000000
 
  0.2000000E+00 -0.1065416E-17  0.0000000E+00  0.7500000E-02
    1      -43.371651    -43.371086   1.000000   1.000000
    2      -43.113977    -43.113402   1.000000   1.000000
    3      -42.956257    -42.955896   1.000000   1.000000
    4      -10.184272    -10.184365   1.000000   1.000000
    5       -0.032940     -0.032993   1.000000   1.000000
    6       -0.006925     -0.006935   1.000000   1.000000
    7        0.634351      0.634262   1.000000   1.000000
    8        3.203235      3.203319   0.000000   0.000000
    9        8.212569      8.212750   0.000000   0.000000
   10        8.867474      8.867501   0.000000   0.000000
   11        9.319648      9.319747   0.000000   0.000000
   12       12.779822     12.748458   0.000000   0.000000
 
  0.3000000E+00 -0.8155996E-17  0.0000000E+00  0.7500000E-02
    1      -43.342288    -43.341722   1.000000   1.000000
    2      -43.142462    -43.141889   1.000000   1.000000
    3      -42.956374    -42.956013   1.000000   1.000000
    4      -10.150356    -10.150455   1.000000   1.000000
    5       -0.559498     -0.559478   1.000000   1.000000
    6        0.202274      0.202217   1.000000   1.000000
    7        0.338028      0.337953   1.000000   1.000000
    8        3.923770      3.923858   0.000000   0.000000
    9        7.558364      7.558472   0.000000   0.000000
   10        8.508967      8.509000   0.000000   0.000000
   11        9.980863      9.980905   0.000000   0.000000
   12       12.916653     12.951318   0.000000   0.000000
 
  0.4000000E+00 -0.2840180E-16  0.0000000E+00  0.7500000E-02
    1      -43.310028    -43.309460   1.000000   1.000000
    2      -43.173846    -43.173274   1.000000   1.000000
    3      -42.956435    -42.956074   1.000000   1.000000
    4      -10.122671    -10.122777   1.000000   1.000000
    5       -0.922116     -0.922079   1.000000   1.000000
    6        0.123739      0.123673   1.000000   1.000000
    7        0.411327      0.411261   1.000000   1.000000
    8        4.726682      4.726777   0.000000   0.000000
    9        6.621785      6.621985   0.000000   0.000000
   10        8.203118      8.203169   0.000000   0.000000
   11       10.295610     10.295608   0.000000   0.000000
   12       12.333926     12.333637   0.000000   0.000000
 
  0.5000000E+00  0.4656375E-17  0.0000000E+00  0.3750000E-02
    1      -43.292754    -43.292186   1.000000   1.000000
    2      -43.190825    -43.190253   1.000000   1.000000
    3      -42.956471    -42.956110   1.000000   1.000000
    4      -10.112040    -10.112148   1.000000   1.000000
    5       -1.047800     -1.047756   1.000000   1.000000
    6        0.046779      0.046716   1.000000   1.000000
    7        0.496509      0.496445   1.000000   1.000000
    8        5.524007      5.524174   0.000000   0.000000
    9        5.811438      5.804654   0.000000   0.000000
   10        8.080068      8.080109   0.000000   0.000000
   11       10.360745     10.360730   0.000000   0.000000
   12       12.043397     12.043787   0.000000   0.000000
 
  0.1000000E+00  0.1000000E+00  0.0000000E+00  0.7500000E-02
    1      -43.378040    -43.377476   1.000000   1.000000
    2      -43.107782    -43.107207   1.000000   1.000000
    3      -42.956238    -42.955876   1.000000   1.000000
    4      -10.192726    -10.192817   1.000000   1.000000
    5       -0.088434     -0.088486   1.000000   1.000000
    6        0.173859      0.173839   1.000000   1.000000
    7        0.698113      0.698025   1.000000   1.000000
    8        3.027509      3.027592   0.000000   0.000000
    9        8.364742      8.364885   0.000000   0.000000
   10        8.960564      8.960592   0.000000   0.000000
   11        9.046061      9.046168   0.000000   0.000000
   12       12.770710     12.781177   0.000000   0.000000
 
  0.2000000E+00  0.1000000E+00  0.0000000E+00  0.1500000E-01
    1      -43.353265    -43.352700   1.000000   1.000000
    2      -43.131725    -43.131151   1.000000   1.000000
    3      -42.956320    -42.955959   1.000000   1.000000
    4      -10.162211    -10.162308   1.000000   1.000000
    5       -0.351211     -0.351204   1.000000   1.000000
    6        0.117774      0.117717   1.000000   1.000000
    7        0.385498      0.385420   1.000000   1.000000
    8        3.682456      3.682537   0.000000   0.000000
    9        7.997706      7.997791   0.000000   0.000000
   10        8.667312      8.667340   0.000000   0.000000
   11        9.505576      9.500753   0.000000   0.000000
   12       13.096945     12.874582   0.000000   0.000000
 
  0.3000000E+00  0.1000000E+00  0.0000000E+00  0.1500000E-01
    1      -43.321429    -43.320862   1.000000   1.000000
    2      -43.162693    -43.162120   1.000000   1.000000
    3      -42.956447    -42.956086   1.000000   1.000000
    4      -10.131541    -10.131643   1.000000   1.000000
    5       -0.763871     -0.763845   1.000000   1.000000
    6        0.109523      0.109466   1.000000   1.000000
    7        0.342793      0.342733   1.000000   1.000000
    8        4.437227      4.437309   0.000000   0.000000
    9        7.195682      7.195824   0.000000   0.000000
   10        8.386270      8.386298   0.000000   0.000000
   11        9.778976      9.779272   0.000000   0.000000
   12       12.212412     12.212517   0.000000   0.000000
 
  0.4000000E+00  0.1000000E+00  0.0000000E+00  0.1500000E-01
    1      -43.292878    -43.292310   1.000000   1.000000
    2      -43.190673    -43.190101   1.000000   1.000000
    3      -42.956519    -42.956157   1.000000   1.000000
    4      -10.112565    -10.112674   1.000000   1.000000
    5       -0.986207     -0.986169   1.000000   1.000000
    6       -0.046338     -0.046389   1.000000   1.000000
    7        0.493275      0.493210   1.000000   1.000000
    8        5.288970      5.289057   0.000000   0.000000
    9        6.233927      6.234010   0.000000   0.000000
   10        8.212988      8.213029   0.000000   0.000000
   11        9.867330      9.867723   0.000000   0.000000
   12       11.588179     11.588238   0.000000   0.000000
 
  0.2000000E+00  0.2000000E+00  0.0000000E+00  0.7500000E-02
    1      -43.325401    -43.324834   1.000000   1.000000
    2      -43.158788    -43.158215   1.000000   1.000000
    3      -42.956476    -42.956115   1.000000   1.000000
    4      -10.135066    -10.135168   1.000000   1.000000
    5       -0.659137     -0.659118   1.000000   1.000000
    6        0.045849      0.045803   1.000000   1.000000
    7        0.316193      0.316133   1.000000   1.000000
    8        4.358911      4.358984   0.000000   0.000000
    9        7.619936      7.620044   0.000000   0.000000
   10        8.509344      8.509364   0.000000   0.000000
   11        9.258022      9.258334   0.000000   0.000000
   12       11.990727     11.990666   0.000000   0.000000
 
  0.3000000E+00  0.2000000E+00  0.0000000E+00  0.1500000E-01
    1      -43.293101    -43.292533   1.000000   1.000000
    2      -43.190364    -43.189792   1.000000   1.000000
    3      -42.956594    -42.956233   1.000000   1.000000
    4      -10.113297    -10.113403   1.000000   1.000000
    5       -0.853134     -0.853107   1.000000   1.000000
    6       -0.228741     -0.228769   1.000000   1.000000
    7        0.488073      0.488008   1.000000   1.000000
    8        5.156413      5.156437   0.000000   0.000000
    9        6.918948      6.919057   0.000000   0.000000
   10        8.483119      8.483158   0.000000   0.000000
   11        9.011743      9.013517   0.000000   0.000000
   12       10.918752     10.918812   0.000000   0.000000
 
  0.4000000E+00  0.2000000E+00  0.0000000E+00  0.7500000E-02
    1      -43.273125    -43.272556   1.000000   1.000000
    2      -43.210004    -43.209433   1.000000   1.000000
    3      -42.956627    -42.956266   1.000000   1.000000
    4      -10.105000    -10.105108   1.000000   1.000000
    5       -0.916650     -0.916620   1.000000   1.000000
    6       -0.333365     -0.333387   1.000000   1.000000
    7        0.556762      0.556695   1.000000   1.000000
    8        5.969360      5.965766   0.000000   0.000000
    9        6.130868      6.130990   0.000000   0.000000
   10        8.517244      8.517285   0.000000   0.000000
   11        8.940866      8.941551   0.000000   0.000000
   12       10.493387     10.493422   0.000000   0.000000
 
  0.3000000E+00  0.3000000E+00  0.0000000E+00  0.7500000E-02
    1      -43.261021    -43.260451   1.000000   1.000000
    2      -43.221885    -43.221315   1.000000   1.000000
    3      -42.956654    -42.956293   1.000000   1.000000
    4      -10.102252    -10.102363   1.000000   1.000000
    5       -0.798216     -0.798198   1.000000   1.000000
    6       -0.538649     -0.538650   1.000000   1.000000
    7        0.580227      0.580160   1.000000   1.000000
    8        5.936179      5.935481   0.000000   0.000000
    9        6.581998      6.581946   0.000000   0.000000
   10        8.353405      8.353645   0.000000   0.000000
   11        8.880256      8.880295   0.000000   0.000000
   12        9.825722      9.825760   0.000000   0.000000
 
  0.0000000E+00  0.0000000E+00  0.1250000E+00  0.2500000E-02
    1      -43.397990    -43.397426   1.000000   1.000000
    2      -43.088426    -43.087850   1.000000   1.000000
    3      -42.956432    -42.956071   1.000000   1.000000
    4      -10.229068    -10.229155   1.000000   1.000000
    5       -0.532990     -0.533005   1.000000   1.000000
    6        1.050385      1.050272   1.000000   1.000000
    7        1.050413      1.050298   1.000000   1.000000
    8        2.621097      2.621227  -0.000000  -0.000000
    9        8.471918      8.472065   0.000000   0.000000
   10        8.471982      8.472135   0.000000   0.000000
   11        9.051174      9.051367   0.000000   0.000000
   12       12.845969     12.829100   0.000000   0.000000
 
  0.1000000E+00 -0.5327080E-18  0.1250000E+00  0.1500000E-01
    1      -43.391081    -43.390517   1.000000   1.000000
    2      -43.095007    -43.094432   1.000000   1.000000
    3      -42.956410    -42.956048   1.000000   1.000000
    4      -10.219208    -10.219297   1.000000   1.000000
    5       -0.473121     -0.473140   1.000000   1.000000
    6        0.748968      0.748894   1.000000   1.000000
    7        0.937089      0.936986   1.000000   1.000000
    8        2.894183      2.894279  -0.000000  -0.000000
    9        8.473349      8.473442   0.000000   0.000000
   10        8.740767      8.740896   0.000000   0.000000
   11        8.968504      8.968503   0.000000   0.000000
   12       12.648732     12.644995   0.000000   0.000000
 
  0.2000000E+00 -0.1065416E-17  0.1250000E+00  0.1500000E-01
    1      -43.371415    -43.370850   1.000000   1.000000
    2      -43.113991    -43.113417   1.000000   1.000000
    3      -42.956419    -42.956058   1.000000   1.000000
    4      -10.193557    -10.193651   1.000000   1.000000
    5       -0.360373     -0.360382   1.000000   1.000000
    6        0.257221      0.257176   1.000000   1.000000
    7        0.667006      0.666917   1.000000   1.000000
    8        3.406826      3.406902   0.000000   0.000000
    9        8.076567      8.076744   0.000000   0.000000
   10        8.947928      8.947815   0.000000   0.000000
   11        9.387175      9.387270   0.000000   0.000000
   12       12.267026     12.238191   0.000000   0.000000
 
  0.3000000E+00 -0.8155996E-17  0.1250000E+00  0.1500000E-01
    1      -43.342095    -43.341529   1.000000   1.000000
    2      -43.142409    -43.141836   1.000000   1.000000
    3      -42.956420    -42.956059   1.000000   1.000000
    4      -10.161720    -10.161822   1.000000   1.000000
    5       -0.545527     -0.545508   1.000000   1.000000
    6        0.194771      0.194721   1.000000   1.000000
    7        0.373997      0.373922   1.000000   1.000000
    8        3.957558      3.957631   0.000000   0.000000
    9        7.218011      7.218135   0.000000   0.000000
   10        8.947866      8.947702   0.000000   0.000000
   11        9.960966      9.960999   0.000000   0.000000
   12       11.937442     11.939142   0.000000   0.000000
 
  0.4000000E+00 -0.2840180E-16  0.1250000E+00  0.1500000E-01
    1      -43.309962    -43.309394   1.000000   1.000000
    2      -43.173787    -43.173215   1.000000   1.000000
    3      -42.956430    -42.956069   1.000000   1.000000
    4      -10.135912    -10.136019   1.000000   1.000000
    5       -0.844650     -0.844616   1.000000   1.000000
    6        0.161811      0.161745   1.000000   1.000000
    7        0.401107      0.401051   1.000000   1.000000
    8        4.530760      4.530833   0.000000   0.000000
    9        6.272180      6.272315   0.000000   0.000000
   10        8.950092      8.947819   0.000000   0.000000
   11       10.146412     10.146392   0.000000   0.000000
   12       11.499480     11.499397   0.000000   0.000000
 
  0.5000000E+00  0.4656375E-17  0.1250000E+00  0.7500000E-02
    1      -43.292677    -43.292109   1.000000   1.000000
    2      -43.190721    -43.190149   1.000000   1.000000
    3      -42.956413    -42.956052   1.000000   1.000000
    4      -10.125983    -10.126093   1.000000   1.000000
    5       -0.957887     -0.957847   1.000000   1.000000
    6        0.085556      0.085492   1.000000   1.000000
    7        0.500643      0.500585   1.000000   1.000000
    8        4.964593      4.964729   0.000000   0.000000
    9        5.681402      5.681569   0.000000   0.000000
   10        8.999152      8.980376   0.000000   0.000000
   11       10.160846     10.160825   0.000000   0.000000
   12       11.265998     11.266074   0.000000   0.000000
 
  0.1000000E+00  0.1000000E+00  0.1250000E+00  0.1500000E-01
    1      -43.377785    -43.377220   1.000000   1.000000
    2      -43.107817    -43.107242   1.000000   1.000000
    3      -42.956408    -42.956046   1.000000   1.000000
    4      -10.201475    -10.201567   1.000000   1.000000
    5       -0.381263     -0.381276   1.000000   1.000000
    6        0.383577      0.383527   1.000000   1.000000
    7        0.731037      0.730948   1.000000   1.000000
    8        3.267171      3.267249   0.000000   0.000000
    9        8.440204      8.440345   0.000000   0.000000
   10        8.637422      8.637396   0.000000   0.000000
   11        9.294907      9.294550   0.000000   0.000000
   12       12.248240     12.247815   0.000000   0.000000
 
  0.2000000E+00  0.1000000E+00  0.1250000E+00  0.3000000E-01
    1      -43.353059    -43.352494   1.000000   1.000000
    2      -43.131714    -43.131141   1.000000   1.000000
    3      -42.956412    -42.956051   1.000000   1.000000
    4      -10.172835    -10.172932   1.000000   1.000000
    5       -0.415120     -0.415112   1.000000   1.000000
    6        0.163553      0.163505   1.000000   1.000000
    7        0.424632      0.424559   1.000000   1.000000
    8        3.774471      3.774544   0.000000   0.000000
    9        7.816419      7.816536   0.000000   0.000000
   10        8.614766      8.614827   0.000000   0.000000
   11        9.789166      9.788977   0.000000   0.000000
   12       11.927813     11.909456   0.000000   0.000000
 
  0.3000000E+00  0.1000000E+00  0.1250000E+00  0.3000000E-01
    1      -43.321261    -43.320693   1.000000   1.000000
    2      -43.162633    -43.162060   1.000000   1.000000
    3      -42.956422    -42.956061   1.000000   1.000000
    4      -10.144137    -10.144241   1.000000   1.000000
    5       -0.705116     -0.705090   1.000000   1.000000
    6        0.148714      0.148655   1.000000   1.000000
    7        0.333836      0.333781   1.000000   1.000000
    8        4.324084      4.324156   0.000000   0.000000
    9        6.858479      6.858596   0.000000   0.000000
   10        8.733964      8.733684   0.000000   0.000000
   11        9.893123      9.892814   0.000000   0.000000
   12       11.641153     11.644503   0.000000   0.000000
 
  0.4000000E+00  0.1000000E+00  0.1250000E+00  0.3000000E-01
    1      -43.292825    -43.292257   1.000000   1.000000
    2      -43.190570    -43.189999   1.000000   1.000000
    3      -42.956469    -42.956108   1.000000   1.000000
    4      -10.126448    -10.126559   1.000000   1.000000
    5       -0.900443     -0.900407   1.000000   1.000000
    6       -0.003359     -0.003411   1.000000   1.000000
    7        0.500926      0.500867   1.000000   1.000000
    8        4.883453      4.883523   0.000000   0.000000
    9        5.996125      5.996260   0.000000   0.000000
   10        8.975519      8.970558   0.000000   0.000000
   11        9.631092      9.631127   0.000000   0.000000
   12       11.389364     11.393686   0.000000   0.000000
 
  0.2000000E+00  0.2000000E+00  0.1250000E+00  0.1500000E-01
    1      -43.325197    -43.324630   1.000000   1.000000
    2      -43.158733    -43.158160   1.000000   1.000000
    3      -42.956431    -42.956070   1.000000   1.000000
    4      -10.147429    -10.147532   1.000000   1.000000
    5       -0.616020     -0.616002   1.000000   1.000000
    6        0.094252      0.094204   1.000000   1.000000
    7        0.310309      0.310256   1.000000   1.000000
    8        4.264539      4.264605   0.000000   0.000000
    9        7.434301      7.434400   0.000000   0.000000
   10        8.191817      8.191754   0.000000   0.000000
   11        9.893979      9.891493   0.000000   0.000000
   12       11.483120     11.483223   0.000000   0.000000
 
  0.3000000E+00  0.2000000E+00  0.1250000E+00  0.3000000E-01
    1      -43.292974    -43.292406   1.000000   1.000000
    2      -43.190316    -43.189744   1.000000   1.000000
    3      -42.956505    -42.956144   1.000000   1.000000
    4      -10.127144    -10.127252   1.000000   1.000000
    5       -0.777271     -0.777246   1.000000   1.000000
    6       -0.173557     -0.173586   1.000000   1.000000
    7        0.498938      0.498878   1.000000   1.000000
    8        4.815286      4.815345   0.000000   0.000000
    9        6.584555      6.584650   0.000000   0.000000
   10        8.397516      8.397007   0.000000   0.000000
   11        9.642887      9.640789   0.000000   0.000000
   12       11.005853     11.005588   0.000000   0.000000
 
  0.4000000E+00  0.2000000E+00  0.1250000E+00  0.1500000E-01
    1      -43.273072    -43.272503   1.000000   1.000000
    2      -43.209947    -43.209376   1.000000   1.000000
    3      -42.956539    -42.956178   1.000000   1.000000
    4      -10.119460    -10.119569   1.000000   1.000000
    5       -0.832297     -0.832269   1.000000   1.000000
    6       -0.276195     -0.276219   1.000000   1.000000
    7        0.580300      0.580238   1.000000   1.000000
    8        5.237887      5.237931   0.000000   0.000000
    9        6.006035      6.006143   0.000000   0.000000
   10        8.732320      8.732154   0.000000   0.000000
   11        9.296775      9.289959   0.000000   0.000000
   12       10.821343     10.822277   0.000000   0.000000
 
  0.3000000E+00  0.3000000E+00  0.1250000E+00  0.1500000E-01
    1      -43.260991    -43.260422   1.000000   1.000000
    2      -43.221834    -43.221264   1.000000   1.000000
    3      -42.956548    -42.956187   1.000000   1.000000
    4      -10.116909    -10.117020   1.000000   1.000000
    5       -0.719876     -0.719860   1.000000   1.000000
    6       -0.470046     -0.470050   1.000000   1.000000
    7        0.609305      0.609242   1.000000   1.000000
    8        5.381870      5.381922   0.000000   0.000000
    9        6.089322      6.089390   0.000000   0.000000
   10        8.365887      8.366087   0.000000   0.000000
   11        9.632799      9.630581   0.000000   0.000000
   12       10.239487     10.239181   0.000000   0.000000
 
  0.0000000E+00  0.0000000E+00  0.2500000E+00  0.2500000E-02
    1      -43.397213    -43.396649   1.000000   1.000000
    2      -43.088420    -43.087845   1.000000   1.000000
    3      -42.956934    -42.956573   1.000000   1.000000
    4      -10.245817    -10.245906   1.000000   1.000000
    5       -0.979294     -0.979276   1.000000   1.000000
    6        1.118148      1.118036   1.000000   1.000000
    7        1.118175      1.118059   1.000000   1.000000
    8        3.569957      3.570049   0.000000   0.000000
    9        8.535542      8.535659   0.000000   0.000000
   10        8.719864      8.720012   0.000000   0.000000
   11        8.719927      8.720084   0.000000   0.000000
   12       12.126272     12.125874   0.000000   0.000000
 
  0.1000000E+00 -0.5327080E-18  0.2500000E+00  0.1500000E-01
    1      -43.390351    -43.389786   1.000000   1.000000
    2      -43.094976    -43.094401   1.000000   1.000000
    3      -42.956844    -42.956483   1.000000   1.000000
    4      -10.237438    -10.237530   1.000000   1.000000
    5       -0.898189     -0.898172   1.000000   1.000000
    6        0.899515      0.899424   1.000000   1.000000
    7        1.009146      1.009041   1.000000   1.000000
    8        3.683412      3.683489   0.000000   0.000000
    9        8.412346      8.412457   0.000000   0.000000
   10        8.835616      8.835682   0.000000   0.000000
   11        8.983008      8.983154   0.000000   0.000000
   12       11.860511     11.861696   0.000000   0.000000
 
  0.2000000E+00 -0.1065416E-17  0.2500000E+00  0.1500000E-01
    1      -43.370795    -43.370230   1.000000   1.000000
    2      -43.113887    -43.113312   1.000000   1.000000
    3      -42.956682    -42.956321   1.000000   1.000000
    4      -10.215660    -10.215757   1.000000   1.000000
    5       -0.684843     -0.684828   1.000000   1.000000
    6        0.457774      0.457721   1.000000   1.000000
    7        0.748240      0.748150   1.000000   1.000000
    8        3.867571      3.867630   0.000000   0.000000
    9        7.887767      7.887898   0.000000   0.000000
   10        9.118831      9.118928   0.000000   0.000000
   11        9.572291      9.572384   0.000000   0.000000
   12       11.183823     11.186694   0.000000   0.000000
 
  0.3000000E+00 -0.8155996E-17  0.2500000E+00  0.1500000E-01
    1      -43.341633    -43.341066   1.000000   1.000000
    2      -43.142309    -43.141735   1.000000   1.000000
    3      -42.956516    -42.956155   1.000000   1.000000
    4      -10.189016    -10.189120   1.000000   1.000000
    5       -0.513918     -0.513899   1.000000   1.000000
    6        0.190173      0.190138   1.000000   1.000000
    7        0.463806      0.463728   1.000000   1.000000
    8        3.938422      3.938475   0.000000   0.000000
    9        7.049582      7.049722   0.000000   0.000000
   10        9.383298      9.383321   0.000000   0.000000
   11        9.843356      9.843365   0.000000   0.000000
   12       10.958718     10.959171   0.000000   0.000000
 
  0.4000000E+00 -0.2840180E-16  0.2500000E+00  0.1500000E-01
    1      -43.309690    -43.309122   1.000000   1.000000
    2      -43.173610    -43.173037   1.000000   1.000000
    3      -42.956382    -42.956021   1.000000   1.000000
    4      -10.167549    -10.167658   1.000000   1.000000
    5       -0.624190     -0.624163   1.000000   1.000000
    6        0.257111      0.257042   1.000000   1.000000
    7        0.363518      0.363481   1.000000   1.000000
    8        3.851083      3.851139   0.000000   0.000000
    9        6.356482      6.356632   0.000000   0.000000
   10        9.723087      9.723071   0.000000   0.000000
   11        9.744568      9.744694   0.000000   0.000000
   12       10.713627     10.713828   0.000000   0.000000
 
  0.5000000E+00  0.4656375E-17  0.2500000E+00  0.7500000E-02
    1      -43.292630    -43.292062   1.000000   1.000000
    2      -43.190461    -43.189889   1.000000   1.000000
    3      -42.956345    -42.955984   1.000000   1.000000
    4      -10.159376    -10.159488   1.000000   1.000000
    5       -0.705376     -0.705344   1.000000   1.000000
    6        0.182703      0.182636   1.000000   1.000000
    7        0.510990      0.510946   1.000000   1.000000
    8        3.762814      3.762878   0.000000   0.000000
    9        6.111545      6.111698   0.000000   0.000000
   10        9.648378      9.648359   0.000000   0.000000
   11       10.184807     10.184622   0.000000   0.000000
   12       10.294450     10.294475   0.000000   0.000000
 
  0.1000000E+00  0.1000000E+00  0.2500000E+00  0.1500000E-01
    1      -43.377141    -43.376576   1.000000   1.000000
    2      -43.107752    -43.107177   1.000000   1.000000
    3      -42.956740    -42.956379   1.000000   1.000000
    4      -10.222410    -10.222505   1.000000   1.000000
    5       -0.749631     -0.749615   1.000000   1.000000
    6        0.587303      0.587238   1.000000   1.000000
    7        0.813024      0.812932   1.000000   1.000000
    8        3.825982      3.826045   0.000000   0.000000
    9        8.273122      8.273225   0.000000   0.000000
   10        8.656204      8.656335   0.000000   0.000000
   11        9.572742      9.572797   0.000000   0.000000
   12       11.120676     11.120478   0.000000   0.000000
 
  0.2000000E+00  0.1000000E+00  0.2500000E+00  0.3000000E-01
    1      -43.352566    -43.352000   1.000000   1.000000
    2      -43.131642    -43.131068   1.000000   1.000000
    3      -42.956586    -42.956225   1.000000   1.000000
    4      -10.198311    -10.198412   1.000000   1.000000
    5       -0.539402     -0.539386   1.000000   1.000000
    6        0.256506      0.256465   1.000000   1.000000
    7        0.521578      0.521503   1.000000   1.000000
    8        3.944324      3.944376   0.000000   0.000000
    9        7.630332      7.630444   0.000000   0.000000
   10        8.533551      8.533383   0.000000   0.000000
   11       10.222014     10.222663   0.000000   0.000000
   12       10.945505     10.947031   0.000000   0.000000
 
  0.3000000E+00  0.1000000E+00  0.2500000E+00  0.3000000E-01
    1      -43.320921    -43.320353   1.000000   1.000000
    2      -43.162518    -43.161945   1.000000   1.000000
    3      -42.956414    -42.956053   1.000000   1.000000
    4      -10.174395    -10.174503   1.000000   1.000000
    5       -0.537876     -0.537856   1.000000   1.000000
    6        0.233936      0.233888   1.000000   1.000000
    7        0.309523      0.309474   1.000000   1.000000
    8        3.944946      3.944998   0.000000   0.000000
    9        6.675964      6.676088   0.000000   0.000000
   10        8.737224      8.737263   0.000000   0.000000
   11       10.383608     10.383723   0.000000   0.000000
   12       11.070856     11.071925   0.000000   0.000000
 
  0.4000000E+00  0.1000000E+00  0.2500000E+00  0.3000000E-01
    1      -43.292640    -43.292072   1.000000   1.000000
    2      -43.190342    -43.189770   1.000000   1.000000
    3      -42.956326    -42.955965   1.000000   1.000000
    4      -10.159743    -10.159853   1.000000   1.000000
    5       -0.659097     -0.659070   1.000000   1.000000
    6        0.107316      0.107261   1.000000   1.000000
    7        0.511563      0.511519   1.000000   1.000000
    8        3.865803      3.865865   0.000000   0.000000
    9        6.094966      6.095094   0.000000   0.000000
   10        8.974732      8.974751   0.000000   0.000000
   11       10.346726     10.346780   0.000000   0.000000
   12       10.947443     10.947623   0.000000   0.000000
 
  0.2000000E+00  0.2000000E+00  0.2500000E+00  0.1500000E-01
    1      -43.324836    -43.324269   1.000000   1.000000
    2      -43.158683    -43.158110   1.000000   1.000000
    3      -42.956448    -42.956087   1.000000   1.000000
    4      -10.177173    -10.177279   1.000000   1.000000
    5       -0.491123     -0.491107   1.000000   1.000000
    6        0.217860      0.217807   1.000000   1.000000
    7        0.276978      0.276941   1.000000   1.000000
    8        3.997632      3.997667   0.000000   0.000000
    9        6.971980      6.972071   0.000000   0.000000
   10        8.177955      8.178046   0.000000   0.000000
   11       10.710674     10.714067   0.000000   0.000000
   12       11.010830     11.011095   0.000000   0.000000
 
  0.3000000E+00  0.2000000E+00  0.2500000E+00  0.3000000E-01
    1      -43.292757    -43.292189   1.000000   1.000000
    2      -43.190202    -43.189630   1.000000   1.000000