 running on   12 total cores
 distrk:  each k-point on   12 cores,    1 groups
 distr:  one band on    6 cores,    2 groups
 using from now: INCAR     
 vasp.6.1.2 22Jul20 (build Mar 20 2021 11:25:07) complex                        
  
 POSCAR found type information on POSCAR LiN 
 POSCAR found :  2 types and       4 ions
 scaLAPACK will be used
 -----------------------------------------------------------------------------
|                                                                             |
|               ----> ADVICE to this user running VASP <----                  |
|                                                                             |
|     You have a (more or less) 'small supercell' and for smaller cells       |
|     it is recommended to use the reciprocal-space projection scheme!        |
|     The real-space optimization is not efficient for small cells and it     |
|     is also less accurate ...                                               |
|     Therefore, set LREAL=.FALSE. in the INCAR file.                         |
|                                                                             |
 -----------------------------------------------------------------------------

 LDA part: xc-table for Pade appr. of Perdew
 -----------------------------------------------------------------------------
|                                                                             |
|           W    W    AA    RRRRR   N    N  II  N    N   GGGG   !!!           |
|           W    W   A  A   R    R  NN   N  II  NN   N  G    G  !!!           |
|           W    W  A    A  R    R  N N  N  II  N N  N  G       !!!           |
|           W WW W  AAAAAA  RRRRR   N  N N  II  N  N N  G  GGG   !            |
|           WW  WW  A    A  R   R   N   NN  II  N   NN  G    G                |
|           W    W  A    A  R    R  N    N  II  N    N   GGGG   !!!           |
|                                                                             |
|     The determination of the symmetry of your systems shows a strong        |
|     dependence on the tolerance parameter SYMPREC. This is often the        |
|     result of "noise" in the structural parameters (lattice vectors         |
|     and/or ionic positions). Set NWRITE=3 for more details.                 |
|                                                                             |
 -----------------------------------------------------------------------------

 generate k-points for:   10   10    8
 POSCAR, INCAR and KPOINTS ok, starting setup
 FFT: planning ...
 WAVECAR not read
 entering main loop
       N       E                     dE             d eps       ncg     rms          rms(c)
DAV:   1     0.591085119425E+02    0.59109E+02   -0.64463E+03  3360   0.118E+03
DAV:   2    -0.842388716276E+01   -0.67532E+02   -0.63251E+02  4372   0.248E+02
DAV:   3    -0.180062218378E+02   -0.95823E+01   -0.95244E+01  5720   0.724E+01
DAV:   4    -0.186111644990E+02   -0.60494E+00   -0.60422E+00  4820   0.178E+01
DAV:   5    -0.186239188489E+02   -0.12754E-01   -0.12753E-01  4888   0.253E+00    0.141E+01
RMM:   6    -0.156377328318E+02    0.29862E+01   -0.86773E+00  3849   0.161E+01    0.659E+00
RMM:   7    -0.156590792085E+02   -0.21346E-01   -0.76377E-01  4340   0.925E+00    0.244E+00
RMM:   8    -0.155966026406E+02    0.62477E-01   -0.32350E-01  5326   0.395E+00    0.137E+00
RMM:   9    -0.156063541005E+02   -0.97515E-02   -0.14433E-01  5082   0.301E+00    0.497E-01
RMM:  10    -0.156113768863E+02   -0.50228E-02   -0.56234E-02  5723   0.171E+00    0.268E-01
RMM:  11    -0.156142659156E+02   -0.28890E-02   -0.23224E-02  5763   0.917E-01    0.133E-01
RMM:  12    -0.156154960963E+02   -0.12302E-02   -0.90194E-03  5672   0.695E-01    0.523E-02
RMM:  13    -0.156161148553E+02   -0.61876E-03   -0.48750E-03  5848   0.429E-01    0.464E-02
RMM:  14    -0.156163420356E+02   -0.22718E-03   -0.19782E-03  5574   0.268E-01    0.200E-02
RMM:  15    -0.156164533808E+02   -0.11135E-03   -0.98225E-04  5305   0.177E-01    0.514E-03
RMM:  16    -0.156165045729E+02   -0.51192E-04   -0.45725E-04  4917   0.119E-01    0.755E-03
RMM:  17    -0.156165283598E+02   -0.23787E-04   -0.22259E-04  4642   0.814E-02    0.798E-03
RMM:  18    -0.156165364237E+02   -0.80639E-05   -0.11038E-04  4505   0.620E-02    0.174E-02
RMM:  19    -0.156165431492E+02   -0.67255E-05   -0.49154E-05  4004   0.469E-02
   1 F= -.15616543E+02 E0= -.15616543E+02  d E =0.000000E+00  mag=     0.0000
