    4    4    1    2
  0.1234271E+02  0.4015759E-09  0.3650690E-09  0.3888635E-09  0.5000000E-15
  1.000000000000000E-004
  CAR 
 unknown system                          
     14    230     12
 
  0.0000000E+00  0.0000000E+00  0.0000000E+00  0.1388889E-02
    1      -43.981018    -43.980844   1.000000   1.000000
    2      -43.752082    -43.751904   1.000000   1.000000
    3      -43.053223    -43.053093   1.000000   1.000000
    4      -10.409103    -10.409211   1.000000   1.000000
    5       -0.311431     -0.311517   1.000000   1.000000
    6        0.570494      0.570445   1.000000   1.000000
    7        0.859160      0.859103   1.000000   1.000000
    8        1.735397      1.735420   0.000000   0.000000
    9        7.195558      7.195812   0.000000   0.000000
   10        8.005773      8.006398   0.000000   0.000000
   11        8.719081      8.719135   0.000000   0.000000
   12       11.715218     11.703095   0.000000   0.000000
 
  0.1111111E+00  0.5633864E-17  0.0000000E+00  0.2777778E-02
    1      -43.976354    -43.976179   1.000000   1.000000
    2      -43.756563    -43.756385   1.000000   1.000000
    3      -43.053178    -43.053048   1.000000   1.000000
    4      -10.399580    -10.399689   1.000000   1.000000
    5       -0.256197     -0.256285   1.000000   1.000000
    6        0.125565      0.125538   1.000000   1.000000
    7        0.764228      0.764176   1.000000   1.000000
    8        2.201510      2.201529   0.000000   0.000000
    9        7.242936      7.243344   0.000000   0.000000
   10        8.246056      8.246256   0.000000   0.000000
   11        8.595443      8.595543   0.000000   0.000000
   12       11.396373     11.397852   0.000000   0.000000
 
  0.2222222E+00  0.2887187E-16  0.0000000E+00  0.2777778E-02
    1      -43.963628    -43.963454   1.000000   1.000000
    2      -43.768938    -43.768760   1.000000   1.000000
    3      -43.053111    -43.052980   1.000000   1.000000
    4      -10.375369    -10.375480   1.000000   1.000000
    5       -0.537506     -0.537503   1.000000   1.000000
    6       -0.109634     -0.109733   1.000000   1.000000
    7        0.548814      0.548768   1.000000   1.000000
    8        2.967381      2.967386   0.000000   0.000000
    9        7.093823      7.093988   0.000000   0.000000
   10        8.273941      8.274060   0.000000   0.000000
   11        8.876703      8.877666   0.000000   0.000000
   12       11.236757     11.236424   0.000000   0.000000
 
  0.3333333E+00  0.3450574E-16  0.0000000E+00  0.2777778E-02
    1      -43.946918    -43.946743   1.000000   1.000000
    2      -43.785350    -43.785172   1.000000   1.000000
    3      -43.053082    -43.052952   1.000000   1.000000
    4      -10.347484    -10.347600   1.000000   1.000000
    5       -1.056798     -1.056778   1.000000   1.000000
    6        0.070553      0.070429   1.000000   1.000000
    7        0.330979      0.330941   1.000000   1.000000
    8        3.778987      3.779033   0.000000   0.000000
    9        6.460940      6.461043   0.000000   0.000000
   10        7.888656      7.888758   0.000000   0.000000
   11        9.559853      9.560079   0.000000   0.000000
   12       11.875977     11.728315   0.000000   0.000000
 
  0.4444444E+00  0.5774375E-16  0.0000000E+00  0.2777778E-02
    1      -43.933851    -43.933677   1.000000   1.000000
    2      -43.798157    -43.797979   1.000000   1.000000
    3      -43.053038    -43.052907   1.000000   1.000000
    4      -10.328940    -10.329046   1.000000   1.000000
    5       -1.335196     -1.335170   1.000000   1.000000
    6        0.197407      0.197291   1.000000   1.000000
    7        0.200873      0.200838   1.000000   1.000000
    8        4.636368      4.636447   0.000000   0.000000
    9        5.577419      5.577485   0.000000   0.000000
   10        7.622991      7.623152   0.000000   0.000000
   11        9.928390      9.928517   0.000000   0.000000
   12       12.070647     12.071979   0.000000   0.000000
 
 -0.3209922E-18  0.1000000E+00  0.0000000E+00  0.2777778E-02
    1      -43.975252    -43.975078   1.000000   1.000000
    2      -43.757561    -43.757384   1.000000   1.000000
    3      -43.053137    -43.053006   1.000000   1.000000
    4      -10.394399    -10.394510   1.000000   1.000000
    5       -0.253697     -0.253785   1.000000   1.000000
    6        0.359319      0.359296   1.000000   1.000000
    7        0.543707      0.543706   1.000000   1.000000
    8        2.105620      2.105606   0.000000   0.000000
    9        7.455485      7.455748   0.000000   0.000000
   10        7.968413      7.968594   0.000000   0.000000
   11        8.645961      8.646059   0.000000   0.000000
   12       11.660734     11.661132   0.000000   0.000000
 
  0.1111111E+00  0.1000000E+00  0.0000000E+00  0.2777778E-02
    1      -43.966056    -43.965881   1.000000   1.000000
    2      -43.766551    -43.766373   1.000000   1.000000
    3      -43.053102    -43.052971   1.000000   1.000000
    4      -10.375875    -10.375986   1.000000   1.000000
    5       -0.248103     -0.248100   1.000000   1.000000
    6       -0.151064     -0.151160   1.000000   1.000000
    7        0.476159      0.476142   1.000000   1.000000
    8        2.663797      2.663782   0.000000   0.000000
    9        7.400549      7.400842   0.000000   0.000000
   10        8.369372      8.369394   0.000000   0.000000
   11        8.445303      8.445420   0.000000   0.000000
   12       11.334361     11.335518   0.000000   0.000000
 
  0.2222222E+00  0.1000000E+00  0.0000000E+00  0.2777778E-02
    1      -43.950558    -43.950383   1.000000   1.000000
    2      -43.781708    -43.781530   1.000000   1.000000
    3      -43.053062    -43.052931   1.000000   1.000000
    4      -10.349114    -10.349228   1.000000   1.000000
    5       -0.823346     -0.823328   1.000000   1.000000
    6        0.015435      0.015326   1.000000   1.000000
    7        0.275491      0.275462   1.000000   1.000000
    8        3.423639      3.423568   0.000000   0.000000
    9        6.970053      6.970155   0.000000   0.000000
   10        8.118614      8.118747   0.000000   0.000000
   11        8.876005      8.876197   0.000000   0.000000
   12       11.587825     11.591256   0.000000   0.000000
 
  0.3333333E+00  0.1000000E+00  0.0000000E+00  0.2777778E-02
    1      -43.934569    -43.934394   1.000000   1.000000
    2      -43.797433    -43.797255   1.000000   1.000000
    3      -43.053042    -43.052911   1.000000   1.000000
    4      -10.326514    -10.326626   1.000000   1.000000
    5       -1.206297     -1.206272   1.000000   1.000000
    6        0.096346      0.096330   1.000000   1.000000
    7        0.172970      0.172849   1.000000   1.000000
    8        4.272749      4.272739   0.000000   0.000000
    9        6.180226      6.180313   0.000000   0.000000
   10        7.817812      7.817969   0.000000   0.000000
   11        9.210882      9.212779   0.000000   0.000000
   12       11.853760     11.854323   0.000000   0.000000
 
  0.4444444E+00  0.1000000E+00  0.0000000E+00  0.2777778E-02
    1      -43.927578    -43.927404   1.000000   1.000000
    2      -43.804220    -43.804042   1.000000   1.000000
    3      -43.052985    -43.052854   1.000000   1.000000
    4      -10.318957    -10.319076   1.000000   1.000000
    5       -1.336940     -1.336914   1.000000   1.000000
    6        0.020576      0.020558   1.000000   1.000000
    7        0.237864      0.237737   1.000000   1.000000
    8        5.189205      5.189283   0.000000   0.000000
    9        5.277158      5.277157   0.000000   0.000000
   10        7.696483      7.696617   0.000000   0.000000
   11        9.338495      9.338291   0.000000   0.000000
   12       11.525425     11.526040   0.000000   0.000000
 
 -0.4444444E+00  0.1000000E+00  0.0000000E+00  0.2777778E-02
    1      -43.935655    -43.935481   1.000000   1.000000
    2      -43.796273    -43.796096   1.000000   1.000000
    3      -43.053009    -43.052878   1.000000   1.000000
    4      -10.330239    -10.330354   1.000000   1.000000
    5       -1.202829     -1.202809   1.000000   1.000000
    6        0.077525      0.077507   1.000000   1.000000
    7        0.171002      0.170879   1.000000   1.000000
    8        4.393916      4.393943   0.000000   0.000000
    9        6.128288      6.128415   0.000000   0.000000
   10        7.818081      7.818224   0.000000   0.000000
   11        9.275259      9.275018   0.000000   0.000000
   12       11.724266     11.724605   0.000000   0.000000
 
 -0.3333333E+00  0.1000000E+00  0.0000000E+00  0.2777778E-02
    1      -43.951946    -43.951771   1.000000   1.000000
    2      -43.780318    -43.780140   1.000000   1.000000
    3      -43.053060    -43.052929   1.000000   1.000000
    4      -10.354697    -10.354811   1.000000   1.000000
    5       -0.829988     -0.829976   1.000000   1.000000
    6        0.012754      0.012645   1.000000   1.000000
    7        0.253515      0.253493   1.000000   1.000000
    8        3.564854      3.564815   0.000000   0.000000
    9        6.920297      6.920402   0.000000   0.000000
   10        8.107535      8.107669   0.000000   0.000000
   11        9.008885      9.009014   0.000000   0.000000
   12       11.511144     11.510133   0.000000   0.000000
 
 -0.2222222E+00  0.1000000E+00  0.0000000E+00  0.2777778E-02
    1      -43.967113    -43.966938   1.000000   1.000000
    2      -43.765533    -43.765355   1.000000   1.000000
    3      -43.053134    -43.053003   1.000000   1.000000
    4      -10.380745    -10.380856   1.000000   1.000000
    5       -0.289973     -0.289973   1.000000   1.000000
    6       -0.153162     -0.153257   1.000000   1.000000
    7        0.485464      0.485429   1.000000   1.000000
    8        2.786340      2.786356   0.000000   0.000000
    9        7.285342      7.285683   0.000000   0.000000
   10        8.422657      8.422767   0.000000   0.000000
   11        8.573474      8.573447   0.000000   0.000000
   12       11.242239     11.242812   0.000000   0.000000
 
 -0.1111111E+00  0.1000000E+00  0.0000000E+00  0.2777778E-02
    1      -43.975636    -43.975461   1.000000   1.000000
    2      -43.757201    -43.757023   1.000000   1.000000
    3      -43.053148    -43.053017   1.000000   1.000000
    4      -10.396292    -10.396403   1.000000   1.000000
    5       -0.254465     -0.254554   1.000000   1.000000
    6        0.262535      0.262534   1.000000   1.000000
    7        0.625294      0.625253   1.000000   1.000000
    8        2.155484      2.155489   0.000000   0.000000
    9        7.344990      7.345492   0.000000   0.000000
   10        8.112257      8.112857   0.000000   0.000000
   11        8.633356      8.633459   0.000000   0.000000
   12       11.611510     11.614441   0.000000   0.000000
 
 -0.6419845E-18  0.2000000E+00  0.0000000E+00  0.2777778E-02
    1      -43.958717    -43.958542   1.000000   1.000000
    2      -43.773566    -43.773388   1.000000   1.000000
    3      -43.053013    -43.052882   1.000000   1.000000
    4      -10.355777    -10.355892   1.000000   1.000000
    5       -0.201522     -0.201509   1.000000   1.000000
    6       -0.096646     -0.096747   1.000000   1.000000
    7        0.171567      0.171584   1.000000   1.000000
    8        2.719860      2.719825   0.000000   0.000000
    9        7.591189      7.591341   0.000000   0.000000
   10        8.202751      8.202954   0.000000   0.000000
   11        8.481354      8.481501   0.000000   0.000000
   12       11.641404     11.641456   0.000000   0.000000
 
  0.1111111E+00  0.2000000E+00  0.0000000E+00  0.2777778E-02
    1      -43.945865    -43.945690   1.000000   1.000000
    2      -43.786187    -43.786009   1.000000   1.000000
    3      -43.052993    -43.052862   1.000000   1.000000
    4      -10.334002    -10.334119   1.000000   1.000000
    5       -0.641696     -0.641677   1.000000   1.000000
    6        0.018076      0.018079   1.000000   1.000000
    7        0.029346      0.029234   1.000000   1.000000
    8        3.286837      3.286799   0.000000   0.000000
    9        7.287865      7.287784   0.000000   0.000000
   10        8.306290      8.306456   0.000000   0.000000
   11        8.501849      8.501825   0.000000   0.000000
   12       11.638938     11.639440   0.000000   0.000000
 
  0.2222222E+00  0.2000000E+00  0.0000000E+00  0.2777778E-02
    1      -43.929178    -43.929003   1.000000   1.000000
    2      -43.802513    -43.802336   1.000000   1.000000
    3      -43.052932    -43.052801   1.000000   1.000000
    4      -10.311844    -10.311963   1.000000   1.000000
    5       -1.017417     -1.017392   1.000000   1.000000
    6       -0.183895     -0.183879   1.000000   1.000000
    7        0.179688      0.179563   1.000000   1.000000
    8        4.072753      4.072714   0.000000   0.000000
    9        6.820793      6.820875   0.000000   0.000000
   10        8.126553      8.126689   0.000000   0.000000
   11        8.364013      8.363880   0.000000   0.000000
   12       11.416466     11.416708   0.000000   0.000000
 
  0.3333333E+00  0.2000000E+00  0.0000000E+00  0.2777778E-02
    1      -43.916573    -43.916398   1.000000   1.000000
    2      -43.814927    -43.814750   1.000000   1.000000
    3      -43.052924    -43.052793   1.000000   1.000000
    4      -10.299901    -10.300019   1.000000   1.000000
    5       -1.215378     -1.215352   1.000000   1.000000
    6       -0.327328     -0.327307   1.000000   1.000000
    7        0.281596      0.281463   1.000000   1.000000
    8        4.967818      4.967829   0.000000   0.000000
    9        6.091533      6.091802   0.000000   0.000000
   10        8.036505      8.036681   0.000000   0.000000
   11        8.216896      8.217826   0.000000   0.000000
   12       10.680856     10.681694   0.000000   0.000000
 
  0.4444444E+00  0.2000000E+00  0.0000000E+00  0.2777778E-02
    1      -43.918301    -43.918126   1.000000   1.000000
    2      -43.813218    -43.813041   1.000000   1.000000
    3      -43.052931    -43.052800   1.000000   1.000000
    4      -10.303834    -10.303954   1.000000   1.000000
    5       -1.209409     -1.209389   1.000000   1.000000
    6       -0.340068     -0.340048   1.000000   1.000000
    7        0.278630      0.278497   1.000000   1.000000
    8        5.144116      5.144028   0.000000   0.000000
    9        6.001979      6.002058   0.000000   0.000000
   10        8.039097      8.039252   0.000000   0.000000
   11        8.198371      8.198726   0.000000   0.000000
   12       10.587586     10.587879   0.000000   0.000000
 
 -0.4444444E+00  0.2000000E+00  0.0000000E+00  0.2777778E-02
    1      -43.932622    -43.932447   1.000000   1.000000
    2      -43.799088    -43.798911   1.000000   1.000000
    3      -43.052942    -43.052812   1.000000   1.000000
    4      -10.321650    -10.321767   1.000000   1.000000
    5       -1.020647     -1.020633   1.000000   1.000000
    6       -0.197949     -0.197935   1.000000   1.000000
    7        0.172750      0.172627   1.000000   1.000000
    8        4.313336      4.313333   0.000000   0.000000
    9        6.767797      6.767887   0.000000   0.000000
   10        8.107092      8.107240   0.000000   0.000000
   11        8.359006      8.359418   0.000000   0.000000
   12       11.171695     11.171452   0.000000   0.000000
 
 -0.3333333E+00  0.2000000E+00  0.0000000E+00  0.2777778E-02
    1      -43.948943    -43.948768   1.000000   1.000000
    2      -43.783085    -43.782908   1.000000   1.000000
    3      -43.052988    -43.052857   1.000000   1.000000
    4      -10.344896    -10.345012   1.000000   1.000000
    5       -0.704120     -0.704107   1.000000   1.000000
    6        0.022296      0.022186   1.000000   1.000000
    7        0.063608      0.063597   1.000000   1.000000
    8        3.511129      3.511140   0.000000   0.000000
    9        7.147451      7.147518   0.000000   0.000000
   10        8.247397      8.247536   0.000000   0.000000
   11        8.694458      8.694693   0.000000   0.000000
   12       11.509253     11.507444   0.000000   0.000000
 
 -0.2222222E+00  0.2000000E+00  0.0000000E+00  0.2777778E-02
    1      -43.960461    -43.960286   1.000000   1.000000
    2      -43.771822    -43.771645   1.000000   1.000000
    3      -43.053015    -43.052884   1.000000   1.000000
    4      -10.362768    -10.362882   1.000000   1.000000
    5       -0.342505     -0.342488   1.000000   1.000000
    6       -0.100844     -0.100944   1.000000   1.000000
    7        0.310303      0.310274   1.000000   1.000000
    8        2.846992      2.846992   0.000000   0.000000
    9        7.325750      7.326053   0.000000   0.000000
   10        8.423037      8.423170   0.000000   0.000000
   11        8.552989      8.553834   0.000000   0.000000
   12       11.483063     11.475982   0.000000   0.000000
 
 -0.1111111E+00  0.2000000E+00  0.0000000E+00  0.2777778E-02
    1      -43.964004    -43.963829   1.000000   1.000000
    2      -43.768383    -43.768205   1.000000   1.000000
    3      -43.053031    -43.052900   1.000000   1.000000
    4      -10.367047    -10.367160   1.000000   1.000000
    5       -0.146164     -0.146261   1.000000   1.000000
    6       -0.074669     -0.074640   1.000000   1.000000
    7        0.318246      0.318229   1.000000   1.000000
    8        2.531675      2.531642   0.000000   0.000000
    9        7.638336      7.638392   0.000000   0.000000
   10        8.038847      8.040468   0.000000   0.000000
   11        8.530436      8.530573   0.000000   0.000000
   12       11.803512     11.800614   0.000000   0.000000
 
  0.4620443E-16  0.3000000E+00  0.0000000E+00  0.2777778E-02
    1      -43.933142    -43.932967   1.000000   1.000000
    2      -43.798478    -43.798301   1.000000   1.000000
    3      -43.052884    -43.052753   1.000000   1.000000
    4      -10.307376    -10.307496   1.000000   1.000000
    5       -0.730179     -0.730138   1.000000   1.000000
    6       -0.171719     -0.171699   1.000000   1.000000
    7        0.110754      0.110634   1.000000   1.000000
    8        3.395091      3.395045   0.000000   0.000000
    9        6.999001      6.999020   0.000000   0.000000
   10        8.334723      8.334913   0.000000   0.000000
   11        8.776210      8.776595   0.000000   0.000000
   12       11.870018     11.868547   0.000000   0.000000
 
  0.1111111E+00  0.3000000E+00  0.0000000E+00  0.2777778E-02
    1      -43.917878    -43.917702   1.000000   1.000000
    2      -43.813469    -43.813292   1.000000   1.000000
    3      -43.052834    -43.052703   1.000000   1.000000
    4      -10.289426    -10.289547   1.000000   1.000000
    5       -0.956754     -0.956717   1.000000   1.000000
    6       -0.371015     -0.370997   1.000000   1.000000
    7        0.223269      0.223137   1.000000   1.000000
    8        3.980452      3.980398   0.000000   0.000000
    9        6.659531      6.659655   0.000000   0.000000
   10        8.285223      8.285421   0.000000   0.000000
   11        8.605884      8.606787   0.000000   0.000000
   12       11.409825     11.363788   0.000000   0.000000
 
  0.2222222E+00  0.3000000E+00  0.0000000E+00  0.2777778E-02
    1      -43.901907    -43.901732   1.000000   1.000000
    2      -43.829227    -43.829050   1.000000   1.000000
    3      -43.052805    -43.052674   1.000000   1.000000
    4      -10.277458    -10.277579   1.000000   1.000000
    5       -1.074004     -1.073973   1.000000   1.000000
    6       -0.609242     -0.609197   1.000000   1.000000
    7        0.321755      0.321616   1.000000   1.000000
    8        4.806972      4.806966   0.000000   0.000000
    9        6.398896      6.399142   0.000000   0.000000
   10        7.849261      7.849833   0.000000   0.000000
   11        8.395019      8.395199   0.000000   0.000000
   12       10.223276     10.223480   0.000000   0.000000
 
  0.3333333E+00  0.3000000E+00  0.0000000E+00  0.2777778E-02
    1      -43.896898    -43.896723   1.000000   1.000000
    2      -43.834246    -43.834069   1.000000   1.000000
    3      -43.052846    -43.052715   1.000000   1.000000
    4      -10.277095    -10.277219   1.000000   1.000000
    5       -1.078191     -1.078172   1.000000   1.000000
    6       -0.738793     -0.738742   1.000000   1.000000
    7        0.356555      0.356413   1.000000   1.000000
    8        5.553735      5.553605   0.000000   0.000000
    9        6.177547      6.177531   0.000000   0.000000
   10        7.263206      7.263400   0.000000   0.000000
   11        8.581912      8.582073   0.000000   0.000000
   12        9.594246      9.594531   0.000000   0.000000
 
  0.4444444E+00  0.3000000E+00  0.0000000E+00  0.2777778E-02
    1      -43.908750    -43.908575   1.000000   1.000000
    2      -43.822505    -43.822327   1.000000   1.000000
    3      -43.052855    -43.052724   1.000000   1.000000
    4      -10.288250    -10.288372   1.000000   1.000000
    5       -1.078108     -1.078086   1.000000   1.000000
    6       -0.596170     -0.596136   1.000000   1.000000
    7        0.309736      0.309599   1.000000   1.000000
    8        5.110837      5.110798   0.000000   0.000000
    9        6.394209      6.394208   0.000000   0.000000
   10        7.637326      7.637601   0.000000   0.000000
   11        8.361847      8.362013   0.000000   0.000000
   12       10.073456     10.073731   0.000000   0.000000
 
 -0.4444444E+00  0.3000000E+00  0.0000000E+00  0.2777778E-02
    1      -43.925291    -43.925116   1.000000   1.000000
    2      -43.806224    -43.806046   1.000000   1.000000
    3      -43.052900    -43.052769   1.000000   1.000000
    4      -10.305681    -10.305797   1.000000   1.000000
    5       -1.022656     -1.022624   1.000000   1.000000
    6       -0.278740     -0.278737   1.000000   1.000000
    7        0.206305      0.206177   1.000000   1.000000
    8        4.294216      4.294227   0.000000   0.000000
    9        6.526048      6.526190   0.000000   0.000000
   10        8.169648      8.169819   0.000000   0.000000
   11        8.609919      8.610497   0.000000   0.000000
   12       11.151994     11.150574   0.000000   0.000000
 
 -0.3333333E+00  0.3000000E+00  0.0000000E+00  0.2777778E-02
    1      -43.938328    -43.938153   1.000000   1.000000
    2      -43.793396    -43.793218   1.000000   1.000000
    3      -43.052912    -43.052781   1.000000   1.000000
    4      -10.321355    -10.321478   1.000000   1.000000
    5       -0.867175     -0.867136   1.000000   1.000000
    6        0.012574      0.012549   1.000000   1.000000
    7        0.097114      0.096995   1.000000   1.000000
    8        3.597234      3.597247   0.000000   0.000000
    9        6.747430      6.747557   0.000000   0.000000
   10        8.187040      8.187210   0.000000   0.000000
   11        9.117635      9.118405   0.000000   0.000000
   12       11.718617     11.680366   0.000000   0.000000
 
 -0.2222222E+00  0.3000000E+00  0.0000000E+00  0.2777778E-02
    1      -43.944567    -43.944391   1.000000   1.000000
    2      -43.787254    -43.787077   1.000000   1.000000
    3      -43.052914    -43.052783   1.000000   1.000000
    4      -10.328068    -10.328186   1.000000   1.000000
    5       -0.664789     -0.664740   1.000000   1.000000
    6        0.031186      0.031073   1.000000   1.000000
    7        0.091828      0.091788   1.000000   1.000000
    8        3.192541      3.192523   0.000000   0.000000
    9        7.137355      7.137411   0.000000   0.000000
   10        8.313218      8.313388   0.000000   0.000000
   11        8.616462      8.615670   0.000000   0.000000
   12       11.886184     11.879372   0.000000   0.000000
 
 -0.1111111E+00  0.3000000E+00  0.0000000E+00  0.2777778E-02
    1      -43.942713    -43.942538   1.000000   1.000000
    2      -43.789050    -43.788872   1.000000   1.000000
    3      -43.052889    -43.052758   1.000000   1.000000
    4      -10.322608    -10.322727   1.000000   1.000000
    5       -0.569071     -0.569018   1.000000   1.000000
    6       -0.033643     -0.033643   1.000000   1.000000
    7        0.036281      0.036167   1.000000   1.000000
    8        3.131276      3.131225   0.000000   0.000000
    9        7.367323      7.367331   0.000000   0.000000
   10        8.326204      8.328235   0.000000   0.000000
   11        8.384924      8.385101   0.000000   0.000000
   12       12.018045     12.040336   0.000000   0.000000
 
  0.3902656E-16  0.4000000E+00  0.0000000E+00  0.2777778E-02
    1      -43.901318    -43.901142   1.000000   1.000000
    2      -43.829738    -43.829561   1.000000   1.000000
    3      -43.052784    -43.052653   1.000000   1.000000
    4      -10.267631    -10.267762   1.000000   1.000000
    5       -1.085143     -1.085083   1.000000   1.000000
    6       -0.411463     -0.411433   1.000000   1.000000
    7        0.291104      0.290967   1.000000   1.000000
    8        4.110107      4.110049   0.000000   0.000000
    9        6.196777      6.196699   0.000000   0.000000
   10        8.276904      8.277152   0.000000   0.000000
   11        9.042993      9.043108   0.000000   0.000000
   12       11.396818     11.396738   0.000000   0.000000
 
  0.1111111E+00  0.4000000E+00  0.0000000E+00  0.2777778E-02
    1      -43.885086    -43.884911   1.000000   1.000000
    2      -43.845806    -43.845630   1.000000   1.000000
    3      -43.052752    -43.052621   1.000000   1.000000
    4      -10.259287    -10.259419   1.000000   1.000000
    5       -1.140784     -1.140727   1.000000   1.000000
    6       -0.572944     -0.572916   1.000000   1.000000
    7        0.351865      0.351721   1.000000   1.000000
    8        4.666840      4.666783   0.000000   0.000000
    9        5.886737      5.886250   0.000000   0.000000
   10        8.368383      8.368641   0.000000   0.000000
   11        8.627362      8.627024   0.000000   0.000000
   12       10.588244     10.588328   0.000000   0.000000
 
  0.2222222E+00  0.4000000E+00  0.0000000E+00  0.2777778E-02
    1      -43.874056    -43.873881   1.000000   1.000000
    2      -43.856814    -43.856637   1.000000   1.000000
    3      -43.052761    -43.052630   1.000000   1.000000
    4      -10.258947    -10.259075   1.000000   1.000000
    5       -1.050317     -1.050258   1.000000   1.000000
    6       -0.806933     -0.806905   1.000000   1.000000
    7        0.382531      0.382385   1.000000   1.000000
    8        5.343580      5.343506   0.000000   0.000000
    9        5.841930      5.841134   0.000000   0.000000
   10        7.730117      7.730370   0.000000   0.000000
   11        8.727595      8.727869   0.000000   0.000000
   12        9.614779      9.614932   0.000000   0.000000
 
  0.3333333E+00  0.4000000E+00  0.0000000E+00  0.2777778E-02
    1      -43.887631    -43.887455   1.000000   1.000000
    2      -43.843335    -43.843158   1.000000   1.000000
    3      -43.052794    -43.052663   1.000000   1.000000
    4      -10.266411    -10.266536   1.000000   1.000000
    5       -1.068936     -1.068878   1.000000   1.000000
    6       -0.763838     -0.763820   1.000000   1.000000
    7        0.369797      0.369653   1.000000   1.000000
    8        5.541172      5.541082   0.000000   0.000000
    9        5.879151      5.879179   0.000000   0.000000
   10        7.501761      7.502245   0.000000   0.000000
   11        8.657897      8.658128   0.000000   0.000000
   12        9.605323      9.605534   0.000000   0.000000
 
  0.4444444E+00  0.4000000E+00  0.0000000E+00  0.2777778E-02
    1      -43.903486    -43.903311   1.000000   1.000000
    2      -43.827620    -43.827443   1.000000   1.000000
    3      -43.052804    -43.052673   1.000000   1.000000
    4      -10.277943    -10.278066   1.000000   1.000000
    5       -1.190362     -1.190308   1.000000   1.000000
    6       -0.446358     -0.446355   1.000000   1.000000
    7        0.320898      0.320758   1.000000   1.000000
    8        5.113119      5.113147   0.000000   0.000000
    9        5.657463      5.657074   0.000000   0.000000
   10        8.191687      8.191902   0.000000   0.000000
   11        8.479427      8.480649   0.000000   0.000000
   12       10.567464     10.567810   0.000000   0.000000
 
 -0.4444444E+00  0.4000000E+00  0.0000000E+00  0.2777778E-02
    1      -43.915390    -43.915214   1.000000   1.000000
    2      -43.815918    -43.815741   1.000000   1.000000
    3      -43.052846    -43.052715   1.000000   1.000000
    4      -10.288518    -10.288646   1.000000   1.000000
    5       -1.193642     -1.193587   1.000000   1.000000
    6       -0.181212     -0.181231   1.000000   1.000000
    7        0.258009      0.257874   1.000000   1.000000
    8        4.391375      4.391404   0.000000   0.000000
    9        5.899310      5.899309   0.000000   0.000000
   10        8.019208      8.019423   0.000000   0.000000
   11        9.359059      9.359560   0.000000   0.000000
   12       11.537624     11.549196   0.000000   0.000000
 
 -0.3333333E+00  0.4000000E+00  0.0000000E+00  0.2777778E-02
    1      -43.921516    -43.921340   1.000000   1.000000
    2      -43.809849    -43.809672   1.000000   1.000000
    3      -43.052835    -43.052704   1.000000   1.000000
    4      -10.293366    -10.293491   1.000000   1.000000
    5       -1.086850     -1.086791   1.000000   1.000000
    6       -0.122998     -0.123016   1.000000   1.000000
    7        0.209306      0.209183   1.000000   1.000000
    8        3.969080      3.969063   0.000000   0.000000
    9        6.331413      6.331420   0.000000   0.000000
   10        8.100864      8.101093   0.000000   0.000000
   11        9.073278      9.075022   0.000000   0.000000
   12       11.855470     11.859261   0.000000   0.000000
 
 -0.2222222E+00  0.4000000E+00  0.0000000E+00  0.2777778E-02
    1      -43.921020    -43.920844   1.000000   1.000000
    2      -43.810257    -43.810080   1.000000   1.000000