 running on   12 total cores
 distrk:  each k-point on   12 cores,    1 groups
 distr:  one band on    6 cores,    2 groups
 using from now: INCAR     
 vasp.6.1.2 22Jul20 (build Mar 20 2021 11:25:07) complex                        
  
 POSCAR found type information on POSCAR LiN 
 POSCAR found :  2 types and       4 ions
 scaLAPACK will be used
 -----------------------------------------------------------------------------
|                                                                             |
|               ----> ADVICE to this user running VASP <----                  |
|                                                                             |
|     You have a (more or less) 'small supercell' and for smaller cells       |
|     it is recommended to use the reciprocal-space projection scheme!        |
|     The real-space optimization is not efficient for small cells and it     |
|     is also less accurate ...                                               |
|     Therefore, set LREAL=.FALSE. in the INCAR file.                         |
|                                                                             |
 -----------------------------------------------------------------------------

 LDA part: xc-table for Pade appr. of Perdew
 generate k-points for:    9   10    8
 POSCAR, INCAR and KPOINTS ok, starting setup
 FFT: planning ...
 WAVECAR not read
 entering main loop
       N       E                     dE             d eps       ncg     rms          rms(c)
DAV:   1     0.592227646491E+02    0.59223E+02   -0.63193E+03 11048   0.117E+03
DAV:   2    -0.792727954535E+01   -0.67150E+02   -0.62653E+02 14316   0.245E+02
DAV:   3    -0.174357175328E+02   -0.95084E+01   -0.94440E+01 18188   0.728E+01
DAV:   4    -0.183434509510E+02   -0.90773E+00   -0.90670E+00 16596   0.199E+01
DAV:   5    -0.183566432816E+02   -0.13192E-01   -0.13192E-01 15976   0.288E+00    0.141E+01
RMM:   6    -0.154979603261E+02    0.28587E+01   -0.88846E+00 12777   0.161E+01    0.677E+00
RMM:   7    -0.154805715772E+02    0.17389E-01   -0.78226E-01 14321   0.941E+00    0.234E+00
RMM:   8    -0.154161652687E+02    0.64406E-01   -0.34209E-01 18187   0.411E+00    0.130E+00
RMM:   9    -0.154321056989E+02   -0.15940E-01   -0.13839E-01 17387   0.298E+00    0.524E-01
RMM:  10    -0.154364611251E+02   -0.43554E-02   -0.54386E-02 19516   0.168E+00    0.259E-01
RMM:  11    -0.154390041921E+02   -0.25431E-02   -0.22294E-02 19589   0.931E-01    0.120E-01
RMM:  12    -0.154404715762E+02   -0.14674E-02   -0.10157E-02 19586   0.716E-01    0.537E-02
RMM:  13    -0.154411340129E+02   -0.66244E-03   -0.54584E-03 19933   0.438E-01    0.463E-02
RMM:  14    -0.154414068475E+02   -0.27283E-03   -0.25891E-03 18886   0.287E-01    0.169E-02
RMM:  15    -0.154415603013E+02   -0.15345E-03   -0.13856E-03 17896   0.202E-01    0.748E-03
RMM:  16    -0.154416434359E+02   -0.83135E-04   -0.75101E-04 17090   0.143E-01    0.801E-03
RMM:  17    -0.154416897369E+02   -0.46301E-04   -0.43062E-04 16210   0.106E-01    0.719E-03
RMM:  18    -0.154417166580E+02   -0.26921E-04   -0.25265E-04 15407   0.817E-02    0.714E-03
RMM:  19    -0.154417327740E+02   -0.16116E-04   -0.15249E-04 14650   0.658E-02    0.833E-03
RMM:  20    -0.154417400582E+02   -0.72842E-05   -0.94865E-05 14684   0.572E-02
   1 F= -.15441740E+02 E0= -.15441740E+02  d E =0.000000E+00  mag=     0.0000
