       N       E                     dE             d eps       ncg     rms          rms(c)
DAV:   1     0.111644978817E+04    0.11164E+04   -0.62914E+04 24992   0.151E+03
DAV:   2    -0.665736195959E+02   -0.11830E+04   -0.11094E+04 29000   0.396E+02
DAV:   3    -0.174609578175E+03   -0.10804E+03   -0.10736E+03 32480   0.121E+02
DAV:   4    -0.184603118814E+03   -0.99935E+01   -0.99497E+01 47512   0.290E+01
DAV:   5    -0.185885793756E+03   -0.12827E+01   -0.12823E+01 33912   0.617E+00    0.555E+01
DAV:   6    -0.164961575590E+03    0.20924E+02   -0.84324E+01 31248   0.315E+01    0.279E+01
DAV:   7    -0.166916622258E+03   -0.19550E+01   -0.76519E+00 33232   0.894E+00    0.989E+00
DAV:   8    -0.167171715266E+03   -0.25509E+00   -0.87605E-01 33464   0.374E+00    0.481E+00
DAV:   9    -0.167303711710E+03   -0.13200E+00   -0.16579E-01 33624   0.174E+00    0.182E+00
DAV:  10    -0.167323419302E+03   -0.19708E-01   -0.47845E-02 31408   0.106E+00    0.563E-01
DAV:  11    -0.167334363626E+03   -0.10944E-01   -0.12807E-02 30280   0.484E-01    0.319E-01
DAV:  12    -0.167336629864E+03   -0.22662E-02   -0.17517E-03 32264   0.195E-01    0.162E-01
DAV:  13    -0.167337567148E+03   -0.93728E-03   -0.99959E-04 29120   0.125E-01    0.482E-02
DAV:  14    -0.167337705186E+03   -0.13804E-03   -0.13925E-04 35368   0.550E-02    0.243E-02
DAV:  15    -0.167337768018E+03   -0.62832E-04   -0.65687E-05 25712   0.356E-02    0.133E-02
DAV:  16    -0.167337775311E+03   -0.72930E-05   -0.77549E-06 21440   0.142E-02
   1 F= -.16733778E+03 E0= -.16733778E+03  d E =0.000000E+00  mag=    -0.0017
