       N       E                     dE             d eps       ncg     rms          rms(c)
DAV:   1     0.648114178632E+02    0.64811E+02   -0.57900E+03  4480   0.877E+02
DAV:   2    -0.739165258097E+01   -0.72203E+02   -0.66597E+02  5720   0.217E+02
DAV:   3    -0.183586599633E+02   -0.10967E+02   -0.10877E+02  8784   0.557E+01
DAV:   4    -0.185203192943E+02   -0.16166E+00   -0.16164E+00  4944   0.991E+00
DAV:   5    -0.185233898533E+02   -0.30706E-02   -0.30705E-02  6792   0.100E+00    0.141E+01
RMM:   6    -0.157317603689E+02    0.27916E+01   -0.56396E+00  5147   0.105E+01    0.688E+00
RMM:   7    -0.156588610451E+02    0.72899E-01   -0.49272E-01  5234   0.583E+00    0.234E+00
RMM:   8    -0.155572933403E+02    0.10157E+00   -0.15948E-01  6216   0.283E+00    0.136E+00
RMM:   9    -0.155747685052E+02   -0.17475E-01   -0.60454E-02  6243   0.191E+00    0.514E-01
RMM:  10    -0.155755821722E+02   -0.81367E-03   -0.18753E-02  7298   0.902E-01    0.243E-01
RMM:  11    -0.155763486410E+02   -0.76647E-03   -0.54624E-03  6788   0.456E-01    0.125E-01
RMM:  12    -0.155769937545E+02   -0.64511E-03   -0.26513E-03  6844   0.379E-01    0.448E-02
RMM:  13    -0.155771653259E+02   -0.17157E-03   -0.13737E-03  7397   0.188E-01    0.273E-02
RMM:  14    -0.155772320020E+02   -0.66676E-04   -0.47468E-04  7266   0.111E-01    0.100E-02
RMM:  15    -0.155772578568E+02   -0.25855E-04   -0.14584E-04  6515   0.685E-02    0.773E-03
RMM:  16    -0.155772640133E+02   -0.61565E-05   -0.56729E-05  6135   0.399E-02
   1 F= -.15577264E+02 E0= -.15577264E+02  d E =0.000000E+00  mag=     0.0000
