 running on   12 total cores
 distrk:  each k-point on   12 cores,    1 groups
 distr:  one band on    6 cores,    2 groups
 using from now: INCAR     
 vasp.6.1.2 22Jul20 (build Mar 20 2021 11:25:07) complex                        
  
 POSCAR found type information on POSCAR P N O 
 POSCAR found :  3 types and       6 ions
 scaLAPACK will be used
 -----------------------------------------------------------------------------
|                                                                             |
|               ----> ADVICE to this user running VASP <----                  |
|                                                                             |
|     You have a (more or less) 'small supercell' and for smaller cells       |
|     it is recommended to use the reciprocal-space projection scheme!        |
|     The real-space optimization is not efficient for small cells and it     |
|     is also less accurate ...                                               |
|     Therefore, set LREAL=.FALSE. in the INCAR file.                         |
|                                                                             |
 -----------------------------------------------------------------------------

 LDA part: xc-table for Pade appr. of Perdew
 generate k-points for:    8    8   10
 POSCAR, INCAR and KPOINTS ok, starting setup
 FFT: planning ...
 WAVECAR not read
 entering main loop
       N       E                     dE             d eps       ncg     rms          rms(c)
DAV:   1     0.185551726841E+03    0.18555E+03   -0.16441E+04 28512   0.131E+03
DAV:   2    -0.372366453942E+02   -0.22279E+03   -0.21517E+03 39348   0.298E+02
DAV:   3    -0.492475488339E+02   -0.12011E+02   -0.11947E+02 36246   0.754E+01
DAV:   4    -0.494047050297E+02   -0.15716E+00   -0.15691E+00 35562   0.950E+00
DAV:   5    -0.494081069268E+02   -0.34019E-02   -0.34006E-02 35898   0.134E+00    0.260E+01
RMM:   6    -0.435133124701E+02    0.58948E+01   -0.19981E+01 28832   0.252E+01    0.110E+01
RMM:   7    -0.437891355168E+02   -0.27582E+00   -0.45593E+00 32884   0.132E+01    0.479E+00
RMM:   8    -0.437858223193E+02    0.33132E-02   -0.47331E-01 33514   0.485E+00    0.285E+00
RMM:   9    -0.437835364929E+02    0.22858E-02   -0.11904E-01 33531   0.254E+00    0.758E-01
RMM:  10    -0.437854132616E+02   -0.18768E-02   -0.30500E-02 36751   0.109E+00    0.253E-01
RMM:  11    -0.437860308014E+02   -0.61754E-03   -0.13086E-02 35138   0.684E-01    0.213E-01
RMM:  12    -0.437860346708E+02   -0.38694E-05   -0.16572E-03 36116   0.289E-01    0.113E-01
RMM:  13    -0.437859975928E+02    0.37078E-04   -0.84603E-04 34844   0.200E-01    0.297E-02
RMM:  14    -0.437860084792E+02   -0.10886E-04   -0.12032E-04 36436   0.810E-02    0.222E-02
RMM:  15    -0.437860027536E+02    0.57256E-05   -0.29742E-05 27244   0.365E-02
   1 F= -.43786003E+02 E0= -.43786003E+02  d E =0.000000E+00  mag=    -0.0001
