   12   12    1    2
  0.9102269E+01  0.4903969E-09  0.5330402E-09  0.4748969E-09  0.5000000E-15
  1.000000000000000E-004
  CAR 
 unknown system                          
     56    100     40
 
  0.0000000E+00  0.0000000E+00  0.0000000E+00  0.2915452E-02
    1      -39.561203    -39.561003   1.000000   1.000000
    2      -39.549004    -39.548803   1.000000   1.000000
    3      -39.395322    -39.395120   1.000000   1.000000
    4      -39.381771    -39.381570   1.000000   1.000000
    5      -17.255569    -17.255600   1.000000   1.000000
    6      -16.625245    -16.625286   1.000000   1.000000
    7      -14.661822    -14.661866   1.000000   1.000000
    8      -14.637511    -14.637553   1.000000   1.000000
    9      -12.346677    -12.346705   1.000000   1.000000
   10      -10.829556    -10.829578   1.000000   1.000000
   11       -6.435630     -6.435652   1.000000   1.000000
   12       -3.393714     -3.393730   1.000000   1.000000
   13       -3.101689     -3.101702   1.000000   1.000000
   14       -2.666040     -2.666058   1.000000   1.000000
   15       -2.493290     -2.493307   1.000000   1.000000
   16       -1.398039     -1.398073   1.000000   1.000000
   17       -0.613906     -0.613919   1.000000   1.000000
   18       -0.594617     -0.594626   1.000000   1.000000
   19        0.300464      0.300447   1.000000   1.000000
   20        0.477795      0.477779   1.000000   1.000000
   21        0.801400      0.801383   1.000000   1.000000
   22        1.584861      1.584835   1.000000   1.000000
   23        1.589322      1.589290   1.000000   1.000000
   24        1.857402      1.857376   1.000000   1.000000
   25        1.942245      1.942216   1.000000   1.000000
   26        2.674886      2.674884   1.000000   1.000000
   27        2.749254      2.749244   1.000000   1.000000
   28        3.394164      3.394165   1.000000   1.000000
   29        9.538031      9.538055   0.000000   0.000000
   30       10.391727     10.391739   0.000000   0.000000
   31       10.937576     10.937574   0.000000   0.000000
   32       12.533969     12.533935   0.000000   0.000000
   33       12.694964     12.695793   0.000000   0.000000
   34       13.440838     13.441067   0.000000   0.000000
   35       13.447744     13.447228   0.000000   0.000000
   36       14.275047     14.273465   0.000000   0.000000
   37       14.389165     14.392998   0.000000   0.000000
   38       14.925262     14.900328   0.000000   0.000000
   39       15.145821     15.146537   0.000000   0.000000
   40       15.690947     15.749101   0.000000   0.000000
 
  0.1428571E+00  0.5866777E-17  0.0000000E+00  0.5830904E-02
    1      -39.560930    -39.560729   1.000000   1.000000
    2      -39.549066    -39.548865   1.000000   1.000000
    3      -39.395518    -39.395316   1.000000   1.000000
    4      -39.381762    -39.381560   1.000000   1.000000
    5      -17.232227    -17.232259   1.000000   1.000000
    6      -16.641683    -16.641724   1.000000   1.000000
    7      -14.681158    -14.681201   1.000000   1.000000
    8      -14.637120    -14.637162   1.000000   1.000000
    9      -12.354628    -12.354656   1.000000   1.000000
   10      -10.828570    -10.828593   1.000000   1.000000
   11       -6.438129     -6.438150   1.000000   1.000000
   12       -3.404249     -3.404264   1.000000   1.000000
   13       -3.085177     -3.085192   1.000000   1.000000
   14       -2.618480     -2.618497   1.000000   1.000000
   15       -2.441066     -2.441086   1.000000   1.000000
   16       -1.416896     -1.416928   1.000000   1.000000
   17       -0.717481     -0.717490   1.000000   1.000000
   18       -0.340088     -0.340103   1.000000   1.000000
   19        0.331667      0.331649   1.000000   1.000000
   20        0.529816      0.529799   1.000000   1.000000
   21        0.782894      0.782877   1.000000   1.000000
   22        1.464855      1.464829   1.000000   1.000000
   23        1.583260      1.583234   1.000000   1.000000
   24        1.711342      1.711318   1.000000   1.000000
   25        1.888974      1.888947   1.000000   1.000000
   26        2.652033      2.652025   1.000000   1.000000
   27        2.766439      2.766433   1.000000   1.000000
   28        3.392375      3.392376   1.000000   1.000000
   29        9.685812      9.685829   0.000000   0.000000
   30       10.459289     10.459296   0.000000   0.000000
   31       11.067547     11.067548   0.000000   0.000000
   32       12.342767     12.342767   0.000000   0.000000
   33       12.753255     12.753339   0.000000   0.000000
   34       13.201993     13.201988   0.000000   0.000000
   35       13.493040     13.492460   0.000000   0.000000
   36       14.031481     14.030966   0.000000   0.000000
   37       14.298302     14.297483   0.000000   0.000000
   38       14.839931     14.842620   0.000000   0.000000
   39       14.971663     14.970359   0.000000   0.000000
   40       15.175130     15.177789   0.000000   0.000000
 
  0.2857143E+00 -0.3194081E-16  0.0000000E+00  0.5830904E-02
    1      -39.560379    -39.560178   1.000000   1.000000
    2      -39.549144    -39.548943   1.000000   1.000000
    3      -39.395950    -39.395749   1.000000   1.000000
    4      -39.381729    -39.381527   1.000000   1.000000
    5      -17.172763    -17.172797   1.000000   1.000000
    6      -16.685701    -16.685741   1.000000   1.000000
    7      -14.717007    -14.717049   1.000000   1.000000
    8      -14.643936    -14.643979   1.000000   1.000000
    9      -12.371274    -12.371301   1.000000   1.000000
   10      -10.827471    -10.827493   1.000000   1.000000
   11       -6.441453     -6.441473   1.000000   1.000000
   12       -3.445016     -3.445029   1.000000   1.000000
   13       -3.011279     -3.011295   1.000000   1.000000
   14       -2.630973     -2.630994   1.000000   1.000000
   15       -2.191820     -2.191844   1.000000   1.000000
   16       -1.470598     -1.470627   1.000000   1.000000
   17       -0.604507     -0.604521   1.000000   1.000000
   18       -0.061024     -0.061042   1.000000   1.000000
   19        0.317925      0.317907   1.000000   1.000000
   20        0.676302      0.676281   1.000000   1.000000
   21        0.746583      0.746567   1.000000   1.000000
   22        1.084822      1.084807   1.000000   1.000000
   23        1.461078      1.461058   1.000000   1.000000
   24        1.595171      1.595149   1.000000   1.000000
   25        1.768178      1.768152   1.000000   1.000000
   26        2.518801      2.518796   1.000000   1.000000
   27        2.910333      2.910317   1.000000   1.000000
   28        3.388864      3.388863   1.000000   1.000000
   29        9.879468      9.879468   0.000000   0.000000
   30       10.712646     10.712658   0.000000   0.000000
   31       11.451572     11.451649   0.000000   0.000000
   32       12.237553     12.237551   0.000000   0.000000
   33       12.420684     12.420978   0.000000   0.000000
   34       12.703407     12.703322   0.000000   0.000000
   35       13.475630     13.474622   0.000000   0.000000
   36       13.562907     13.562864   0.000000   0.000000
   37       13.944814     13.944812   0.000000   0.000000
   38       14.654332     14.654710   0.000000   0.000000
   39       14.807412     14.807496   0.000000   0.000000
   40       15.377361     15.377952   0.000000   0.000000
 
  0.4285714E+00  0.2503270E-16  0.0000000E+00  0.5830904E-02
    1      -39.559895    -39.559695   1.000000   1.000000
    2      -39.549216    -39.549015   1.000000   1.000000
    3      -39.396269    -39.396068   1.000000   1.000000
    4      -39.381712    -39.381510   1.000000   1.000000
    5      -17.113569    -17.113604   1.000000   1.000000
    6      -16.732592    -16.732631   1.000000   1.000000
    7      -14.743545    -14.743585   1.000000   1.000000
    8      -14.651599    -14.651641   1.000000   1.000000
    9      -12.383351    -12.383378   1.000000   1.000000
   10      -10.827644    -10.827666   1.000000   1.000000
   11       -6.441454     -6.441474   1.000000   1.000000
   12       -3.492666     -3.492678   1.000000   1.000000
   13       -2.937823     -2.937838   1.000000   1.000000
   14       -2.648458     -2.648485   1.000000   1.000000
   15       -1.904682     -1.904710   1.000000   1.000000
   16       -1.536561     -1.536588   1.000000   1.000000
   17       -0.426932     -0.426949   1.000000   1.000000
   18        0.145287      0.145263   1.000000   1.000000
   19        0.279890      0.279876   1.000000   1.000000
   20        0.501210      0.501203   1.000000   1.000000
   21        0.702338      0.702324   1.000000   1.000000
   22        0.928179      0.928156   1.000000   1.000000
   23        1.445053      1.445040   1.000000   1.000000
   24        1.501610      1.501591   1.000000   1.000000
   25        1.672547      1.672519   1.000000   1.000000
   26        2.414932      2.414930   1.000000   1.000000
   27        3.040865      3.040841   1.000000   1.000000
   28        3.384006      3.384003   1.000000   1.000000
   29        9.856502      9.856480   0.000000   0.000000
   30       11.205499     11.205496   0.000000   0.000000
   31       11.808770     11.808788   0.000000   0.000000
   32       12.063257     12.063311   0.000000   0.000000
   33       12.220609     12.220552   0.000000   0.000000
   34       12.375483     12.375574   0.000000   0.000000
   35       13.147918     13.147421   0.000000   0.000000
   36       13.228466     13.228479   0.000000   0.000000
   37       13.467602     13.467652   0.000000   0.000000
   38       14.773326     14.773419   0.000000   0.000000
   39       15.034604     15.036120   0.000000   0.000000
   40       15.697011     15.697426   0.000000   0.000000
 
 -0.4299396E-18  0.1428571E+00  0.0000000E+00  0.5830904E-02
    1      -39.560873    -39.560672   1.000000   1.000000
    2      -39.549182    -39.548981   1.000000   1.000000
    3      -39.395433    -39.395231   1.000000   1.000000
    4      -39.381759    -39.381557   1.000000   1.000000
    5      -17.239731    -17.239763   1.000000   1.000000
    6      -16.640907    -16.640948   1.000000   1.000000
    7      -14.665904    -14.665947   1.000000   1.000000
    8      -14.640856    -14.640898   1.000000   1.000000
    9      -12.351460    -12.351488   1.000000   1.000000
   10      -10.828346    -10.828368   1.000000   1.000000
   11       -6.430031     -6.430053   1.000000   1.000000
   12       -3.406587     -3.406602   1.000000   1.000000
   13       -3.064088     -3.064102   1.000000   1.000000
   14       -2.591383     -2.591400   1.000000   1.000000
   15       -2.515579     -2.515598   1.000000   1.000000
   16       -1.411917     -1.411950   1.000000   1.000000
   17       -0.719874     -0.719884   1.000000   1.000000
   18       -0.388513     -0.388526   1.000000   1.000000
   19        0.337644      0.337626   1.000000   1.000000
   20        0.540048      0.540031   1.000000   1.000000
   21        0.804487      0.804471   1.000000   1.000000
   22        1.381232      1.381206   1.000000   1.000000
   23        1.539427      1.539403   1.000000   1.000000
   24        1.829508      1.829483   1.000000   1.000000
   25        1.917573      1.917544   1.000000   1.000000
   26        2.646131      2.646124   1.000000   1.000000
   27        2.754531      2.754524   1.000000   1.000000
   28        3.379787      3.379787   1.000000   1.000000
   29        9.750943      9.750962   0.000000   0.000000
   30       10.439465     10.439471   0.000000   0.000000
   31       11.034910     11.034910   0.000000   0.000000
   32       12.318758     12.318791   0.000000   0.000000
   33       12.710809     12.711007   0.000000   0.000000
   34       13.202564     13.202390   0.000000   0.000000
   35       13.496418     13.496385   0.000000   0.000000
   36       13.947000     13.947250   0.000000   0.000000
   37       14.376138     14.375791   0.000000   0.000000
   38       14.641960     14.636396   0.000000   0.000000
   39       15.123473     15.138463   0.000000   0.000000
   40       15.718831     15.769700   0.000000   0.000000
 
  0.1428571E+00  0.1428571E+00  0.0000000E+00  0.5830904E-02
    1      -39.560390    -39.560190   1.000000   1.000000
    2      -39.549345    -39.549144   1.000000   1.000000
    3      -39.395729    -39.395528   1.000000   1.000000
    4      -39.381699    -39.381497   1.000000   1.000000
    5      -17.199277    -17.199310   1.000000   1.000000
    6      -16.676456    -16.676496   1.000000   1.000000
    7      -14.697205    -14.697247   1.000000   1.000000
    8      -14.632077    -14.632120   1.000000   1.000000
    9      -12.358751    -12.358779   1.000000   1.000000
   10      -10.827945    -10.827968   1.000000   1.000000
   11       -6.422051     -6.422072   1.000000   1.000000
   12       -3.451280     -3.451294   1.000000   1.000000
   13       -3.021458     -3.021474   1.000000   1.000000
   14       -2.581247     -2.581267   1.000000   1.000000
   15       -2.411643     -2.411664   1.000000   1.000000
   16       -1.464646     -1.464675   1.000000   1.000000
   17       -0.671180     -0.671192   1.000000   1.000000
   18       -0.087644     -0.087664   1.000000   1.000000
   19        0.477183      0.477165   1.000000   1.000000
   20        0.515449      0.515429   1.000000   1.000000
   21        0.779732      0.779718   1.000000   1.000000
   22        1.213941      1.213919   1.000000   1.000000
   23        1.352777      1.352762   1.000000   1.000000
   24        1.775325      1.775301   1.000000   1.000000
   25        1.783883      1.783855   1.000000   1.000000
   26        2.541900      2.541895   1.000000   1.000000
   27        2.859889      2.859877   1.000000   1.000000
   28        3.384026      3.384024   1.000000   1.000000
   29        9.932604      9.932610   0.000000   0.000000
   30       10.564258     10.564269   0.000000   0.000000
   31       11.197899     11.197876   0.000000   0.000000
   32       12.251647     12.251649   0.000000   0.000000
   33       12.450185     12.450352   0.000000   0.000000
   34       12.940386     12.940529   0.000000   0.000000
   35       13.519234     13.519263   0.000000   0.000000
   36       13.793474     13.793503   0.000000   0.000000
   37       13.946829     13.946929   0.000000   0.000000
   38       14.435460     14.435327   0.000000   0.000000
   39       14.718775     14.717413   0.000000   0.000000
   40       15.719794     15.829881   0.000000   0.000000
 
  0.2857143E+00  0.1428571E+00  0.0000000E+00  0.5830904E-02
    1      -39.559903    -39.559703   1.000000   1.000000
    2      -39.549417    -39.549216   1.000000   1.000000
    3      -39.396128    -39.395927   1.000000   1.000000
    4      -39.381708    -39.381506   1.000000   1.000000
    5      -17.138776    -17.138810   1.000000   1.000000
    6      -16.720541    -16.720581   1.000000   1.000000
    7      -14.737762    -14.737802   1.000000   1.000000
    8      -14.633313    -14.633356   1.000000   1.000000
    9      -12.374820    -12.374847   1.000000   1.000000
   10      -10.827632    -10.827655   1.000000   1.000000
   11       -6.426664     -6.426684   1.000000   1.000000
   12       -3.490700     -3.490712   1.000000   1.000000
   13       -2.957035     -2.957051   1.000000   1.000000
   14       -2.587201     -2.587227   1.000000   1.000000
   15       -2.136507     -2.136530   1.000000   1.000000
   16       -1.507273     -1.507300   1.000000   1.000000
   17       -0.482447     -0.482464   1.000000   1.000000
   18        0.127867      0.127839   1.000000   1.000000
   19        0.274677      0.274663   1.000000   1.000000
   20        0.552388      0.552378   1.000000   1.000000
   21        0.822855      0.822839   1.000000   1.000000
   22        0.928535      0.928515   1.000000   1.000000
   23        1.303669      1.303656   1.000000   1.000000
   24        1.634453      1.634434   1.000000   1.000000
   25        1.726830      1.726800   1.000000   1.000000
   26        2.422029      2.422029   1.000000   1.000000
   27        2.994577      2.994556   1.000000   1.000000
   28        3.387150      3.387146   1.000000   1.000000
   29        9.959426      9.959438   0.000000   0.000000
   30       10.900213     10.900217   0.000000   0.000000
   31       11.497736     11.497700   0.000000   0.000000
   32       12.068012     12.068077   0.000000   0.000000
   33       12.457221     12.457218   0.000000   0.000000
   34       12.520979     12.520937   0.000000   0.000000
   35       13.106610     13.106597   0.000000   0.000000
   36       13.434088     13.434417   0.000000   0.000000
   37       13.754438     13.754350   0.000000   0.000000
   38       14.532160     14.531943   0.000000   0.000000
   39       14.706305     14.705978   0.000000   0.000000
   40       15.866146     15.922140   0.000000   0.000000
 
  0.4285714E+00  0.1428571E+00  0.0000000E+00  0.5830904E-02
    1      -39.559752    -39.559551   1.000000   1.000000
    2      -39.549356    -39.549155   1.000000   1.000000
    3      -39.396309    -39.396107   1.000000   1.000000
    4      -39.381762    -39.381560   1.000000   1.000000
    5      -17.107018    -17.107053   1.000000   1.000000
    6      -16.736659    -16.736698   1.000000   1.000000
    7      -14.761436    -14.761475   1.000000   1.000000
    8      -14.639110    -14.639152   1.000000   1.000000
    9      -12.387957    -12.387984   1.000000   1.000000
   10      -10.826955    -10.826977   1.000000   1.000000
   11       -6.441807     -6.441827   1.000000   1.000000
   12       -3.495837     -3.495848   1.000000   1.000000
   13       -2.893717     -2.893733   1.000000   1.000000
   14       -2.614225     -2.614256   1.000000   1.000000
   15       -1.876982     -1.877010   1.000000   1.000000
   16       -1.537219     -1.537245   1.000000   1.000000
   17       -0.386133     -0.386150   1.000000   1.000000
   18        0.013892      0.013877   1.000000   1.000000
   19        0.195108      0.195093   1.000000   1.000000
   20        0.530538      0.530528   1.000000   1.000000
   21        0.769680      0.769657   1.000000   1.000000
   22        0.922329      0.922312   1.000000   1.000000
   23        1.346827      1.346813   1.000000   1.000000
   24        1.547644      1.547626   1.000000   1.000000
   25        1.711838      1.711809   1.000000   1.000000
   26        2.391690      2.391690   1.000000   1.000000
   27        3.036278      3.036254   1.000000   1.000000
   28        3.389790      3.389786   1.000000   1.000000
   29        9.918263      9.918245   0.000000   0.000000
   30       11.147027     11.146992   0.000000   0.000000
   31       11.685514     11.685493   0.000000   0.000000
   32       11.879156     11.879148   0.000000   0.000000
   33       12.358611     12.358735   0.000000   0.000000
   34       12.642412     12.642400   0.000000   0.000000
   35       13.046127     13.045948   0.000000   0.000000
   36       13.079636     13.079668   0.000000   0.000000
   37       13.671156     13.671854   0.000000   0.000000
   38       14.646265     14.646450   0.000000   0.000000
   39       14.983530     14.988179   0.000000   0.000000
   40       15.818805     15.803732   0.000000   0.000000
 
 -0.4285714E+00  0.1428571E+00  0.0000000E+00  0.5830904E-02
    1      -39.560053    -39.559852   1.000000   1.000000
    2      -39.549145    -39.548944   1.000000   1.000000
    3      -39.396129    -39.395928   1.000000   1.000000
    4      -39.381773    -39.381571   1.000000   1.000000
    5      -17.138967    -17.139002   1.000000   1.000000
    6      -16.701420    -16.701460   1.000000   1.000000
    7      -14.754611    -14.754651   1.000000   1.000000
    8      -14.640670    -14.640713   1.000000   1.000000
    9      -12.389404    -12.389432   1.000000   1.000000
   10      -10.825657    -10.825679   1.000000   1.000000
   11       -6.457281     -6.457301   1.000000   1.000000
   12       -3.451798     -3.451809   1.000000   1.000000
   13       -2.899870     -2.899888   1.000000   1.000000
   14       -2.647798     -2.647824   1.000000   1.000000
   15       -1.906452     -1.906479   1.000000   1.000000
   16       -1.521704     -1.521730   1.000000   1.000000
   17       -0.485708     -0.485722   1.000000   1.000000
   18       -0.118690     -0.118702   1.000000   1.000000
   19        0.184562      0.184546   1.000000   1.000000
   20        0.652012      0.652000   1.000000   1.000000
   21        0.744156      0.744130   1.000000   1.000000
   22        0.993892      0.993875   1.000000   1.000000
   23        1.369999      1.369982   1.000000   1.000000
   24        1.598969      1.598951   1.000000   1.000000
   25        1.739982      1.739953   1.000000   1.000000
   26        2.460237      2.460233   1.000000   1.000000
   27        2.945077      2.945058   1.000000   1.000000
   28        3.386163      3.386161   1.000000   1.000000
   29        9.975715      9.975709   0.000000   0.000000
   30       10.968618     10.968664   0.000000   0.000000
   31       11.665423     11.665485   0.000000   0.000000
   32       11.874493     11.874542   0.000000   0.000000
   33       12.432827     12.432753   0.000000   0.000000
   34       12.616952     12.616946   0.000000   0.000000
   35       13.229912     13.229822   0.000000   0.000000
   36       13.566344     13.566000   0.000000   0.000000
   37       13.789613     13.789596   0.000000   0.000000
   38       14.685675     14.685374   0.000000   0.000000
   39       15.135815     15.139433   0.000000   0.000000
   40       15.514453     15.510688   0.000000   0.000000
 
 -0.2857143E+00  0.1428571E+00  0.0000000E+00  0.5830904E-02
    1      -39.560584    -39.560383   1.000000   1.000000
    2      -39.549054    -39.548853   1.000000   1.000000
    3      -39.395774    -39.395573   1.000000   1.000000
    4      -39.381812    -39.381611   1.000000   1.000000
    5      -17.198026    -17.198059   1.000000   1.000000
    6      -16.654250    -16.654290   1.000000   1.000000
    7      -14.722403    -14.722444   1.000000   1.000000
    8      -14.637180    -14.637223   1.000000   1.000000
    9      -12.377224    -12.377251   1.000000   1.000000
   10      -10.825787    -10.825809   1.000000   1.000000
   11       -6.459171     -6.459192   1.000000   1.000000
   12       -3.397492     -3.397505   1.000000   1.000000
   13       -3.007728     -3.007747   1.000000   1.000000
   14       -2.613570     -2.613588   1.000000   1.000000
   15       -2.176510     -2.176534   1.000000   1.000000
   16       -1.435251     -1.435280   1.000000   1.000000
   17       -0.627268     -0.627278   1.000000   1.000000
   18       -0.333389     -0.333400   1.000000   1.000000
   19        0.188510      0.188494   1.000000   1.000000
   20        0.619501      0.619481   1.000000   1.000000
   21        0.862542      0.862521   1.000000   1.000000
   22        1.168164      1.168146   1.000000   1.000000
   23        1.538198      1.538175   1.000000   1.000000
   24        1.651953      1.651927   1.000000   1.000000
   25        1.838697      1.838670   1.000000   1.000000
   26        2.583789      2.583782   1.000000   1.000000
   27        2.795339      2.795329   1.000000   1.000000
   28        3.376917      3.376918   1.000000   1.000000
   29        9.936711      9.936720   0.000000   0.000000
   30       10.656233     10.656244   0.000000   0.000000
   31       11.338428     11.338466   0.000000   0.000000
   32       12.060464     12.060464   0.000000   0.000000
   33       12.706183     12.706330   0.000000   0.000000
   34       13.007331     13.007350   0.000000   0.000000
   35       13.307045     13.307422   0.000000   0.000000
   36       13.953782     13.955684   0.000000   0.000000
   37       14.058427     14.061557   0.000000   0.000000
   38       14.937941     14.938386   0.000000   0.000000
   39       15.073113     15.073562   0.000000   0.000000
   40       15.302558     15.301468   0.000000   0.000000
 
 -0.1428571E+00  0.1428571E+00  0.0000000E+00  0.5830904E-02
    1      -39.560956    -39.560755   1.000000   1.000000
    2      -39.549057    -39.548856   1.000000   1.000000
    3      -39.395436    -39.395235   1.000000   1.000000
    4      -39.381819    -39.381617   1.000000   1.000000
    5      -17.238827    -17.238859   1.000000   1.000000
    6      -16.631374    -16.631416   1.000000   1.000000
    7      -14.683189    -14.683230   1.000000   1.000000
    8      -14.637049    -14.637092   1.000000   1.000000
    9      -12.359738    -12.359766   1.000000   1.000000
   10      -10.827471    -10.827494   1.000000   1.000000
   11       -6.446196     -6.446217   1.000000   1.000000
   12       -3.376335     -3.376350   1.000000   1.000000
   13       -3.080851     -3.080867   1.000000   1.000000
   14       -2.588239     -2.588255   1.000000   1.000000
   15       -2.421650     -2.421670   1.000000   1.000000
   16       -1.387900     -1.387934   1.000000   1.000000
   17       -0.619239     -0.619249   1.000000   1.000000
   18       -0.564844     -0.564853   1.000000   1.000000
   19        0.213479      0.213463   1.000000   1.000000
   20        0.540485      0.540468   1.000000   1.000000
   21        0.871402      0.871383   1.000000   1.000000
   22        1.371669      1.371642   1.000000   1.000000
   23        1.613213      1.613187   1.000000   1.000000
   24        1.789845      1.789820   1.000000   1.000000
   25        1.923400      1.923371   1.000000   1.000000
   26        2.687184      2.687179   1.000000   1.000000
   27        2.703180      2.703171   1.000000   1.000000
   28        3.374830      3.374832   1.000000   1.000000
   29        9.746317      9.746337   0.000000   0.000000
   30       10.488944     10.488950   0.000000   0.000000
   31       11.074535     11.074500   0.000000   0.000000
   32       12.354737     12.354727   0.000000   0.000000
   33       12.785613     12.785793   0.000000   0.000000
   34       13.164734     13.164525   0.000000   0.000000
   35       13.376585     13.376705   0.000000   0.000000
   36       14.105910     14.105052   0.000000   0.000000
   37       14.358960     14.360197   0.000000   0.000000
   38       14.829712     14.829262   0.000000   0.000000
   39       15.399856     15.400238   0.000000   0.000000
   40       15.656451     15.669708   0.000000   0.000000
 
  0.4376266E-17  0.2857143E+00  0.0000000E+00  0.5830904E-02
    1      -39.560145    -39.559944   1.000000   1.000000
    2      -39.549628    -39.549427   1.000000   1.000000
    3      -39.395681    -39.395479   1.000000   1.000000
    4      -39.381754    -39.381553   1.000000   1.000000
    5      -17.200370    -17.200403   1.000000   1.000000
    6      -16.680029    -16.680069   1.000000   1.000000
    7      -14.675614    -14.675656   1.000000   1.000000
    8      -14.648082    -14.648124   1.000000   1.000000
    9      -12.361454    -12.361481   1.000000   1.000000
   10      -10.826606    -10.826629   1.000000   1.000000
   11       -6.415403     -6.415424   1.000000   1.000000
   12       -3.447222     -3.447236   1.000000   1.000000
   13       -2.967432     -2.967449   1.000000   1.000000
   14       -2.614814     -2.614833   1.000000   1.000000
   15       -2.351495     -2.351516   1.000000   1.000000
   16       -1.460154     -1.460185   1.000000   1.000000
   17       -0.647423     -0.647437   1.000000   1.000000
   18       -0.181323     -0.181340   1.000000   1.000000
   19        0.357844      0.357827   1.000000   1.000000
   20        0.641907      0.641887   1.000000   1.000000
   21        0.839532      0.839518   1.000000   1.000000
   22        1.086526      1.086506   1.000000   1.000000
   23        1.339430      1.339411   1.000000   1.000000
   24        1.734371      1.734349   1.000000   1.000000
   25        1.852564      1.852537   1.000000   1.000000
   26        2.513842      2.513837   1.000000   1.000000
   27        2.837218      2.837205   1.000000   1.000000
   28        3.341847      3.341847   1.000000   1.000000
   29       10.211887     10.211901   0.000000   0.000000
   30       10.577641     10.577650   0.000000   0.000000
   31       11.271823     11.271866   0.000000   0.000000
   32       12.030395     12.030412   0.000000   0.000000
   33       12.471689     12.472058   0.000000   0.000000
   34       12.749462     12.749479   0.000000   0.000000
   35       13.363846     13.363899   0.000000   0.000000
   36       13.795130     13.795225   0.000000   0.000000
   37       14.037995     14.038165   0.000000   0.000000
   38       14.637885     14.637780   0.000000   0.000000
   39       14.883774     14.894800   0.000000   0.000000
   40       16.098770     16.134500   0.000000   0.000000
 
  0.1428571E+00  0.2857143E+00  0.0000000E+00  0.5830904E-02
    1      -39.559741    -39.559540   1.000000   1.000000
    2      -39.549801    -39.549600   1.000000   1.000000
    3      -39.395976    -39.395774   1.000000   1.000000
    4      -39.381732    -39.381530   1.000000   1.000000
    5      -17.160250    -17.160283   1.000000   1.000000
    6      -16.714353    -16.714392   1.000000   1.000000
    7      -14.715676    -14.715717   1.000000   1.000000
    8      -14.629639    -14.629682   1.000000   1.000000
    9      -12.368299    -12.368327   1.000000   1.000000
   10      -10.826981    -10.827003   1.000000   1.000000
   11       -6.408676     -6.408696   1.000000   1.000000
   12       -3.491099     -3.491111   1.000000   1.000000
   13       -2.926433     -2.926450   1.000000   1.000000
   14       -2.600680     -2.600704   1.000000   1.000000
   15       -2.226189     -2.226211   1.000000   1.000000
   16       -1.513940     -1.513967   1.000000   1.000000
   17       -0.498217     -0.498235   1.000000   1.000000
   18        0.007178      0.007151   1.000000   1.000000
   19        0.395734      0.395719   1.000000   1.000000