 running on    8 total cores
 distrk:  each k-point on    8 cores,    1 groups
 distr:  one band on    4 cores,    2 groups
 using from now: INCAR     
 vasp.6.1.2 22Jul20 (build Mar 20 2021 11:25:07) complex                        
  
 POSCAR found type information on POSCAR LiP 
 POSCAR found :  2 types and      40 ions
 scaLAPACK will be used
 LDA part: xc-table for Pade appr. of Perdew
 generate k-points for:    4    3    3
 POSCAR, INCAR and KPOINTS ok, starting setup
 FFT: planning ...
 WAVECAR not read
 entering main loop
       N       E                     dE             d eps       ncg     rms          rms(c)
DAV:   1     0.106293971249E+04    0.10629E+04   -0.68745E+04  6832   0.133E+03
DAV:   2    -0.286844262694E+02   -0.10916E+04   -0.10075E+04  7992   0.288E+02
DAV:   3    -0.166032884982E+03   -0.13735E+03   -0.13557E+03  9250   0.969E+01
DAV:   4    -0.181829723870E+03   -0.15797E+02   -0.15696E+02 12264   0.289E+01
DAV:   5    -0.184930369137E+03   -0.31006E+01   -0.30990E+01 11320   0.850E+00    0.340E+01
DAV:   6    -0.185198199098E+03   -0.26783E+00   -0.94533E+00  8952   0.713E+00    0.187E+01
DAV:   7    -0.187370742558E+03   -0.21725E+01   -0.32581E+00  8680   0.434E+00    0.112E+01
DAV:   8    -0.188243786446E+03   -0.87304E+00   -0.14293E+00  8024   0.312E+00    0.250E+00
DAV:   9    -0.188321709113E+03   -0.77923E-01   -0.20930E-01  9576   0.134E+00    0.115E+00
DAV:  10    -0.188335188834E+03   -0.13480E-01   -0.39927E-02  8984   0.517E-01    0.429E-01
DAV:  11    -0.188339171283E+03   -0.39824E-02   -0.60728E-03  8272   0.247E-01    0.212E-01
DAV:  12    -0.188341169605E+03   -0.19983E-02   -0.23016E-03  9216   0.134E-01    0.105E-01
DAV:  13    -0.188342109231E+03   -0.93963E-03   -0.69476E-04  8480   0.691E-02    0.440E-02
DAV:  14    -0.188342423877E+03   -0.31465E-03   -0.27904E-04  8096   0.420E-02    0.246E-02
DAV:  15    -0.188342517772E+03   -0.93896E-04   -0.10219E-04  7192   0.258E-02    0.123E-02
DAV:  16    -0.188342537405E+03   -0.19632E-04   -0.21207E-05  6800   0.131E-02    0.582E-03
DAV:  17    -0.188342541893E+03   -0.44888E-05   -0.52365E-06  5240   0.730E-03
   1 F= -.18834254E+03 E0= -.18834254E+03  d E =0.000000E+00  mag=    -0.0002
