 running on   48 total cores
 distrk:  each k-point on   48 cores,    1 groups
 distr:  one band on    6 cores,    8 groups
 using from now: INCAR     
 vasp.6.1.2 22Jul20 (build Mar 31 2021 18:09:49) complex                        
  
 POSCAR found type information on POSCAR LiP 
 POSCAR found :  2 types and      64 ions
 scaLAPACK will be used
 LDA part: xc-table for Pade appr. of Perdew
 -----------------------------------------------------------------------------
|                                                                             |
|           W    W    AA    RRRRR   N    N  II  N    N   GGGG   !!!           |
|           W    W   A  A   R    R  NN   N  II  NN   N  G    G  !!!           |
|           W    W  A    A  R    R  N N  N  II  N N  N  G       !!!           |
|           W WW W  AAAAAA  RRRRR   N  N N  II  N  N N  G  GGG   !            |
|           WW  WW  A    A  R   R   N   NN  II  N   NN  G    G                |
|           W    W  A    A  R    R  N    N  II  N    N   GGGG   !!!           |
|                                                                             |
|     The determination of the symmetry of your systems shows a strong        |
|     dependence on the tolerance parameter SYMPREC. This is often the        |
|     result of "noise" in the structural parameters (lattice vectors         |
|     and/or ionic positions). Set NWRITE=3 for more details.                 |
|                                                                             |
 -----------------------------------------------------------------------------

 generate k-points for:    3    3    3
 POSCAR, INCAR and KPOINTS ok, starting setup
 FFT: planning ...
 WAVECAR not read
 entering main loop
       N       E                     dE             d eps       ncg     rms          rms(c)
DAV:   1     0.157167613043E+04    0.15717E+04   -0.12008E+05  8416   0.128E+03
DAV:   2    -0.115865265397E+03   -0.16875E+04   -0.15822E+04  9928   0.246E+02
DAV:   3    -0.300584681115E+03   -0.18472E+03   -0.18124E+03 10632   0.840E+01
DAV:   4    -0.314937251337E+03   -0.14353E+02   -0.14272E+02 13752   0.204E+01
DAV:   5    -0.318004168163E+03   -0.30669E+01   -0.30643E+01 14728   0.575E+00    0.423E+01
DAV:   6    -0.316978235822E+03    0.10259E+01   -0.12412E+01  9936   0.645E+00    0.243E+01
DAV:   7    -0.318969099107E+03   -0.19909E+01   -0.57376E+00  9888   0.432E+00    0.139E+01
DAV:   8    -0.320883167470E+03   -0.19141E+01   -0.30563E+00  9520   0.320E+00    0.294E+00
DAV:   9    -0.320970193778E+03   -0.87026E-01   -0.34639E-01 10640   0.121E+00    0.163E+00
DAV:  10    -0.320987076368E+03   -0.16883E-01   -0.77726E-02 10824   0.545E-01    0.667E-01
DAV:  11    -0.320992868133E+03   -0.57918E-02   -0.12501E-02 10000   0.268E-01    0.260E-01
DAV:  12    -0.320995102796E+03   -0.22347E-02   -0.31518E-03 10952   0.125E-01    0.135E-01
DAV:  13    -0.320996233986E+03   -0.11312E-02   -0.82231E-04 10688   0.622E-02    0.590E-02
DAV:  14    -0.320996776867E+03   -0.54288E-03   -0.38487E-04 10016   0.373E-02    0.361E-02
DAV:  15    -0.320996930686E+03   -0.15382E-03   -0.13535E-04  9624   0.211E-02    0.205E-02
DAV:  16    -0.320996979303E+03   -0.48618E-04   -0.41987E-05  8448   0.128E-02    0.956E-03
DAV:  17    -0.320996991819E+03   -0.12516E-04   -0.14744E-05  7328   0.815E-03    0.478E-03
DAV:  18    -0.320996993615E+03   -0.17955E-05   -0.27245E-06  5976   0.377E-03
   1 F= -.32099699E+03 E0= -.32099699E+03  d E =0.000000E+00  mag=     0.0000
