    3    3    1    2
  0.8595137E+01  0.3360184E-09  0.3294299E-09  0.3294299E-09  0.5000000E-15
  1.000000000000000E-004
  CAR 
 unknown system                          
     12    476     12
 
  0.0000000E+00  0.0000000E+00  0.0000000E+00  0.5787037E-03
    1      -41.982283    -41.979751   1.000000   1.000000
    2      -41.696898    -41.694307   1.000000   1.000000
    3      -14.264160    -14.264649   1.000000   1.000000
    4        1.076696      1.076120   1.000000   1.000000
    5        1.122793      1.122232   1.000000   1.000000
    6        1.135463      1.134895   1.000000   1.000000
    7        6.053882      6.053953   0.000000   0.000000
    8       12.520164     12.520530   0.000000   0.000000
    9       12.824571     12.825126   0.000000   0.000000
   10       13.016753     13.017125   0.000000   0.000000
   11       19.469571     19.468406   0.000000   0.000000
   12       19.595529     19.583865   0.000000   0.000000
 
  0.8333333E-01 -0.8153870E-18 -0.2745547E-14  0.1157407E-02
    1      -41.976732    -41.974199   1.000000   1.000000
    2      -41.701001    -41.698411   1.000000   1.000000
    3      -14.251382    -14.251876   1.000000   1.000000
    4        0.844612      0.844072   1.000000   1.000000
    5        1.092535      1.091978   1.000000   1.000000
    6        1.103374      1.102821   1.000000   1.000000
    7        6.257175      6.257202   0.000000   0.000000
    8       12.536357     12.536701   0.000000   0.000000
    9       12.924370     12.924918   0.000000   0.000000
   10       13.107063     13.107423   0.000000   0.000000
   11       18.846116     18.846099   0.000000   0.000000
   12       18.988066     18.988673   0.000000   0.000000
 
  0.1666667E+00 -0.3618059E-17  0.1685709E-14  0.1157407E-02
    1      -41.960664    -41.958128   1.000000   1.000000
    2      -41.713480    -41.710893   1.000000   1.000000
    3      -14.216103    -14.216608   1.000000   1.000000
    4        0.267943      0.267496   1.000000   1.000000
    5        1.012103      1.011558   1.000000   1.000000
    6        1.029557      1.029019   1.000000   1.000000
    7        6.779801      6.779750   0.000000   0.000000
    8       12.517353     12.517659   0.000000   0.000000
    9       13.157409     13.157924   0.000000   0.000000
   10       13.301842     13.302157   0.000000   0.000000
   11       17.952892     17.952746   0.000000   0.000000
   12       18.050620     18.050937   0.000000   0.000000
 
  0.2500000E+00  0.7158524E-17 -0.1057553E-14  0.1157407E-02
    1      -41.935488    -41.932947   1.000000   1.000000
    2      -41.733845    -41.731262   1.000000   1.000000
    3      -14.166210    -14.166733   1.000000   1.000000
    4       -0.412446     -0.412807   1.000000   1.000000
    5        0.907171      0.906641   1.000000   1.000000
    6        0.934252      0.933730   1.000000   1.000000
    7        7.493677      7.493556   0.000000   0.000000
    8       12.322454     12.322701   0.000000   0.000000
    9       13.337233     13.337671   0.000000   0.000000
   10       13.404950     13.405173   0.000000   0.000000
   11       17.588404     17.588560   0.000000   0.000000
   12       17.593312     17.593243   0.000000   0.000000
 
  0.3333333E+00 -0.5248834E-17 -0.3819264E-14  0.1157407E-02
    1      -41.903531    -41.900982   1.000000   1.000000
    2      -41.761014    -41.758436   1.000000   1.000000
    3      -14.114014    -14.114555   1.000000   1.000000
    4       -1.013020     -1.013320   1.000000   1.000000
    5        0.807419      0.806903   1.000000   1.000000
    6        0.843931      0.843423   1.000000   1.000000
    7        8.326676      8.326511   0.000000   0.000000
    8       11.858428     11.858609   0.000000   0.000000
    9       13.305400     13.305524   0.000000   0.000000
   10       13.315944     13.316288   0.000000   0.000000
   11       17.721466     17.721673   0.000000   0.000000
   12       17.827358     17.827400   0.000000   0.000000
 
  0.4166667E+00 -0.5765689E-17  0.5958284E-15  0.1157407E-02
    1      -41.867380    -41.864824   1.000000   1.000000
    2      -41.793644    -41.791073   1.000000   1.000000
    3      -14.074267    -14.074822   1.000000   1.000000
    4       -1.417062     -1.417324   1.000000   1.000000
    5        0.737392      0.736885   1.000000   1.000000
    6        0.780660      0.780162   1.000000   1.000000
    7        9.229217      9.228997   0.000000   0.000000
    8       11.148665     11.148817   0.000000   0.000000
    9       13.138164     13.138230   0.000000   0.000000
   10       13.189462     13.189747   0.000000   0.000000
   11       18.150217     18.150483   0.000000   0.000000
   12       18.308873     18.308954   0.000000   0.000000
 
  0.5000000E+00  0.1431705E-16 -0.2115106E-14  0.5787037E-03
    1      -41.830670    -41.828106   1.000000   1.000000
    2      -41.829127    -41.826563   1.000000   1.000000
    3      -14.059473    -14.060035   1.000000   1.000000
    4       -1.558963     -1.559212   1.000000   1.000000
    5        0.712353      0.711849   1.000000   1.000000
    6        0.758066      0.757571   1.000000   1.000000
    7        9.945786      9.944853   0.000000   0.000000
    8       10.488348     10.488775   0.000000   0.000000
    9       13.064389     13.064437   0.000000   0.000000
   10       13.126542     13.126807   0.000000   0.000000
   11       18.379730     18.380092   0.000000   0.000000
   12       18.551507     18.551615   0.000000   0.000000
 
  0.9633527E-17  0.8333333E-01 -0.4721691E-14  0.2314815E-02
    1      -41.976703    -41.974170   1.000000   1.000000
    2      -41.700944    -41.698354   1.000000   1.000000
    3      -14.250504    -14.250999   1.000000   1.000000
    4        0.891156      0.890632   1.000000   1.000000
    5        1.046168      1.045603   1.000000   1.000000
    6        1.098704      1.098143   1.000000   1.000000
    7        6.246894      6.246925   0.000000   0.000000
    8       12.613092     12.613436   0.000000   0.000000
    9       12.887771     12.888305   0.000000   0.000000
   10       13.057003     13.057372   0.000000   0.000000
   11       18.687321     18.687169   0.000000   0.000000
   12       18.965003     18.965021   0.000000   0.000000
 
  0.8333333E-01  0.8333333E-01  0.3211077E-14  0.2314815E-02
    1      -41.975152    -41.972619   1.000000   1.000000
    2      -41.702075    -41.699486   1.000000   1.000000
    3      -14.246800    -14.247295   1.000000   1.000000
    4        0.906448      0.905926   1.000000   1.000000
    5        1.003232      1.002674   1.000000   1.000000
    6        1.036366      1.035813   1.000000   1.000000
    7        6.297593      6.297613   0.000000   0.000000
    8       12.626372     12.626690   0.000000   0.000000
    9       12.894116     12.894645   0.000000   0.000000
   10       13.143253     13.143645   0.000000   0.000000
   11       17.665388     17.665382   0.000000   0.000000
   12       19.993725     19.982998   0.000000   0.000000
 
  0.1666667E+00  0.8333333E-01 -0.3018676E-14  0.2314815E-02
    1      -41.963061    -41.960526   1.000000   1.000000
    2      -41.711265    -41.708677   1.000000   1.000000
    3      -14.219589    -14.220094   1.000000   1.000000
    4        0.456734      0.456267   1.000000   1.000000
    5        0.925911      0.925382   1.000000   1.000000
    6        0.989888      0.989348   1.000000   1.000000
    7        6.673303      6.673254   0.000000   0.000000
    8       12.633068     12.633345   0.000000   0.000000
    9       13.032690     13.033152   0.000000   0.000000
   10       13.427674     13.428103   0.000000   0.000000
   11       16.697821     16.698013   0.000000   0.000000
   12       19.797584     19.792879   0.000000   0.000000
 
  0.2500000E+00  0.8333333E-01 -0.5786183E-14  0.2314815E-02
    1      -41.941555    -41.939015   1.000000   1.000000
    2      -41.728387    -41.725803   1.000000   1.000000
    3      -14.175044    -14.175564   1.000000   1.000000
    4       -0.180231     -0.180618   1.000000   1.000000
    5        0.812015      0.811503   1.000000   1.000000
    6        0.923600      0.923077   1.000000   1.000000
    7        7.267685      7.267561   0.000000   0.000000
    8       12.476529     12.476755   0.000000   0.000000
    9       13.189865     13.190234   0.000000   0.000000
   10       13.725168     13.725647   0.000000   0.000000
   11       16.234811     16.235049   0.000000   0.000000
   12       19.212810     19.212917   0.000000   0.000000
 
  0.3333333E+00  0.8333333E-01  0.2145208E-14  0.2314815E-02
    1      -41.912613    -41.910066   1.000000   1.000000
    2      -41.752497    -41.749918   1.000000   1.000000
    3      -14.123641    -14.124180   1.000000   1.000000
    4       -0.799283     -0.799604   1.000000   1.000000
    5        0.719136      0.718638   1.000000   1.000000
    6        0.824000      0.823496   1.000000   1.000000
    7        8.001694      8.001509   0.000000   0.000000
    8       12.053168     12.053348   0.000000   0.000000
    9       13.247153     13.247426   0.000000   0.000000
   10       13.748834     13.749274   0.000000   0.000000
   11       16.519379     16.519519   0.000000   0.000000
   12       18.984359     18.984535   0.000000   0.000000
 
  0.4166667E+00  0.8333333E-01 -0.4116638E-14  0.2314815E-02
    1      -41.878705    -41.876152   1.000000   1.000000
    2      -41.782406    -41.779832   1.000000   1.000000
    3      -14.079300    -14.079854   1.000000   1.000000
    4       -1.264859     -1.265136   1.000000   1.000000
    5        0.666991      0.666500   1.000000   1.000000
    6        0.722789      0.722302   1.000000   1.000000
    7        8.818277      8.818032   0.000000   0.000000
    8       11.412720     11.412890   0.000000   0.000000
    9       13.215896     13.216096   0.000000   0.000000
   10       13.552491     13.552698   0.000000   0.000000
   11       17.311286     17.311564   0.000000   0.000000
   12       18.932369     18.932585   0.000000   0.000000
 
  0.5000000E+00  0.8333333E-01  0.3835488E-14  0.2314815E-02
    1      -41.842499    -41.839938   1.000000   1.000000
    2      -41.816512    -41.813945   1.000000   1.000000
    3      -14.055412    -14.055974   1.000000   1.000000
    4       -1.494607     -1.494863   1.000000   1.000000
    5        0.626888      0.626405   1.000000   1.000000
    6        0.685722      0.685238   1.000000   1.000000
    7        9.577882      9.577422   0.000000   0.000000
    8       10.724918     10.725225   0.000000   0.000000
    9       13.209306     13.209457   0.000000   0.000000
   10       13.372695     13.372824   0.000000   0.000000
   11       18.155477     18.155810   0.000000   0.000000
   12       18.642137     18.642396   0.000000   0.000000
 
 -0.4166667E+00  0.8333333E-01  0.3945106E-14  0.2314815E-02
    1      -41.852738    -41.850179   1.000000   1.000000
    2      -41.806637    -41.804068   1.000000   1.000000
    3      -14.059719    -14.060280   1.000000   1.000000
    4       -1.452016     -1.452275   1.000000   1.000000
    5        0.591407      0.590929   1.000000   1.000000
    6        0.737902      0.737409   1.000000   1.000000
    7        9.433917      9.433543   0.000000   0.000000
    8       10.845793     10.846058   0.000000   0.000000
    9       13.287669     13.287747   0.000000   0.000000
   10       13.346502     13.346747   0.000000   0.000000
   11       17.889398     17.889693   0.000000   0.000000
   12       18.736325     18.736694   0.000000   0.000000
 
 -0.3333333E+00  0.8333333E-01 -0.2326046E-14  0.2314815E-02
    1      -41.888638    -41.886086   1.000000   1.000000
    2      -41.773587    -41.771011   1.000000   1.000000
    3      -14.090918    -14.091469   1.000000   1.000000
    4       -1.144503     -1.144789   1.000000   1.000000
    5        0.605639      0.605157   1.000000   1.000000
    6        0.831510      0.831003   1.000000   1.000000
    7        8.623373      8.623133   0.000000   0.000000
    8       11.537528     11.537714   0.000000   0.000000
    9       13.300931     13.301295   0.000000   0.000000
   10       13.593180     13.593421   0.000000   0.000000
   11       16.960825     16.961066   0.000000   0.000000
   12       18.912190     18.912782   0.000000   0.000000
 
 -0.2500000E+00  0.8333333E-01  0.5556854E-14  0.2314815E-02
    1      -41.921464    -41.918919   1.000000   1.000000
    2      -41.745156    -41.742575   1.000000   1.000000
    3      -14.138859    -14.139391   1.000000   1.000000
    4       -0.623969     -0.624307   1.000000   1.000000
    5        0.671863      0.671371   1.000000   1.000000
    6        0.941757      0.941234   1.000000   1.000000
    7        7.811789      7.811612   0.000000   0.000000
    8       12.124805     12.125018   0.000000   0.000000
    9       13.261605     13.261899   0.000000   0.000000
   10       13.814974     13.815339   0.000000   0.000000
   11       16.324993     16.325121   0.000000   0.000000
   12       18.897657     18.898080   0.000000   0.000000
 
 -0.1666667E+00  0.8333333E-01  0.2813592E-14  0.2314815E-02
    1      -41.948522    -41.945984   1.000000   1.000000
    2      -41.722922    -41.720336   1.000000   1.000000
    3      -14.189547    -14.190062   1.000000   1.000000
    4        0.008159      0.007750   1.000000   1.000000
    5        0.779488      0.778978   1.000000   1.000000
    6        1.040094      1.039555   1.000000   1.000000
    7        7.098977      7.098869   0.000000   0.000000
    8       12.493745     12.494020   0.000000   0.000000
    9       13.126238     13.126563   0.000000   0.000000
   10       13.643966     13.644444   0.000000   0.000000
   11       16.541690     16.541691   0.000000   0.000000
   12       18.931210     18.931282   0.000000   0.000000
 
 -0.8333333E-01  0.8333333E-01 -0.3388170E-14  0.2314815E-02
    1      -41.967547    -41.965012   1.000000   1.000000
    2      -41.707958    -41.705370   1.000000   1.000000
    3      -14.229916    -14.230417   1.000000   1.000000
    4        0.585237      0.584750   1.000000   1.000000
    5        0.913837      0.913302   1.000000   1.000000
    6        1.097999      1.097447   1.000000   1.000000
    7        6.545588      6.545560   0.000000   0.000000
    8       12.620083     12.620417   0.000000   0.000000
    9       12.975233     12.975612   0.000000   0.000000
   10       13.260283     13.260746   0.000000   0.000000
   11       17.529471     17.529459   0.000000   0.000000
   12       19.056368     19.056304   0.000000   0.000000
 
  0.1628740E-17  0.1666667E+00  0.4784630E-14  0.2314815E-02
    1      -41.960280    -41.957744   1.000000   1.000000
    2      -41.713274    -41.710687   1.000000   1.000000
    3      -14.212145    -14.212650   1.000000   1.000000
    4        0.315999      0.315568   1.000000   1.000000
    5        0.959754      0.959204   1.000000   1.000000
    6        1.011559      1.011012   1.000000   1.000000
    7        6.753965      6.753919   0.000000   0.000000
    8       12.746856     12.747074   0.000000   0.000000
    9       12.961892     12.962332   0.000000   0.000000
   10       13.219658     13.220046   0.000000   0.000000
   11       17.719095     17.718975   0.000000   0.000000
   12       18.012903     18.012882   0.000000   0.000000
 
  0.8333333E-01  0.1666667E+00  0.2039082E-14  0.2314815E-02
    1      -41.962773    -41.960237   1.000000   1.000000
    2      -41.711121    -41.708533   1.000000   1.000000
    3      -14.216678    -14.217183   1.000000   1.000000
    4        0.493344      0.492897   1.000000   1.000000
    5        0.909471      0.908949   1.000000   1.000000
    6        0.957341      0.956773   1.000000   1.000000
    7        6.649652      6.649609   0.000000   0.000000
    8       12.760318     12.760563   0.000000   0.000000
    9       13.022356     13.022842   0.000000   0.000000
   10       13.272825     13.273252   0.000000   0.000000
   11       16.589253     16.589448   0.000000   0.000000
   12       19.685663     19.685712   0.000000   0.000000
 
  0.1666667E+00  0.1666667E+00 -0.4173941E-14  0.2314815E-02
    1      -41.955449    -41.952912   1.000000   1.000000
    2      -41.716489    -41.713902   1.000000   1.000000
    3      -14.199166    -14.199677   1.000000   1.000000
    4        0.488598      0.488170   1.000000   1.000000
    5        0.736462      0.735929   1.000000   1.000000
    6        0.779065      0.778553   1.000000   1.000000
    7        6.770625      6.770530   0.000000   0.000000
    8       12.876644     12.876830   0.000000   0.000000
    9       13.105923     13.106329   0.000000   0.000000
   10       13.593997     13.594531   0.000000   0.000000
   11       15.626243     15.626288   0.000000   0.000000
   12       21.203187     21.205601   0.000000   0.000000
 
  0.2500000E+00  0.1666667E+00  0.3725934E-14  0.2314815E-02
    1      -41.939070    -41.936530   1.000000   1.000000
    2      -41.729194    -41.726609   1.000000   1.000000
    3      -14.163483    -14.164007   1.000000   1.000000
    4        0.028926      0.028531   1.000000   1.000000
    5        0.634469      0.633980   1.000000   1.000000
    6        0.694277      0.693784   1.000000   1.000000
    7        7.082348      7.082181   0.000000   0.000000
    8       12.841084     12.841248   0.000000   0.000000
    9       13.256895     13.257210   0.000000   0.000000
   10       14.043222     14.043809   0.000000   0.000000
   11       15.145519     15.145586   0.000000   0.000000
   12       21.159489     21.159943   0.000000   0.000000
 
  0.3333333E+00  0.1666667E+00  0.9838153E-15  0.2314815E-02
    1      -41.915216    -41.912670   1.000000   1.000000
    2      -41.748638    -41.746057   1.000000   1.000000
    3      -14.117910    -14.118452   1.000000   1.000000
    4       -0.536471     -0.536811   1.000000   1.000000
    5        0.527316      0.526841   1.000000   1.000000
    6        0.631132      0.630664   1.000000   1.000000
    7        7.556815      7.556579   0.000000   0.000000
    8       12.482102     12.482254   0.000000   0.000000
    9       13.375491     13.375719   0.000000   0.000000
   10       14.240405     14.240830   0.000000   0.000000
   11       15.501315     15.501573   0.000000   0.000000
   12       20.600385     20.600212   0.000000   0.000000
 
  0.4166667E+00  0.1666667E+00 -0.5220233E-14  0.2314815E-02
    1      -41.885909    -41.883357   1.000000   1.000000
    2      -41.773888    -41.771312   1.000000   1.000000
    3      -14.074142    -14.074699   1.000000   1.000000
    4       -1.014902     -1.015200   1.000000   1.000000
    5        0.475302      0.474836   1.000000   1.000000
    6        0.525318      0.524873   1.000000   1.000000
    7        8.158651      8.158350   0.000000   0.000000
    8       11.916757     11.916913   0.000000   0.000000
    9       13.429766     13.429929   0.000000   0.000000
   10       14.137508     14.137776   0.000000   0.000000
   11       16.419482     16.419892   0.000000   0.000000
   12       20.070518     20.070747   0.000000   0.000000
 
  0.5000000E+00  0.1666667E+00  0.2674096E-14  0.2314815E-02
    1      -41.853578    -41.851019   1.000000   1.000000
    2      -41.803605    -41.801035   1.000000   1.000000
    3      -14.044938    -14.045506   1.000000   1.000000
    4       -1.307458     -1.307733   1.000000   1.000000
    5        0.397034      0.396606   1.000000   1.000000
    6        0.503182      0.502717   1.000000   1.000000
    7        8.799489      8.799104   0.000000   0.000000
    8       11.284369     11.284566   0.000000   0.000000
    9       13.477532     13.477652   0.000000   0.000000
   10       13.967792     13.967997   0.000000   0.000000
   11       17.471058     17.471540   0.000000   0.000000
   12       19.274413     19.274725   0.000000   0.000000
 
 -0.4166667E+00  0.1666667E+00 -0.4352749E-14  0.2314815E-02
    1      -41.836172    -41.833610   1.000000   1.000000
    2      -41.820662    -41.818096   1.000000   1.000000
    3      -14.039633    -14.040202   1.000000   1.000000
    4       -1.363869     -1.364140   1.000000   1.000000
    5        0.305630      0.305214   1.000000   1.000000
    6        0.584591      0.584117   1.000000   1.000000
    7        9.202657      9.202154   0.000000   0.000000
    8       10.844857     10.845162   0.000000   0.000000
    9       13.615099     13.615198   0.000000   0.000000
   10       13.834971     13.835185   0.000000   0.000000
   11       18.107425     18.107795   0.000000   0.000000
   12       18.464592     18.465038   0.000000   0.000000
 
 -0.3333333E+00  0.1666667E+00  0.6234361E-16  0.2314815E-02
    1      -41.869327    -41.866771   1.000000   1.000000
    2      -41.789430    -41.786857   1.000000   1.000000
    3      -14.059815    -14.060377   1.000000   1.000000
    4       -1.180710     -1.180997   1.000000   1.000000
    5        0.271536      0.271117   1.000000   1.000000
    6        0.711138      0.710648   1.000000   1.000000
    7        8.901704      8.901294   0.000000   0.000000
    8       11.073505     11.073750   0.000000   0.000000
    9       13.707653     13.707883   0.000000   0.000000
   10       13.933125     13.933248   0.000000   0.000000
   11       16.789687     16.790057   0.000000   0.000000
   12       19.249810     19.250156   0.000000   0.000000
 
 -0.2500000E+00  0.1666667E+00 -0.2713245E-14  0.2314815E-02
    1      -41.900723    -41.898174   1.000000   1.000000
    2      -41.761802    -41.759224   1.000000   1.000000
    3      -14.099114    -14.099661   1.000000   1.000000
    4       -0.805906     -0.806225   1.000000   1.000000
    5        0.319730      0.319295   1.000000   1.000000
    6        0.851427      0.850918   1.000000   1.000000
    7        8.247205      8.246918   0.000000   0.000000
    8       11.645662     11.645850   0.000000   0.000000
    9       13.513443     13.513728   0.000000   0.000000
   10       14.441679     14.441862   0.000000   0.000000
   11       15.571075     15.571380   0.000000   0.000000
   12       19.662992     19.663307   0.000000   0.000000
 
 -0.1666667E+00  0.1666667E+00 -0.5428751E-14  0.2314815E-02
    1      -41.927797    -41.925254   1.000000   1.000000
    2      -41.739171    -41.736589   1.000000   1.000000
    3      -14.145498    -14.146028   1.000000   1.000000
    4       -0.347757     -0.348118   1.000000   1.000000
    5        0.473900      0.473431   1.000000   1.000000
    6        0.968333      0.967806   1.000000   1.000000
    7        7.604734      7.604543   0.000000   0.000000
    8       12.212276     12.212478   0.000000   0.000000
    9       13.222618     13.222923   0.000000   0.000000
   10       14.334701     14.335199   0.000000   0.000000
   11       15.460107     15.460100   0.000000   0.000000
   12       19.440352     19.440631   0.000000   0.000000
 
 -0.8333333E-01  0.1666667E+00 -0.9974952E-15  0.2314815E-02
    1      -41.948234    -41.945695   1.000000   1.000000
    2      -41.722718    -41.720133   1.000000   1.000000
    3      -14.186422    -14.186937   1.000000   1.000000
    4        0.045269      0.044869   1.000000   1.000000
    5        0.734966      0.734449   1.000000   1.000000
    6        1.027220      1.026682   1.000000   1.000000
    7        7.086425      7.086320   0.000000   0.000000
    8       12.664927     12.665224   0.000000   0.000000
    9       12.924113     12.924405   0.000000   0.000000
   10       13.627489     13.627947   0.000000   0.000000
   11       16.544954     16.544977   0.000000   0.000000
   12       18.766206     18.767600   0.000000   0.000000
 
  0.9957725E-17  0.2500000E+00  0.6987781E-16  0.2314815E-02
    1      -41.934748    -41.932207   1.000000   1.000000
    2      -41.733286    -41.730703   1.000000   1.000000
    3      -14.157474    -14.157998   1.000000   1.000000
    4       -0.371109     -0.371454   1.000000   1.000000
    5        0.848080      0.847550   1.000000   1.000000
    6        0.898890      0.898358   1.000000   1.000000
    7        7.463012      7.462901   0.000000   0.000000
    8       12.547117     12.547341   0.000000   0.000000
    9       13.045407     13.045710   0.000000   0.000000
   10       13.333184     13.333490   0.000000   0.000000
   11       17.295970     17.295976   0.000000   0.000000
   12       17.607347     17.607422   0.000000   0.000000
 
  0.8333333E-01  0.2500000E+00 -0.2677955E-14  0.2314815E-02
    1      -41.940882    -41.938342   1.000000   1.000000
    2      -41.727905    -41.725321   1.000000   1.000000
    3      -14.167561    -14.168082   1.000000   1.000000
    4       -0.148515     -0.148880   1.000000   1.000000
    5        0.781486      0.780983   1.000000   1.000000
    6        0.885850      0.885301   1.000000   1.000000
    7        7.229065      7.228951   0.000000   0.000000
    8       12.595981     12.596145   0.000000   0.000000
    9       13.157750     13.158123   0.000000   0.000000
   10       13.521128     13.521535   0.000000   0.000000
   11       16.061233     16.061333   0.000000   0.000000
   12       19.120203     19.120349   0.000000   0.000000
 
  0.1666667E+00  0.2500000E+00  0.1785628E-14  0.2314815E-02
    1      -41.938668    -41.936127   1.000000   1.000000
    2      -41.728928    -41.726344   1.000000   1.000000
    3      -14.159146    -14.159671   1.000000   1.000000
    4        0.042188      0.041818   1.000000   1.000000
    5        0.617808      0.617324   1.000000   1.000000
    6        0.681738      0.681215   1.000000   1.000000
    7        7.055297      7.055136   0.000000   0.000000
    8       12.878939     12.879056   0.000000   0.000000
    9       13.251257     13.251568   0.000000   0.000000
   10       13.919438     13.920051   0.000000   0.000000
   11       15.101725     15.101771   0.000000   0.000000
   12       20.960143     20.959912   0.000000   0.000000
 
  0.2500000E+00  0.2500000E+00 -0.9782567E-15  0.2314815E-02
    1      -41.928450    -41.925907   1.000000   1.000000
    2      -41.736303    -41.733720   1.000000   1.000000
    3      -14.134076    -14.134612   1.000000   1.000000
    4        0.065687      0.065346   1.000000   1.000000
    5        0.397824      0.397325   1.000000   1.000000
    6        0.449990      0.449522   1.000000   1.000000
    7        6.963383      6.963164   0.000000   0.000000
    8       13.216286     13.216340   0.000000   0.000000
    9       13.449465     13.449710   0.000000   0.000000
   10       14.361208     14.361965   0.000000   0.000000
   11       14.546983     14.547124   0.000000   0.000000
   12       22.589905     22.583634   0.000000   0.000000
 
  0.3333333E+00  0.2500000E+00 -0.3720488E-14  0.2314815E-02
    1      -41.911223    -41.908676   1.000000   1.000000
    2      -41.749775    -41.747195   1.000000   1.000000
    3      -14.098068    -14.098618   1.000000   1.000000
    4       -0.292796     -0.293134   1.000000   1.000000
    5        0.310581      0.310134   1.000000   1.000000
    6        0.329700      0.329258   1.000000   1.000000
    7        7.043008      7.042734   0.000000   0.000000
    8       13.149764     13.149824   0.000000   0.000000
    9       13.605848     13.606020   0.000000   0.000000
   10       14.496624     14.496893   0.000000   0.000000
   11       15.027521     15.028250   0.000000   0.000000
   12       22.099308     22.099746   0.000000   0.000000
 
  0.4166667E+00  0.2500000E+00  0.6841557E-15  0.2314815E-02
    1      -41.888625    -41.886073   1.000000   1.000000
    2      -41.768712    -41.766135   1.000000   1.000000
    3      -14.060160    -14.060724   1.000000   1.000000
    4       -0.710733     -0.711050   1.000000   1.000000
    5        0.231225      0.230816   1.000000   1.000000
    6        0.260044      0.259615   1.000000   1.000000
    7        7.354629      7.354304   0.000000   0.000000
    8       12.699300     12.699377   0.000000   0.000000
    9       13.719453     13.719559   0.000000   0.000000
   10       14.572961     14.573241   0.000000   0.000000
   11       15.912017     15.912768   0.000000   0.000000
   12       21.577278     21.565862   0.000000   0.000000
 
  0.5000000E+00  0.2500000E+00 -0.2017473E-14  0.2314815E-02
    1      -41.862548    -41.859990   1.000000   1.000000
    2      -41.792242    -41.789670   1.000000   1.000000
    3      -14.030957    -14.031531   1.000000   1.000000
    4       -1.019276     -1.019578   1.000000   1.000000
    5        0.104032      0.103667   1.000000   1.000000
    6        0.272248      0.271808   1.000000   1.000000
    7        7.867514      7.867140   0.000000   0.000000
    8       12.087381     12.087455   0.000000   0.000000
    9       13.794815     13.794875   0.000000   0.000000
   10       14.521576     14.521842   0.000000   0.000000
   11       16.888638     16.889440   0.000000   0.000000
   12       20.342390     20.342752   0.000000   0.000000
 
 -0.4166667E+00  0.2500000E+00  0.1570089E-14  0.2314815E-02
    1      -41.834995    -41.832432   1.000000   1.000000
    2      -41.818966    -41.816399   1.000000   1.000000
    3      -14.019256    -14.019833   1.000000   1.000000
    4       -1.158831     -1.159129   1.000000   1.000000
    5       -0.017037     -0.017383   1.000000   1.000000
    6        0.366382      0.365932   1.000000   1.000000
    7        8.456826      8.456388   0.000000   0.000000
    8       11.421497     11.421617   0.000000   0.000000
    9       13.892384     13.892410   0.000000   0.000000
   10       14.390996     14.391270   0.000000   0.000000
   11       17.869378     17.870171   0.000000   0.000000
   12       18.893511     18.893931   0.000000   0.000000
 
 -0.3333333E+00  0.2500000E+00  0.2454012E-14  0.2314815E-02
    1      -41.847271    -41.844710   1.000000   1.000000
    2      -41.807885    -41.805317   1.000000   1.000000