       N       E                     dE             d eps       ncg     rms          rms(c)
DAV:   1     0.445743442811E+02    0.44574E+02   -0.56204E+03 22900   0.102E+03
DAV:   2    -0.958699815192E+01   -0.54161E+02   -0.52142E+02 27736   0.225E+02
DAV:   3    -0.152615153169E+02   -0.56745E+01   -0.56322E+01 43004   0.533E+01
DAV:   4    -0.153163019297E+02   -0.54787E-01   -0.54774E-01 26456   0.658E+00
DAV:   5    -0.153167994708E+02   -0.49754E-03   -0.49753E-03 31880   0.467E-01    0.116E+01
RMM:   6    -0.142155177300E+02    0.11013E+01   -0.35522E+00 24890   0.124E+01    0.502E+00
RMM:   7    -0.143183776848E+02   -0.10286E+00   -0.12814E-01 27731   0.291E+00    0.205E+00
RMM:   8    -0.143204719626E+02   -0.20943E-02   -0.51649E-02 31287   0.225E+00    0.116E+00
RMM:   9    -0.143335693502E+02   -0.13097E-01   -0.30188E-02 31606   0.195E+00    0.250E-01
RMM:  10    -0.143344875613E+02   -0.91821E-03   -0.86139E-03 36770   0.691E-01    0.145E-01
RMM:  11    -0.143356279468E+02   -0.11404E-02   -0.62804E-03 34727   0.609E-01    0.198E-01
RMM:  12    -0.143352796353E+02    0.34831E-03   -0.15604E-03 35799   0.321E-01    0.851E-02
RMM:  13    -0.143352618987E+02    0.17737E-04   -0.79953E-04 36116   0.225E-01    0.203E-02
RMM:  14    -0.143352946817E+02   -0.32783E-04   -0.24862E-04 34905   0.112E-01    0.276E-02
RMM:  15    -0.143353080353E+02   -0.13354E-04   -0.94098E-05 31857   0.731E-02    0.298E-02
RMM:  16    -0.143353097849E+02   -0.17496E-05   -0.46765E-05 29133   0.531E-02
   1 F= -.14335310E+02 E0= -.14335310E+02  d E =0.000000E+00  mag=    -0.0000
