 running on   48 total cores
 distrk:  each k-point on   48 cores,    1 groups
 distr:  one band on    6 cores,    8 groups
 using from now: INCAR     
 vasp.6.1.2 22Jul20 (build Mar 31 2021 18:09:49) complex                        
  
 POSCAR found type information on POSCAR LiP O 
 POSCAR found :  3 types and     100 ions
 scaLAPACK will be used
 LDA part: xc-table for Pade appr. of Perdew
 generate k-points for:    6    3    2
 POSCAR, INCAR and KPOINTS ok, starting setup
 FFT: planning ...
 WAVECAR not read
 entering main loop
       N       E                     dE             d eps       ncg     rms          rms(c)
DAV:   1     0.450219159173E+04    0.45022E+04   -0.25652E+05 27520   0.151E+03
DAV:   2    -0.255044440208E+03   -0.47572E+04   -0.45084E+04 32504   0.387E+02
DAV:   3    -0.709613577984E+03   -0.45457E+03   -0.45117E+03 34440   0.129E+02
DAV:   4    -0.740226758542E+03   -0.30613E+02   -0.30471E+02 47528   0.267E+01
DAV:   5    -0.746630573877E+03   -0.64038E+01   -0.64003E+01 44528   0.732E+00    0.108E+02
DAV:   6    -0.568337287105E+03    0.17829E+03   -0.43596E+02 33016   0.392E+01    0.603E+01
DAV:   7    -0.592765210975E+03   -0.24428E+02   -0.64980E+01 33960   0.143E+01    0.205E+01
DAV:   8    -0.608670374135E+03   -0.15905E+02   -0.11873E+01 33624   0.681E+00    0.122E+01
DAV:   9    -0.629244528695E+03   -0.20574E+02   -0.99735E+00 33480   0.535E+00    0.767E+00
DAV:  10    -0.653500625603E+03   -0.24256E+02   -0.22403E+01 33904   0.678E+00    0.407E+00
DAV:  11    -0.663458203796E+03   -0.99576E+01   -0.11318E+01 34392   0.467E+00    0.284E+00
DAV:  12    -0.666141485100E+03   -0.26833E+01   -0.36260E+00 33496   0.292E+00    0.176E+00
DAV:  13    -0.666333370879E+03   -0.19189E+00   -0.56176E-01 31464   0.131E+00    0.960E-01
DAV:  14    -0.666348894675E+03   -0.15524E-01   -0.77665E-02 33976   0.607E-01    0.576E-01
DAV:  15    -0.666347495243E+03    0.13994E-02   -0.18735E-02 31880   0.317E-01    0.288E-01
DAV:  16    -0.666348008389E+03   -0.51315E-03   -0.48336E-03 35416   0.155E-01    0.103E-01
DAV:  17    -0.666348590289E+03   -0.58190E-03   -0.15670E-03 35560   0.839E-02    0.563E-02
DAV:  18    -0.666348725220E+03   -0.13493E-03   -0.23326E-04 33584   0.388E-02    0.316E-02
DAV:  19    -0.666348758782E+03   -0.33562E-04   -0.57810E-05 29096   0.184E-02    0.143E-02
DAV:  20    -0.666348764974E+03   -0.61917E-05   -0.12771E-05 22304   0.992E-03
   1 F= -.66634876E+03 E0= -.66634876E+03  d E =0.000000E+00  mag=     0.0001
