 running on   24 total cores
 distrk:  each k-point on   24 cores,    1 groups
 distr:  one band on    6 cores,    4 groups
 using from now: INCAR     
 vasp.6.1.2 22Jul20 (build Mar 31 2021 18:09:49) complex                        
  
 POSCAR found type information on POSCAR LiO 
 POSCAR found :  2 types and       3 ions
 scaLAPACK will be used
 -----------------------------------------------------------------------------
|                                                                             |
|               ----> ADVICE to this user running VASP <----                  |
|                                                                             |
|     You have a (more or less) 'small supercell' and for smaller cells       |
|     it is recommended to use the reciprocal-space projection scheme!        |
|     The real-space optimization is not efficient for small cells and it     |
|     is also less accurate ...                                               |
|     Therefore, set LREAL=.FALSE. in the INCAR file.                         |
|                                                                             |
 -----------------------------------------------------------------------------

 LDA part: xc-table for Pade appr. of Perdew
 generate k-points for:   12   12   12
 POSCAR, INCAR and KPOINTS ok, starting setup
 FFT: planning ...
 WAVECAR not read
 entering main loop
       N       E                     dE             d eps       ncg     rms          rms(c)
DAV:   1     0.449440786772E+02    0.44944E+02   -0.56536E+03 22912   0.102E+03
DAV:   2    -0.962402204261E+01   -0.54568E+02   -0.52570E+02 27496   0.227E+02
DAV:   3    -0.152749803329E+02   -0.56510E+01   -0.56084E+01 42992   0.535E+01
DAV:   4    -0.153248364574E+02   -0.49856E-01   -0.49848E-01 26456   0.656E+00
DAV:   5    -0.153252111359E+02   -0.37468E-03   -0.37467E-03 31620   0.446E-01    0.116E+01
RMM:   6    -0.142189716832E+02    0.11062E+01   -0.35192E+00 24906   0.124E+01    0.500E+00
RMM:   7    -0.143257212935E+02   -0.10675E+00   -0.12359E-01 27848   0.287E+00    0.207E+00
RMM:   8    -0.143292898439E+02   -0.35686E-02   -0.49760E-02 31235   0.221E+00    0.117E+00
RMM:   9    -0.143423484680E+02   -0.13059E-01   -0.30340E-02 31521   0.195E+00    0.248E-01
RMM:  10    -0.143433149754E+02   -0.96651E-03   -0.84502E-03 36387   0.690E-01    0.143E-01
RMM:  11    -0.143444126065E+02   -0.10976E-02   -0.61308E-03 34432   0.604E-01    0.193E-01
RMM:  12    -0.143440917537E+02    0.32085E-03   -0.15398E-03 35240   0.323E-01    0.823E-02
RMM:  13    -0.143440797870E+02    0.11967E-04   -0.78501E-04 35684   0.225E-01    0.202E-02
RMM:  14    -0.143441128143E+02   -0.33027E-04   -0.24788E-04 34201   0.112E-01    0.286E-02
RMM:  15    -0.143441253958E+02   -0.12581E-04   -0.93457E-05 31417   0.732E-02    0.284E-02
RMM:  16    -0.143441276089E+02   -0.22131E-05   -0.45552E-05 28486   0.526E-02
   1 F= -.14344128E+02 E0= -.14344128E+02  d E =0.000000E+00  mag=    -0.0000
