   96   96    1    2
  0.8658485E+01  0.9433855E-09  0.9433854E-09  0.9433855E-09  0.5000000E-15
  1.000000000000000E-004
  CAR 
 unknown system                          
    368      8    264
 
  0.0000000E+00  0.0000000E+00  0.0000000E+00  0.3703704E-01
    1      -40.860863    -40.860858   1.000000   1.000000
    2      -40.859247    -40.859243   1.000000   1.000000
    3      -40.856171    -40.856166   1.000000   1.000000
    4      -40.854807    -40.854802   1.000000   1.000000
    5      -40.808101    -40.808090   1.000000   1.000000
    6      -40.805653    -40.805642   1.000000   1.000000
    7      -40.803837    -40.803825   1.000000   1.000000
    8      -40.800639    -40.800628   1.000000   1.000000
    9      -40.766365    -40.766351   1.000000   1.000000
   10      -40.765035    -40.765021   1.000000   1.000000
   11      -40.761526    -40.761511   1.000000   1.000000
   12      -40.760291    -40.760276   1.000000   1.000000
   13      -40.686945    -40.686934   1.000000   1.000000
   14      -40.686920    -40.686909   1.000000   1.000000
   15      -40.546964    -40.546951   1.000000   1.000000
   16      -40.545364    -40.545352   1.000000   1.000000
   17      -40.536665    -40.536652   1.000000   1.000000
   18      -40.536445    -40.536432   1.000000   1.000000
   19      -40.525818    -40.525805   1.000000   1.000000
   20      -40.519439    -40.519426   1.000000   1.000000
   21      -40.515680    -40.515667   1.000000   1.000000
   22      -40.511047    -40.511033   1.000000   1.000000
   23      -40.495248    -40.495233   1.000000   1.000000
   24      -40.494135    -40.494121   1.000000   1.000000
   25      -40.484014    -40.483999   1.000000   1.000000
   26      -40.479739    -40.479724   1.000000   1.000000
   27      -40.460410    -40.460400   1.000000   1.000000
   28      -40.459210    -40.459200   1.000000   1.000000
   29      -40.457721    -40.457711   1.000000   1.000000
   30      -40.456514    -40.456503   1.000000   1.000000
   31      -40.439991    -40.439981   1.000000   1.000000
   32      -40.437357    -40.437347   1.000000   1.000000
   33      -40.427784    -40.427773   1.000000   1.000000
   34      -40.426522    -40.426510   1.000000   1.000000
   35      -40.408899    -40.408888   1.000000   1.000000
   36      -40.408682    -40.408670   1.000000   1.000000
   37      -40.407629    -40.407618   1.000000   1.000000
   38      -40.406325    -40.406313   1.000000   1.000000
   39      -40.311962    -40.311957   1.000000   1.000000
   40      -40.309730    -40.309725   1.000000   1.000000
   41      -40.281488    -40.281477   1.000000   1.000000
   42      -40.280088    -40.280078   1.000000   1.000000
   43      -40.266099    -40.266094   1.000000   1.000000
   44      -40.266098    -40.266092   1.000000   1.000000
   45      -40.261169    -40.261164   1.000000   1.000000
   46      -40.261047    -40.261043   1.000000   1.000000
   47      -40.247303    -40.247296   1.000000   1.000000
   48      -40.247273    -40.247265   1.000000   1.000000
   49      -40.221236    -40.221228   1.000000   1.000000
   50      -40.220434    -40.220426   1.000000   1.000000
   51      -39.913414    -39.913378   1.000000   1.000000
   52      -39.913254    -39.913217   1.000000   1.000000
   53      -39.863166    -39.863137   1.000000   1.000000
   54      -39.858127    -39.858099   1.000000   1.000000
   55      -39.838525    -39.838490   1.000000   1.000000
   56      -39.838521    -39.838485   1.000000   1.000000
   57      -12.903862    -12.903868   1.000000   1.000000
   58      -12.899123    -12.899129   1.000000   1.000000
   59      -12.776906    -12.776914   1.000000   1.000000
   60      -12.776041    -12.776050   1.000000   1.000000
   61      -12.766610    -12.766620   1.000000   1.000000
   62      -12.763524    -12.763534   1.000000   1.000000
   63      -12.755685    -12.755695   1.000000   1.000000
   64      -12.753712    -12.753722   1.000000   1.000000
   65       -9.729739     -9.729746   1.000000   1.000000
   66       -9.700678     -9.700686   1.000000   1.000000
   67       -9.695073     -9.695080   1.000000   1.000000
   68       -9.691089     -9.691096   1.000000   1.000000
   69       -9.593538     -9.593548   1.000000   1.000000
   70       -9.590578     -9.590589   1.000000   1.000000
   71       -9.581733     -9.581743   1.000000   1.000000
   72       -9.580082     -9.580092   1.000000   1.000000
   73       -9.490398     -9.490408   1.000000   1.000000
   74       -9.437369     -9.437378   1.000000   1.000000
   75       -9.390735     -9.390745   1.000000   1.000000
   76       -9.388083     -9.388093   1.000000   1.000000
   77       -9.387182     -9.387194   1.000000   1.000000
   78       -9.368100     -9.368112   1.000000   1.000000
   79       -9.285286     -9.285298   1.000000   1.000000
   80       -9.283151     -9.283162   1.000000   1.000000
   81       -9.268226     -9.268237   1.000000   1.000000
   82       -9.249508     -9.249520   1.000000   1.000000
   83       -9.203857     -9.203871   1.000000   1.000000
   84       -9.193993     -9.194005   1.000000   1.000000
   85       -9.178871     -9.178882   1.000000   1.000000
   86       -9.175080     -9.175095   1.000000   1.000000
   87       -9.150830     -9.150841   1.000000   1.000000
   88       -9.131882     -9.131894   1.000000   1.000000
   89       -2.988911     -2.988916   1.000000   1.000000
   90       -2.740978     -2.740983   1.000000   1.000000
   91       -2.728322     -2.728327   1.000000   1.000000
   92       -2.671545     -2.671550   1.000000   1.000000
   93       -2.651860     -2.651866   1.000000   1.000000
   94       -2.598665     -2.598672   1.000000   1.000000
   95       -2.597510     -2.597516   1.000000   1.000000
   96       -2.561211     -2.561217   1.000000   1.000000
   97       -1.185761     -1.185766   1.000000   1.000000
   98       -1.172121     -1.172124   1.000000   1.000000
   99       -1.132350     -1.132353   1.000000   1.000000
  100       -1.111047     -1.111050   1.000000   1.000000
  101       -1.084991     -1.084993   1.000000   1.000000
  102       -1.079623     -1.079625   1.000000   1.000000
  103       -0.935223     -0.935224   1.000000   1.000000
  104       -0.887924     -0.887929   1.000000   1.000000
  105       -0.858157     -0.858161   1.000000   1.000000
  106       -0.838625     -0.838629   1.000000   1.000000
  107       -0.818503     -0.818508   1.000000   1.000000
  108       -0.783664     -0.783668   1.000000   1.000000
  109       -0.774658     -0.774663   1.000000   1.000000
  110       -0.701905     -0.701909   1.000000   1.000000
  111       -0.659237     -0.659240   1.000000   1.000000
  112       -0.516256     -0.516259   1.000000   1.000000
  113       -0.500873     -0.500878   1.000000   1.000000
  114       -0.463384     -0.463389   1.000000   1.000000
  115       -0.433035     -0.433040   1.000000   1.000000
  116       -0.386111     -0.386114   1.000000   1.000000
  117       -0.365696     -0.365699   1.000000   1.000000
  118       -0.310135     -0.310140   1.000000   1.000000
  119       -0.238285     -0.238290   1.000000   1.000000
  120       -0.228798     -0.228802   1.000000   1.000000
  121        1.096927      1.096924   1.000000   1.000000
  122        1.115080      1.115077   1.000000   1.000000
  123        1.299907      1.299904   1.000000   1.000000
  124        1.300558      1.300554   1.000000   1.000000
  125        1.332284      1.332282   1.000000   1.000000
  126        1.374434      1.374432   1.000000   1.000000
  127        1.379210      1.379208   1.000000   1.000000
  128        1.406208      1.406206   1.000000   1.000000
  129        1.419377      1.419379   1.000000   1.000000
  130        1.469493      1.469492   1.000000   1.000000
  131        1.491880      1.491874   1.000000   1.000000
  132        1.500186      1.500180   1.000000   1.000000
  133        1.538922      1.538917   1.000000   1.000000
  134        1.628106      1.628103   1.000000   1.000000
  135        1.689731      1.689725   1.000000   1.000000
  136        1.731441      1.731434   1.000000   1.000000
  137        1.758433      1.758430   1.000000   1.000000
  138        1.779637      1.779632   1.000000   1.000000
  139        1.790886      1.790887   1.000000   1.000000
  140        1.879123      1.879122   1.000000   1.000000
  141        1.897264      1.897264   1.000000   1.000000
  142        1.909239      1.909232   1.000000   1.000000
  143        1.934622      1.934618   1.000000   1.000000
  144        1.973104      1.973097   1.000000   1.000000
  145        1.995821      1.995815   1.000000   1.000000
  146        2.011596      2.011591   1.000000   1.000000
  147        2.040467      2.040465   1.000000   1.000000
  148        2.071058      2.071052   1.000000   1.000000
  149        2.089800      2.089795   1.000000   1.000000
  150        2.094298      2.094293   1.000000   1.000000
  151        2.131395      2.131390   1.000000   1.000000
  152        2.257480      2.257474   1.000000   1.000000
  153        2.348724      2.348717   1.000000   1.000000
  154        2.356140      2.356133   1.000000   1.000000
  155        2.426550      2.426544   1.000000   1.000000
  156        2.438213      2.438207   1.000000   1.000000
  157        2.487946      2.487940   1.000000   1.000000
  158        2.549210      2.549206   1.000000   1.000000
  159        2.571578      2.571573   1.000000   1.000000
  160        2.600962      2.600957   1.000000   1.000000
  161        2.682071      2.682068   1.000000   1.000000
  162        2.700409      2.700404   1.000000   1.000000
  163        2.727392      2.727390   1.000000   1.000000
  164        2.749891      2.749887   1.000000   1.000000
  165        2.832754      2.832745   1.000000   1.000000
  166        2.920235      2.920228   1.000000   1.000000
  167        2.944414      2.944408   1.000000   1.000000
  168        2.951988      2.951981   1.000000   1.000000
  169        2.953001      2.952995   1.000000   1.000000
  170        3.188535      3.188529   1.000000   1.000000
  171        3.194531      3.194525   1.000000   1.000000
  172        3.215001      3.214996   1.000000   1.000000
  173        3.307081      3.307075   1.000000   1.000000
  174        3.325415      3.325411   1.000000   1.000000
  175        3.331198      3.331191   1.000000   1.000000
  176        3.442248      3.442241   1.000000   1.000000
  177        3.454872      3.454864   1.000000   1.000000
  178        3.515534      3.515528   1.000000   1.000000
  179        3.525129      3.525124   1.000000   1.000000
  180        3.548417      3.548411   1.000000   1.000000
  181        3.623355      3.623347   1.000000   1.000000
  182        3.680095      3.680088   1.000000   1.000000
  183        3.720043      3.720036   1.000000   1.000000
  184        3.760017      3.760012   1.000000   1.000000
  185        6.985861      6.985883   0.000000   0.000000
  186        7.126188      7.126201   0.000000   0.000000
  187        7.126409      7.126425   0.000000   0.000000
  188        7.383448      7.383442   0.000000   0.000000
  189        7.797135      7.797134   0.000000   0.000000
  190        8.152335      8.152331   0.000000   0.000000
  191        8.227841      8.227839   0.000000   0.000000
  192        8.306514      8.306515   0.000000   0.000000
  193        8.372823      8.372820   0.000000   0.000000
  194        8.407945      8.407942   0.000000   0.000000
  195        8.543770      8.543765   0.000000   0.000000
  196        8.784963      8.784957   0.000000   0.000000
  197        8.814254      8.814330   0.000000   0.000000
  198        8.989763      8.989759   0.000000   0.000000
  199        9.212434      9.212440   0.000000   0.000000
  200        9.222364      9.222359   0.000000   0.000000
  201        9.255180      9.255178   0.000000   0.000000
  202        9.329298      9.329299   0.000000   0.000000
  203        9.353908      9.353907   0.000000   0.000000
  204        9.374564      9.374577   0.000000   0.000000
  205        9.411774      9.411781   0.000000   0.000000
  206        9.553745      9.553737   0.000000   0.000000
  207        9.560191      9.560195   0.000000   0.000000
  208        9.628430      9.628446   0.000000   0.000000
  209        9.802282      9.802263   0.000000   0.000000
  210        9.846477      9.846549   0.000000   0.000000
  211        9.853946      9.853946   0.000000   0.000000
  212        9.908311      9.908307   0.000000   0.000000
  213       10.026539     10.026533   0.000000   0.000000
  214       10.192392     10.192396   0.000000   0.000000
  215       10.396923     10.396914   0.000000   0.000000
  216       10.513353     10.513349   0.000000   0.000000
  217       10.560503     10.560514   0.000000   0.000000
  218       10.632651     10.632701   0.000000   0.000000
  219       10.733137     10.733097   0.000000   0.000000
  220       10.854387     10.854366   0.000000   0.000000
  221       10.931132     10.931021   0.000000   0.000000
  222       10.989083     10.989114   0.000000   0.000000
  223       11.189617     11.189597   0.000000   0.000000
  224       11.212214     11.212326   0.000000   0.000000
  225       11.217178     11.217193   0.000000   0.000000
  226       11.449232     11.449190   0.000000   0.000000
  227       11.476352     11.476249   0.000000   0.000000
  228       11.573997     11.574086   0.000000   0.000000
  229       11.592782     11.592741   0.000000   0.000000
  230       11.612061     11.612169   0.000000   0.000000
  231       11.667342     11.668082   0.000000   0.000000
  232       11.834249     11.834169   0.000000   0.000000
  233       11.836193     11.836838   0.000000   0.000000
  234       11.849343     11.849285   0.000000   0.000000
  235       11.901590     11.901517   0.000000   0.000000
  236       11.988637     11.988726   0.000000   0.000000
  237       12.124550     12.124503   0.000000   0.000000
  238       12.127991     12.129091   0.000000   0.000000
  239       12.183529     12.183366   0.000000   0.000000
  240       12.205243     12.203277   0.000000   0.000000
  241       12.212047     12.212993   0.000000   0.000000
  242       12.558408     12.557707   0.000000   0.000000
  243       12.574088     12.576750   0.000000   0.000000
  244       12.672996     12.695299   0.000000   0.000000
  245       12.762307     12.764804   0.000000   0.000000
  246       12.764785     12.774045   0.000000   0.000000
  247       12.797423     12.799314   0.000000   0.000000
  248       12.931629     12.940276   0.000000   0.000000
  249       12.983007     12.961687   0.000000   0.000000
  250       13.042551     13.003826   0.000000   0.000000
  251       13.073741     13.101473   0.000000   0.000000
  252       13.128371     13.120265   0.000000   0.000000
  253       13.166357     13.161858   0.000000   0.000000
  254       13.213463     13.191046   0.000000   0.000000
  255       13.232905     13.228408   0.000000   0.000000
  256       13.251985     13.319576   0.000000   0.000000
  257       13.313296     13.322076   0.000000   0.000000
  258       13.350316     13.366433   0.000000   0.000000
  259       13.459775     13.410549   0.000000   0.000000
  260       13.498555     13.567657   0.000000   0.000000
  261       13.616900     13.615699   0.000000   0.000000
  262       13.682287     13.754822   0.000000   0.000000
  263       13.864722     13.887357   0.000000   0.000000
  264       14.151101     14.073922   0.000000   0.000000
 
  0.3333333E+00 -0.2215118E-17  0.0000000E+00  0.1481481E+00
    1      -40.860316    -40.860312   1.000000   1.000000
    2      -40.859419    -40.859414   1.000000   1.000000
    3      -40.855690    -40.855685   1.000000   1.000000
    4      -40.854926    -40.854922   1.000000   1.000000
    5      -40.808340    -40.808329   1.000000   1.000000
    6      -40.807217    -40.807206   1.000000   1.000000
    7      -40.802969    -40.802957   1.000000   1.000000
    8      -40.801616    -40.801605   1.000000   1.000000
    9      -40.765423    -40.765409   1.000000   1.000000
   10      -40.764338    -40.764324   1.000000   1.000000
   11      -40.762318    -40.762303   1.000000   1.000000
   12      -40.760175    -40.760160   1.000000   1.000000
   13      -40.686940    -40.686929   1.000000   1.000000
   14      -40.686763    -40.686752   1.000000   1.000000
   15      -40.546417    -40.546404   1.000000   1.000000
   16      -40.545246    -40.545233   1.000000   1.000000
   17      -40.537630    -40.537618   1.000000   1.000000
   18      -40.536577    -40.536564   1.000000   1.000000
   19      -40.524275    -40.524262   1.000000   1.000000
   20      -40.519707    -40.519694   1.000000   1.000000
   21      -40.515055    -40.515042   1.000000   1.000000
   22      -40.512217    -40.512203   1.000000   1.000000
   23      -40.495371    -40.495357   1.000000   1.000000
   24      -40.493283    -40.493269   1.000000   1.000000
   25      -40.485234    -40.485219   1.000000   1.000000
   26      -40.481151    -40.481136   1.000000   1.000000
   27      -40.460632    -40.460622   1.000000   1.000000
   28      -40.459811    -40.459801   1.000000   1.000000
   29      -40.456658    -40.456648   1.000000   1.000000
   30      -40.456010    -40.455999   1.000000   1.000000
   31      -40.438569    -40.438559   1.000000   1.000000
   32      -40.436292    -40.436282   1.000000   1.000000
   33      -40.429730    -40.429719   1.000000   1.000000
   34      -40.426775    -40.426764   1.000000   1.000000
   35      -40.411557    -40.411545   1.000000   1.000000
   36      -40.408425    -40.408413   1.000000   1.000000
   37      -40.406686    -40.406674   1.000000   1.000000
   38      -40.404370    -40.404358   1.000000   1.000000
   39      -40.311279    -40.311274   1.000000   1.000000
   40      -40.307321    -40.307317   1.000000   1.000000
   41      -40.288063    -40.288052   1.000000   1.000000
   42      -40.280763    -40.280753   1.000000   1.000000
   43      -40.266178    -40.266173   1.000000   1.000000
   44      -40.264880    -40.264875   1.000000   1.000000
   45      -40.262353    -40.262348   1.000000   1.000000
   46      -40.261160    -40.261155   1.000000   1.000000
   47      -40.247312    -40.247305   1.000000   1.000000
   48      -40.238504    -40.238497   1.000000   1.000000
   49      -40.225549    -40.225541   1.000000   1.000000
   50      -40.220815    -40.220806   1.000000   1.000000
   51      -39.913397    -39.913360   1.000000   1.000000
   52      -39.913208    -39.913171   1.000000   1.000000
   53      -39.863172    -39.863143   1.000000   1.000000
   54      -39.858141    -39.858113   1.000000   1.000000
   55      -39.838595    -39.838560   1.000000   1.000000
   56      -39.838532    -39.838496   1.000000   1.000000
   57      -12.902100    -12.902106   1.000000   1.000000
   58      -12.899765    -12.899771   1.000000   1.000000
   59      -12.777379    -12.777390   1.000000   1.000000
   60      -12.776034    -12.776042   1.000000   1.000000
   61      -12.766463    -12.766473   1.000000   1.000000
   62      -12.764642    -12.764653   1.000000   1.000000
   63      -12.754935    -12.754944   1.000000   1.000000
   64      -12.754351    -12.754362   1.000000   1.000000
   65       -9.730247     -9.730254   1.000000   1.000000
   66       -9.697209     -9.697216   1.000000   1.000000
   67       -9.694295     -9.694302   1.000000   1.000000
   68       -9.690252     -9.690259   1.000000   1.000000
   69       -9.600934     -9.600945   1.000000   1.000000
   70       -9.593835     -9.593846   1.000000   1.000000
   71       -9.578853     -9.578863   1.000000   1.000000
   72       -9.576356     -9.576366   1.000000   1.000000
   73       -9.479039     -9.479049   1.000000   1.000000
   74       -9.445798     -9.445807   1.000000   1.000000
   75       -9.408237     -9.408247   1.000000   1.000000
   76       -9.384781     -9.384792   1.000000   1.000000
   77       -9.373891     -9.373902   1.000000   1.000000
   78       -9.366306     -9.366317   1.000000   1.000000
   79       -9.298703     -9.298714   1.000000   1.000000
   80       -9.280465     -9.280476   1.000000   1.000000
   81       -9.261234     -9.261246   1.000000   1.000000
   82       -9.239714     -9.239726   1.000000   1.000000
   83       -9.212726     -9.212739   1.000000   1.000000
   84       -9.187075     -9.187088   1.000000   1.000000
   85       -9.178417     -9.178432   1.000000   1.000000
   86       -9.172014     -9.172026   1.000000   1.000000
   87       -9.155056     -9.155067   1.000000   1.000000
   88       -9.140517     -9.140529   1.000000   1.000000
   89       -2.934108     -2.934114   1.000000   1.000000
   90       -2.813674     -2.813679   1.000000   1.000000
   91       -2.708663     -2.708669   1.000000   1.000000
   92       -2.696430     -2.696436   1.000000   1.000000
   93       -2.636297     -2.636303   1.000000   1.000000
   94       -2.604732     -2.604738   1.000000   1.000000
   95       -2.589325     -2.589331   1.000000   1.000000
   96       -2.577244     -2.577249   1.000000   1.000000
   97       -1.178286     -1.178289   1.000000   1.000000
   98       -1.156612     -1.156617   1.000000   1.000000
   99       -1.125994     -1.125997   1.000000   1.000000
  100       -1.072740     -1.072742   1.000000   1.000000
  101       -1.035300     -1.035303   1.000000   1.000000
  102       -1.017735     -1.017738   1.000000   1.000000
  103       -0.959762     -0.959765   1.000000   1.000000
  104       -0.927432     -0.927436   1.000000   1.000000
  105       -0.854690     -0.854694   1.000000   1.000000
  106       -0.837959     -0.837963   1.000000   1.000000
  107       -0.819455     -0.819460   1.000000   1.000000
  108       -0.741551     -0.741555   1.000000   1.000000
  109       -0.714155     -0.714159   1.000000   1.000000
  110       -0.686719     -0.686723   1.000000   1.000000
  111       -0.634808     -0.634812   1.000000   1.000000
  112       -0.578188     -0.578192   1.000000   1.000000
  113       -0.534959     -0.534963   1.000000   1.000000
  114       -0.483659     -0.483662   1.000000   1.000000
  115       -0.474226     -0.474229   1.000000   1.000000
  116       -0.411732     -0.411735   1.000000   1.000000
  117       -0.385864     -0.385869   1.000000   1.000000
  118       -0.348014     -0.348018   1.000000   1.000000
  119       -0.257614     -0.257619   1.000000   1.000000
  120       -0.226084     -0.226089   1.000000   1.000000
  121        1.138195      1.138191   1.000000   1.000000
  122        1.164076      1.164073   1.000000   1.000000
  123        1.243406      1.243403   1.000000   1.000000
  124        1.270505      1.270503   1.000000   1.000000
  125        1.327594      1.327590   1.000000   1.000000
  126        1.340058      1.340054   1.000000   1.000000
  127        1.367611      1.367609   1.000000   1.000000
  128        1.386345      1.386342   1.000000   1.000000
  129        1.407842      1.407839   1.000000   1.000000
  130        1.423152      1.423149   1.000000   1.000000
  131        1.436687      1.436686   1.000000   1.000000
  132        1.477737      1.477735   1.000000   1.000000
  133        1.548345      1.548344   1.000000   1.000000
  134        1.565124      1.565123   1.000000   1.000000
  135        1.587457      1.587454   1.000000   1.000000
  136        1.690272      1.690269   1.000000   1.000000
  137        1.739076      1.739072   1.000000   1.000000
  138        1.783638      1.783634   1.000000   1.000000
  139        1.806799      1.806794   1.000000   1.000000
  140        1.863614      1.863608   1.000000   1.000000
  141        1.875301      1.875296   1.000000   1.000000
  142        1.926269      1.926266   1.000000   1.000000
  143        1.948583      1.948577   1.000000   1.000000
  144        1.968338      1.968332   1.000000   1.000000
  145        1.985543      1.985539   1.000000   1.000000
  146        2.017905      2.017899   1.000000   1.000000
  147        2.072461      2.072456   1.000000   1.000000
  148        2.086352      2.086347   1.000000   1.000000
  149        2.116145      2.116139   1.000000   1.000000
  150        2.215314      2.215308   1.000000   1.000000
  151        2.240098      2.240092   1.000000   1.000000
  152        2.266442      2.266435   1.000000   1.000000
  153        2.353930      2.353925   1.000000   1.000000
  154        2.359676      2.359671   1.000000   1.000000
  155        2.408704      2.408698   1.000000   1.000000
  156        2.491705      2.491699   1.000000   1.000000
  157        2.567180      2.567174   1.000000   1.000000
  158        2.593261      2.593256   1.000000   1.000000
  159        2.617685      2.617680   1.000000   1.000000
  160        2.651577      2.651570   1.000000   1.000000
  161        2.671565      2.671559   1.000000   1.000000
  162        2.721908      2.721902   1.000000   1.000000
  163        2.815962      2.815957   1.000000   1.000000
  164        2.846514      2.846509   1.000000   1.000000
  165        2.912104      2.912098   1.000000   1.000000
  166        2.937996      2.937991   1.000000   1.000000
  167        2.970184      2.970177   1.000000   1.000000
  168        3.012858      3.012852   1.000000   1.000000
  169        3.020933      3.020928   1.000000   1.000000
  170        3.161939      3.161933   1.000000   1.000000
  171        3.187345      3.187340   1.000000   1.000000
  172        3.236868      3.236861   1.000000   1.000000
  173        3.242682      3.242677   1.000000   1.000000
  174        3.254218      3.254211   1.000000   1.000000
  175        3.329659      3.329652   1.000000   1.000000
  176        3.389575      3.389569   1.000000   1.000000
  177        3.415841      3.415835   1.000000   1.000000
  178        3.440943      3.440938   1.000000   1.000000
  179        3.480155      3.480149   1.000000   1.000000
  180        3.505985      3.505979   1.000000   1.000000
  181        3.576739      3.576733   1.000000   1.000000
  182        3.599117      3.599110   1.000000   1.000000
  183        3.633351      3.633344   1.000000   1.000000
  184        3.666695      3.666690   1.000000   1.000000
  185        7.222844      7.222829   0.000000   0.000000
  186        7.364354      7.364362   0.000000   0.000000
  187        7.466324      7.466323   0.000000   0.000000
  188        7.624137      7.624145   0.000000   0.000000
  189        7.743737      7.743732   0.000000   0.000000
  190        8.117985      8.117981   0.000000   0.000000
  191        8.255078      8.255073   0.000000   0.000000
  192        8.275392      8.275388   0.000000   0.000000
  193        8.317971      8.317967   0.000000   0.000000
  194        8.352351      8.352349   0.000000   0.000000
  195        8.568442      8.568439   0.000000   0.000000
  196        8.624859      8.624856   0.000000   0.000000
  197        8.769534      8.769530   0.000000   0.000000
  198        8.853121      8.853115   0.000000   0.000000
  199        8.922550      8.922548   0.000000   0.000000
  200        8.973271      8.973268   0.000000   0.000000
  201        9.107040      9.107033   0.000000   0.000000
  202        9.169762      9.169760   0.000000   0.000000
  203        9.217464      9.217458   0.000000   0.000000
  204        9.290815      9.290811   0.000000   0.000000
  205        9.404383      9.404380   0.000000   0.000000
  206        9.479078      9.479078   0.000000   0.000000
  207        9.522142      9.522139   0.000000   0.000000
  208        9.613226      9.613223   0.000000   0.000000
  209        9.698431      9.698448   0.000000   0.000000
  210        9.734196      9.734220   0.000000   0.000000
  211        9.835426      9.835425   0.000000   0.000000
  212        9.882270      9.882289   0.000000   0.000000
  213        9.980130      9.980136   0.000000   0.000000
  214       10.135189     10.135227   0.000000   0.000000
  215       10.318304     10.318304   0.000000   0.000000
  216       10.392593     10.392609   0.000000   0.000000
  217       10.553585     10.553602   0.000000   0.000000
  218       10.704447     10.704456   0.000000   0.000000
  219       10.756149     10.756142   0.000000   0.000000
  220       10.918396     10.918328   0.000000   0.000000
  221       10.959596     10.959627   0.000000   0.000000
  222       10.987997     10.987991   0.000000   0.000000
  223       11.099343     11.099321   0.000000   0.000000
  224       11.256634     11.256608   0.000000   0.000000
  225       11.379826     11.379887   0.000000   0.000000
  226       11.461626     11.461410   0.000000   0.000000
  227       11.504305     11.504299   0.000000   0.000000
  228       11.593479     11.593339   0.000000   0.000000
  229       11.682729     11.682624   0.000000   0.000000
  230       11.740535     11.740532   0.000000   0.000000
  231       11.770433     11.770530   0.000000   0.000000
  232       11.832831     11.833779   0.000000   0.000000
  233       11.906511     11.904989   0.000000   0.000000
  234       11.942994     11.943187   0.000000   0.000000
  235       12.056304     12.056946   0.000000   0.000000
  236       12.074835     12.074468   0.000000   0.000000
  237       12.163123     12.163710   0.000000   0.000000
  238       12.214240     12.214835   0.000000   0.000000
  239       12.281623     12.281188   0.000000   0.000000
  240       12.350533     12.349297   0.000000   0.000000
  241       12.441536     12.434513   0.000000   0.000000
  242       12.464587     12.464788   0.000000   0.000000
  243       12.546844     12.555918   0.000000   0.000000
  244       12.620212     12.616932   0.000000   0.000000
  245       12.678914     12.672588   0.000000   0.000000
  246       12.834334     12.858971   0.000000   0.000000
  247       12.877468     12.882588   0.000000   0.000000