       N       E                     dE             d eps       ncg     rms          rms(c)
DAV:   1     0.349570515277E+04    0.34957E+04   -0.15332E+05  8448   0.156E+03
DAV:   2     0.361355490011E+02   -0.34596E+04   -0.31160E+04  9048   0.436E+02
DAV:   3    -0.446648643026E+03   -0.48278E+03   -0.47614E+03 11408   0.146E+02
DAV:   4    -0.517000882794E+03   -0.70352E+02   -0.69597E+02 15112   0.477E+01
DAV:   5    -0.523892588875E+03   -0.68917E+01   -0.68866E+01 13424   0.125E+01    0.747E+01
RMM:   6    -0.465253174199E+03    0.58639E+02   -0.21183E+02 10078   0.211E+01    0.327E+01
RMM:   7    -0.478543498059E+03   -0.13290E+02   -0.47842E+01 13553   0.122E+01    0.176E+01
RMM:   8    -0.481105663929E+03   -0.25622E+01   -0.11739E+01 15120   0.570E+00    0.916E+00
RMM:   9    -0.481864694374E+03   -0.75903E+00   -0.51135E+00 13789   0.431E+00    0.289E+00
RMM:  10    -0.481974464691E+03   -0.10977E+00   -0.22802E+00 15155   0.284E+00    0.155E+00
RMM:  11    -0.482077302702E+03   -0.10284E+00   -0.13678E+00 15682   0.164E+00    0.129E+00
RMM:  12    -0.482150747415E+03   -0.73445E-01   -0.64472E-01 15996   0.108E+00    0.103E+00
RMM:  13    -0.482181641922E+03   -0.30895E-01   -0.27256E-01 15552   0.740E-01    0.456E-01
RMM:  14    -0.482195170380E+03   -0.13528E-01   -0.12296E-01 15954   0.532E-01    0.114E-01
RMM:  15    -0.482202636511E+03   -0.74661E-02   -0.69719E-02 16000   0.366E-01    0.979E-02
RMM:  16    -0.482206348889E+03   -0.37124E-02   -0.34140E-02 16000   0.260E-01    0.796E-02
RMM:  17    -0.482208167344E+03   -0.18185E-02   -0.18634E-02 15032   0.190E-01    0.289E-02
RMM:  18    -0.482209321013E+03   -0.11537E-02   -0.11268E-02 14208   0.143E-01    0.236E-02
RMM:  19    -0.482209981977E+03   -0.66096E-03   -0.61854E-03 14208   0.108E-01    0.237E-02
RMM:  20    -0.482210363421E+03   -0.38144E-03   -0.37860E-03 14207   0.818E-02    0.176E-02
RMM:  21    -0.482210601001E+03   -0.23758E-03   -0.23853E-03 14064   0.635E-02    0.122E-02
RMM:  22    -0.482210743189E+03   -0.14219E-03   -0.15207E-03 13596   0.500E-02    0.313E-03
RMM:  23    -0.482210854988E+03   -0.11180E-03   -0.10242E-03 12951   0.402E-02    0.719E-03
RMM:  24    -0.482210914314E+03   -0.59327E-04   -0.67439E-04 12120   0.326E-02    0.128E-03
RMM:  25    -0.482210963980E+03   -0.49665E-04   -0.46948E-04 12146   0.275E-02    0.203E-03
RMM:  26    -0.482210995570E+03   -0.31590E-04   -0.30981E-04 10380   0.229E-02    0.269E-03
RMM:  27    -0.482211015808E+03   -0.20238E-04   -0.22204E-04 10418   0.205E-02    0.219E-03
RMM:  28    -0.482211032642E+03   -0.16834E-04   -0.17317E-04 11027   0.187E-02    0.288E-03
RMM:  29    -0.482211043839E+03   -0.11197E-04   -0.11908E-04 10230   0.167E-02    0.320E-03
RMM:  30    -0.482211050513E+03   -0.66736E-05   -0.75404E-05  8956   0.154E-02
   1 F= -.48221105E+03 E0= -.48221105E+03  d E =0.000000E+00  mag=    -0.0000
