 running on    8 total cores
 distrk:  each k-point on    8 cores,    1 groups
 distr:  one band on    1 cores,    8 groups
 using from now: INCAR     
 vasp.6.1.2 22Jul20 (build Mar 20 2021 11:25:07) complex                        
  
 POSCAR found type information on POSCAR LiP 
 POSCAR found :  2 types and      16 ions
 scaLAPACK will be used
 -----------------------------------------------------------------------------
|                                                                             |
|           W    W    AA    RRRRR   N    N  II  N    N   GGGG   !!!           |
|           W    W   A  A   R    R  NN   N  II  NN   N  G    G  !!!           |
|           W    W  A    A  R    R  N N  N  II  N N  N  G       !!!           |
|           W WW W  AAAAAA  RRRRR   N  N N  II  N  N N  G  GGG   !            |
|           WW  WW  A    A  R   R   N   NN  II  N   NN  G    G                |
|           W    W  A    A  R    R  N    N  II  N    N   GGGG   !!!           |
|                                                                             |
|     The value NCORE = 6 specified in the INCAR file was overwritten,        |
|     because it was not compatible with the 8 processes available:           |
|     NCORE = 1                                                               |
|     was used instead, please check that this makes sense for your           |
|     machine.                                                                |
|                                                                             |
 -----------------------------------------------------------------------------

 -----------------------------------------------------------------------------
|                                                                             |
|           W    W    AA    RRRRR   N    N  II  N    N   GGGG   !!!           |
|           W    W   A  A   R    R  NN   N  II  NN   N  G    G  !!!           |
|           W    W  A    A  R    R  N N  N  II  N N  N  G       !!!           |
|           W WW W  AAAAAA  RRRRR   N  N N  II  N  N N  G  GGG   !            |
|           WW  WW  A    A  R   R   N   NN  II  N   NN  G    G                |
|           W    W  A    A  R    R  N    N  II  N    N   GGGG   !!!           |
|                                                                             |
|     For optimal performance we recommend to set                             |
|       NCORE = 4 - approx SQRT(number of cores).                             |
|     NCORE specifies how many cores store one orbital (NPAR=cpu/NCORE).      |
|     This setting can greatly improve the performance of VASP for DFT.       |
|     The default, NCORE=1 might be grossly inefficient on modern             |
|     multi-core architectures or massively parallel machines. Do your        |
|     own testing!!!!                                                         |
|     Unfortunately you need to use the default for GW and RPA                |
|     calculations (for HF NCORE is supported but not extensively tested      |
|     yet).                                                                   |
|                                                                             |
 -----------------------------------------------------------------------------

 LDA part: xc-table for Pade appr. of Perdew
 generate k-points for:    6    7    4
 POSCAR, INCAR and KPOINTS ok, starting setup
 FFT: planning ...
 WAVECAR not read
 entering main loop
       N       E                     dE             d eps       ncg     rms          rms(c)
DAV:   1     0.395143104492E+03    0.39514E+03   -0.25701E+04 16520   0.131E+03
DAV:   2    -0.365300252948E+01   -0.39880E+03   -0.36449E+03 18280   0.315E+02
DAV:   3    -0.556434669259E+02   -0.51990E+02   -0.51269E+02 23560   0.883E+01
DAV:   4    -0.631282294498E+02   -0.74848E+01   -0.74066E+01 29352   0.327E+01
DAV:   5    -0.638394153471E+02   -0.71119E+00   -0.71089E+00 23024   0.739E+00    0.211E+01
DAV:   6    -0.651387280013E+02   -0.12993E+01   -0.27854E+00 22136   0.647E+00    0.112E+01
DAV:   7    -0.664129796611E+02   -0.12743E+01   -0.72485E-01 20200   0.408E+00    0.592E+00
DAV:   8    -0.666471047970E+02   -0.23413E+00   -0.61519E-01 21440   0.288E+00    0.127E+00
DAV:   9    -0.666776866543E+02   -0.30582E-01   -0.81899E-02 24632   0.111E+00    0.509E-01
DAV:  10    -0.666813699459E+02   -0.36833E-02   -0.67832E-03 21184   0.377E-01    0.220E-01
DAV:  11    -0.666828400580E+02   -0.14701E-02   -0.19456E-03 20672   0.205E-01    0.102E-01
DAV:  12    -0.666831253612E+02   -0.28530E-03   -0.59876E-04 20936   0.101E-01    0.413E-02
DAV:  13    -0.666831711216E+02   -0.45760E-04   -0.95879E-05 19232   0.502E-02    0.205E-02
DAV:  14    -0.666831854489E+02   -0.14327E-04   -0.30494E-05 16832   0.283E-02    0.645E-03
DAV:  15    -0.666831870657E+02   -0.16168E-05   -0.41564E-06 12360   0.123E-02
   1 F= -.66683187E+02 E0= -.66683187E+02  d E =0.000000E+00  mag=    -0.0003
