       N       E                     dE             d eps       ncg     rms          rms(c)
DAV:   1     0.211161677530E+03    0.21116E+03   -0.17917E+04 37648   0.139E+03
DAV:   2    -0.414347574270E+02   -0.25260E+03   -0.24459E+03 46080   0.335E+02
DAV:   3    -0.588487410578E+02   -0.17414E+02   -0.17330E+02 62262   0.808E+01
DAV:   4    -0.598778718172E+02   -0.10291E+01   -0.10263E+01 56044   0.161E+01
DAV:   5    -0.599166323565E+02   -0.38761E-01   -0.38758E-01 56586   0.263E+00    0.299E+01
RMM:   6    -0.533209483323E+02    0.65957E+01   -0.20305E+01 41266   0.227E+01    0.136E+01
RMM:   7    -0.535778727108E+02   -0.25692E+00   -0.60195E+00 55066   0.134E+01    0.650E+00
RMM:   8    -0.536771287439E+02   -0.99256E-01   -0.59968E-01 60369   0.542E+00    0.344E+00
RMM:   9    -0.536823884058E+02   -0.52597E-02   -0.25338E-01 59253   0.341E+00    0.111E+00
RMM:  10    -0.536947289890E+02   -0.12341E-01   -0.12412E-01 66918   0.206E+00    0.374E-01
RMM:  11    -0.536992059409E+02   -0.44770E-02   -0.60664E-02 70224   0.116E+00    0.241E-01
RMM:  12    -0.537020335310E+02   -0.28276E-02   -0.24344E-02 72905   0.717E-01    0.199E-01
RMM:  13    -0.537031025697E+02   -0.10690E-02   -0.92447E-03 72414   0.435E-01    0.654E-02
RMM:  14    -0.537035019878E+02   -0.39942E-03   -0.33686E-03 71039   0.286E-01    0.412E-02
RMM:  15    -0.537036788997E+02   -0.17691E-03   -0.15668E-03 71057   0.187E-01    0.278E-02
RMM:  16    -0.537037447067E+02   -0.65807E-04   -0.62009E-04 69893   0.123E-01    0.159E-02
RMM:  17    -0.537037707462E+02   -0.26039E-04   -0.30326E-04 67809   0.868E-02    0.893E-03
RMM:  18    -0.537037878522E+02   -0.17106E-04   -0.12535E-04 58790   0.616E-02    0.517E-03
RMM:  19    -0.537037915016E+02   -0.36494E-05   -0.41852E-05 47694   0.480E-02
   1 F= -.53703792E+02 E0= -.53703792E+02  d E =0.000000E+00  mag=    -0.0000
