 running on    8 total cores
 distrk:  each k-point on    8 cores,    1 groups
 distr:  one band on    1 cores,    8 groups
 using from now: INCAR     
 vasp.6.1.2 22Jul20 (build Mar 20 2021 11:25:07) complex                        
  
 POSCAR found type information on POSCAR LiP O 
 POSCAR found :  3 types and      16 ions
 scaLAPACK will be used
 -----------------------------------------------------------------------------
|                                                                             |
|           W    W    AA    RRRRR   N    N  II  N    N   GGGG   !!!           |
|           W    W   A  A   R    R  NN   N  II  NN   N  G    G  !!!           |
|           W    W  A    A  R    R  N N  N  II  N N  N  G       !!!           |
|           W WW W  AAAAAA  RRRRR   N  N N  II  N  N N  G  GGG   !            |
|           WW  WW  A    A  R   R   N   NN  II  N   NN  G    G                |
|           W    W  A    A  R    R  N    N  II  N    N   GGGG   !!!           |
|                                                                             |
|     The value NCORE = 6 specified in the INCAR file was overwritten,        |
|     because it was not compatible with the 8 processes available:           |
|     NCORE = 1                                                               |
|     was used instead, please check that this makes sense for your           |
|     machine.                                                                |
|                                                                             |
 -----------------------------------------------------------------------------

 -----------------------------------------------------------------------------
|                                                                             |
|           W    W    AA    RRRRR   N    N  II  N    N   GGGG   !!!           |
|           W    W   A  A   R    R  NN   N  II  NN   N  G    G  !!!           |
|           W    W  A    A  R    R  N N  N  II  N N  N  G       !!!           |
|           W WW W  AAAAAA  RRRRR   N  N N  II  N  N N  G  GGG   !            |
|           WW  WW  A    A  R   R   N   NN  II  N   NN  G    G                |
|           W    W  A    A  R    R  N    N  II  N    N   GGGG   !!!           |
|                                                                             |
|     For optimal performance we recommend to set                             |
|       NCORE = 4 - approx SQRT(number of cores).                             |
|     NCORE specifies how many cores store one orbital (NPAR=cpu/NCORE).      |
|     This setting can greatly improve the performance of VASP for DFT.       |
|     The default, NCORE=1 might be grossly inefficient on modern             |
|     multi-core architectures or massively parallel machines. Do your        |
|     own testing!!!!                                                         |
|     Unfortunately you need to use the default for GW and RPA                |
|     calculations (for HF NCORE is supported but not extensively tested      |
|     yet).                                                                   |
|                                                                             |
 -----------------------------------------------------------------------------

 LDA part: xc-table for Pade appr. of Perdew
 generate k-points for:    7    6    5
 POSCAR, INCAR and KPOINTS ok, starting setup
 FFT: planning ...
 WAVECAR not read
 entering main loop
       N       E                     dE             d eps       ncg     rms          rms(c)
DAV:   1     0.602646613243E+03    0.60265E+03   -0.36411E+04 14784   0.142E+03
DAV:   2    -0.451464788038E+02   -0.64779E+03   -0.61145E+03 16888   0.373E+02
DAV:   3    -0.103129420384E+03   -0.57983E+02   -0.57649E+02 20496   0.105E+02
DAV:   4    -0.108487969534E+03   -0.53585E+01   -0.53254E+01 25072   0.263E+01
DAV:   5    -0.108962713026E+03   -0.47474E+00   -0.47457E+00 20768   0.545E+00    0.372E+01
RMM:   6    -0.991130716078E+02    0.98496E+01   -0.38193E+01 16149   0.219E+01    0.148E+01
RMM:   7    -0.100164325106E+03   -0.10513E+01   -0.38411E+00 21270   0.752E+00    0.792E+00
RMM:   8    -0.100364996372E+03   -0.20067E+00   -0.86355E-01 23666   0.391E+00    0.397E+00
RMM:   9    -0.100438211599E+03   -0.73215E-01   -0.31636E-01 24019   0.280E+00    0.774E-01
RMM:  10    -0.100466355714E+03   -0.28144E-01   -0.22037E-01 27577   0.161E+00    0.360E-01
RMM:  11    -0.100480246990E+03   -0.13891E-01   -0.96648E-02 28240   0.988E-01    0.281E-01
RMM:  12    -0.100486265398E+03   -0.60184E-02   -0.38849E-02 28653   0.610E-01    0.165E-01
RMM:  13    -0.100488395619E+03   -0.21302E-02   -0.14861E-02 27983   0.410E-01    0.729E-02
RMM:  14    -0.100489317705E+03   -0.92209E-03   -0.75777E-03 28470   0.287E-01    0.314E-02
RMM:  15    -0.100489682572E+03   -0.36487E-03   -0.33120E-03 27876   0.179E-01    0.267E-02
RMM:  16    -0.100489840663E+03   -0.15809E-03   -0.14797E-03 27485   0.118E-01    0.163E-02
RMM:  17    -0.100489909716E+03   -0.69052E-04   -0.60027E-04 26871   0.807E-02    0.114E-02
RMM:  18    -0.100489939629E+03   -0.29914E-04   -0.28889E-04 26163   0.535E-02    0.105E-02
RMM:  19    -0.100489950702E+03   -0.11073E-04   -0.96253E-05 22365   0.367E-02    0.125E-02
RMM:  20    -0.100489956406E+03   -0.57039E-05   -0.41047E-05 20591   0.300E-02
   1 F= -.10048996E+03 E0= -.10048996E+03  d E =0.000000E+00  mag=     0.0000
