   26   26    1    2
  0.1053463E+02  0.5108240E-09  0.7020794E-09  0.8417184E-09  0.5000000E-15
  1.000000000000000E-004
  CAR 
 unknown system                          
    128     71     88
 
  0.0000000E+00  0.0000000E+00  0.0000000E+00  0.7142857E-02
    1      -41.217017    -41.217052   1.000000   1.000000
    2      -41.216054    -41.216089   1.000000   1.000000
    3      -41.031922    -41.031996   1.000000   1.000000
    4      -41.029345    -41.029419   1.000000   1.000000
    5      -40.996348    -40.996425   1.000000   1.000000
    6      -40.979916    -40.979994   1.000000   1.000000
    7      -40.931781    -40.931827   1.000000   1.000000
    8      -40.931724    -40.931770   1.000000   1.000000
    9      -20.066967    -20.066960   1.000000   1.000000
   10      -19.999041    -19.999036   1.000000   1.000000
   11      -18.718148    -18.718145   1.000000   1.000000
   12      -18.679321    -18.679316   1.000000   1.000000
   13      -17.335937    -17.335935   1.000000   1.000000
   14      -17.255381    -17.255381   1.000000   1.000000
   15      -16.686663    -16.686667   1.000000   1.000000
   16      -16.649175    -16.649179   1.000000   1.000000
   17      -16.470823    -16.470829   1.000000   1.000000
   18      -16.459394    -16.459400   1.000000   1.000000
   19      -16.406820    -16.406828   1.000000   1.000000
   20      -16.388716    -16.388725   1.000000   1.000000
   21      -16.337372    -16.337380   1.000000   1.000000
   22      -16.333443    -16.333451   1.000000   1.000000
   23       -8.288240     -8.288234   1.000000   1.000000
   24       -8.250847     -8.250841   1.000000   1.000000
   25       -5.563308     -5.563251   1.000000   1.000000
   26       -5.090951     -5.090918   1.000000   1.000000
   27       -4.673441     -4.673402   1.000000   1.000000
   28       -4.536818     -4.536791   1.000000   1.000000
   29       -4.304291     -4.304267   1.000000   1.000000
   30       -4.114111     -4.114087   1.000000   1.000000
   31       -3.972596     -3.972579   1.000000   1.000000
   32       -3.958936     -3.958922   1.000000   1.000000
   33       -3.502986     -3.502959   1.000000   1.000000
   34       -3.414559     -3.414528   1.000000   1.000000
   35       -3.351527     -3.351503   1.000000   1.000000
   36       -3.199300     -3.199279   1.000000   1.000000
   37       -2.825196     -2.825171   1.000000   1.000000
   38       -2.528450     -2.528431   1.000000   1.000000
   39       -2.186044     -2.186034   1.000000   1.000000
   40       -1.900805     -1.900800   1.000000   1.000000
   41       -1.884685     -1.884682   1.000000   1.000000
   42       -1.578297     -1.578285   1.000000   1.000000
   43       -1.536609     -1.536585   1.000000   1.000000
   44       -1.329791     -1.329780   1.000000   1.000000
   45       -1.198739     -1.198737   1.000000   1.000000
   46       -1.126613     -1.126612   1.000000   1.000000
   47       -1.078154     -1.078151   1.000000   1.000000
   48       -0.857338     -0.857335   1.000000   1.000000
   49       -0.712789     -0.712785   1.000000   1.000000
   50       -0.671750     -0.671744   1.000000   1.000000
   51       -0.622798     -0.622797   1.000000   1.000000
   52       -0.346288     -0.346286   1.000000   1.000000
   53       -0.226517     -0.226517   1.000000   1.000000
   54        0.033345      0.033351   1.000000   1.000000
   55        0.137930      0.137923   1.000000   1.000000
   56        0.139294      0.139287   1.000000   1.000000
   57        0.304855      0.304850   1.000000   1.000000
   58        0.381723      0.381758   1.000000   1.000000
   59        0.395980      0.395995   1.000000   1.000000
   60        0.525239      0.525250   1.000000   1.000000
   61        0.602650      0.602659   1.000000   1.000000
   62        0.665921      0.665916   1.000000   1.000000
   63        0.900313      0.900310   1.000000   1.000000
   64        0.919588      0.919590   1.000000   1.000000
   65        7.077383      7.077418   0.000002   0.000002
   66        9.395926      9.395914   0.000000   0.000000
   67        9.403009      9.403008   0.000000   0.000000
   68        9.801426      9.801424   0.000000   0.000000
   69        9.843361      9.843387   0.000000   0.000000
   70        9.967059      9.967086   0.000000   0.000000
   71       10.272384     10.272412   0.000000   0.000000
   72       10.323261     10.323268   0.000000   0.000000
   73       10.649890     10.649903   0.000000   0.000000
   74       10.856095     10.856108   0.000000   0.000000
   75       10.959468     10.959491   0.000000   0.000000
   76       11.280691     11.280741   0.000000   0.000000
   77       11.428047     11.428050   0.000000   0.000000
   78       11.467015     11.467037   0.000000   0.000000
   79       11.849412     11.849446   0.000000   0.000000
   80       11.873065     11.873107   0.000000   0.000000
   81       12.109357     12.109367   0.000000   0.000000
   82       12.134031     12.134036   0.000000   0.000000
   83       12.456624     12.456641   0.000000   0.000000
   84       12.497355     12.497374   0.000000   0.000000
   85       12.628138     12.628152   0.000000   0.000000
   86       12.883526     12.883609   0.000000   0.000000
   87       13.077420     13.077478   0.000000   0.000000
   88       13.150729     13.150387   0.000000   0.000000
 
  0.1428571E+00 -0.3955297E-17  0.3303059E-14  0.1428571E-01
    1      -41.216987    -41.217021   1.000000   1.000000
    2      -41.216033    -41.216068   1.000000   1.000000
    3      -41.031799    -41.031873   1.000000   1.000000
    4      -41.029259    -41.029333   1.000000   1.000000
    5      -40.996316    -40.996393   1.000000   1.000000
    6      -40.980031    -40.980108   1.000000   1.000000
    7      -40.931815    -40.931860   1.000000   1.000000
    8      -40.931723    -40.931769   1.000000   1.000000
    9      -20.061241    -20.061235   1.000000   1.000000
   10      -19.999651    -19.999645   1.000000   1.000000
   11      -18.716364    -18.716361   1.000000   1.000000
   12      -18.681263    -18.681259   1.000000   1.000000
   13      -17.328851    -17.328848   1.000000   1.000000
   14      -17.256676    -17.256675   1.000000   1.000000
   15      -16.683625    -16.683629   1.000000   1.000000
   16      -16.648783    -16.648787   1.000000   1.000000
   17      -16.479663    -16.479669   1.000000   1.000000
   18      -16.466078    -16.466084   1.000000   1.000000
   19      -16.409539    -16.409547   1.000000   1.000000
   20      -16.392014    -16.392023   1.000000   1.000000
   21      -16.342062    -16.342070   1.000000   1.000000
   22      -16.336514    -16.336522   1.000000   1.000000
   23       -8.294476     -8.294470   1.000000   1.000000
   24       -8.257452     -8.257446   1.000000   1.000000
   25       -5.543686     -5.543632   1.000000   1.000000
   26       -5.090191     -5.090159   1.000000   1.000000
   27       -4.664704     -4.664668   1.000000   1.000000
   28       -4.520623     -4.520597   1.000000   1.000000
   29       -4.282774     -4.282749   1.000000   1.000000
   30       -4.105902     -4.105878   1.000000   1.000000
   31       -3.964441     -3.964426   1.000000   1.000000
   32       -3.913132     -3.913114   1.000000   1.000000
   33       -3.444756     -3.444728   1.000000   1.000000
   34       -3.414162     -3.414128   1.000000   1.000000
   35       -3.295778     -3.295756   1.000000   1.000000
   36       -3.169016     -3.168994   1.000000   1.000000
   37       -2.822456     -2.822429   1.000000   1.000000
   38       -2.480908     -2.480890   1.000000   1.000000
   39       -2.149830     -2.149821   1.000000   1.000000
   40       -1.939962     -1.939957   1.000000   1.000000
   41       -1.866421     -1.866417   1.000000   1.000000
   42       -1.642840     -1.642823   1.000000   1.000000
   43       -1.552010     -1.551990   1.000000   1.000000
   44       -1.307021     -1.307012   1.000000   1.000000
   45       -1.237725     -1.237718   1.000000   1.000000
   46       -1.098313     -1.098312   1.000000   1.000000
   47       -1.070941     -1.070937   1.000000   1.000000
   48       -0.879409     -0.879406   1.000000   1.000000
   49       -0.788286     -0.788281   1.000000   1.000000
   50       -0.748892     -0.748889   1.000000   1.000000
   51       -0.692447     -0.692440   1.000000   1.000000
   52       -0.389851     -0.389850   1.000000   1.000000
   53       -0.198108     -0.198107   1.000000   1.000000
   54        0.012168      0.012175   1.000000   1.000000
   55        0.106182      0.106173   1.000000   1.000000
   56        0.136194      0.136189   1.000000   1.000000
   57        0.267434      0.267430   1.000000   1.000000
   58        0.336683      0.336707   1.000000   1.000000
   59        0.430748      0.430762   1.000000   1.000000
   60        0.521033      0.521042   1.000000   1.000000
   61        0.620786      0.620797   1.000000   1.000000
   62        0.671742      0.671738   1.000000   1.000000
   63        0.892321      0.892317   1.000000   1.000000
   64        0.932287      0.932289   1.000000   1.000000
   65        7.277466      7.277497  -0.000000  -0.000000
   66        9.292289      9.292285   0.000000   0.000000
   67        9.396186      9.396176   0.000000   0.000000
   68        9.731795      9.731812   0.000000   0.000000
   69        9.761524      9.761529   0.000000   0.000000
   70       10.037216     10.037236   0.000000   0.000000
   71       10.201849     10.201865   0.000000   0.000000
   72       10.547160     10.547177   0.000000   0.000000
   73       10.708142     10.708157   0.000000   0.000000
   74       10.920727     10.920739   0.000000   0.000000
   75       10.973407     10.973429   0.000000   0.000000
   76       11.199778     11.199808   0.000000   0.000000
   77       11.301454     11.301478   0.000000   0.000000
   78       11.486055     11.486066   0.000000   0.000000
   79       11.587388     11.587404   0.000000   0.000000
   80       11.822022     11.822049   0.000000   0.000000
   81       11.951151     11.951173   0.000000   0.000000
   82       11.967212     11.967235   0.000000   0.000000
   83       12.212566     12.212595   0.000000   0.000000
   84       12.506796     12.506824   0.000000   0.000000
   85       12.752319     12.752353   0.000000   0.000000
   86       12.846356     12.846402   0.000000   0.000000
   87       12.973571     12.973565   0.000000   0.000000
   88       13.329846     13.328783   0.000000   0.000000
 
  0.2857143E+00  0.3281586E-16  0.6617662E-14  0.1428571E-01
    1      -41.216934    -41.216968   1.000000   1.000000
    2      -41.216017    -41.216052   1.000000   1.000000
    3      -41.031530    -41.031605   1.000000   1.000000
    4      -41.029109    -41.029183   1.000000   1.000000
    5      -40.996262    -40.996339   1.000000   1.000000
    6      -40.980309    -40.980387   1.000000   1.000000
    7      -40.931907    -40.931953   1.000000   1.000000
    8      -40.931752    -40.931798   1.000000   1.000000
    9      -20.046772    -20.046766   1.000000   1.000000
   10      -20.002679    -20.002674   1.000000   1.000000
   11      -18.711968    -18.711965   1.000000   1.000000
   12      -18.686144    -18.686140   1.000000   1.000000
   13      -17.310942    -17.310940   1.000000   1.000000
   14      -17.261509    -17.261508   1.000000   1.000000
   15      -16.675942    -16.675946   1.000000   1.000000
   16      -16.648122    -16.648126   1.000000   1.000000
   17      -16.499042    -16.499047   1.000000   1.000000
   18      -16.483213    -16.483218   1.000000   1.000000
   19      -16.414764    -16.414772   1.000000   1.000000
   20      -16.400204    -16.400212   1.000000   1.000000
   21      -16.351320    -16.351327   1.000000   1.000000
   22      -16.344407    -16.344414   1.000000   1.000000
   23       -8.308286     -8.308280   1.000000   1.000000
   24       -8.272726     -8.272720   1.000000   1.000000
   25       -5.498262     -5.498216   1.000000   1.000000
   26       -5.092571     -5.092539   1.000000   1.000000
   27       -4.632957     -4.632927   1.000000   1.000000
   28       -4.497624     -4.497600   1.000000   1.000000
   29       -4.241849     -4.241821   1.000000   1.000000
   30       -4.092518     -4.092494   1.000000   1.000000
   31       -3.898339     -3.898325   1.000000   1.000000
   32       -3.830665     -3.830645   1.000000   1.000000
   33       -3.457353     -3.457314   1.000000   1.000000
   34       -3.261306     -3.261277   1.000000   1.000000
   35       -3.162749     -3.162721   1.000000   1.000000
   36       -3.072280     -3.072258   1.000000   1.000000
   37       -2.801381     -2.801349   1.000000   1.000000
   38       -2.392906     -2.392890   1.000000   1.000000
   39       -2.094751     -2.094742   1.000000   1.000000
   40       -1.951500     -1.951489   1.000000   1.000000
   41       -1.874196     -1.874187   1.000000   1.000000
   42       -1.718522     -1.718507   1.000000   1.000000
   43       -1.569649     -1.569634   1.000000   1.000000
   44       -1.365653     -1.365643   1.000000   1.000000
   45       -1.263993     -1.263982   1.000000   1.000000
   46       -1.145129     -1.145125   1.000000   1.000000
   47       -1.138760     -1.138753   1.000000   1.000000
   48       -0.991859     -0.991852   1.000000   1.000000
   49       -0.904862     -0.904851   1.000000   1.000000
   50       -0.861056     -0.861052   1.000000   1.000000
   51       -0.770604     -0.770596   1.000000   1.000000
   52       -0.488179     -0.488179   1.000000   1.000000
   53       -0.153420     -0.153417   1.000000   1.000000
   54       -0.038587     -0.038582   1.000000   1.000000
   55        0.030302      0.030293   1.000000   1.000000
   56        0.108307      0.108302   1.000000   1.000000
   57        0.219005      0.219005   1.000000   1.000000
   58        0.289140      0.289153   1.000000   1.000000
   59        0.443912      0.443920   1.000000   1.000000
   60        0.502158      0.502162   1.000000   1.000000
   61        0.669109      0.669113   1.000000   1.000000
   62        0.685607      0.685603   1.000000   1.000000
   63        0.894427      0.894424   1.000000   1.000000
   64        0.944352      0.944352   1.000000   1.000000
   65        7.785156      7.785177   0.000000   0.000000
   66        9.190425      9.190423   0.000000   0.000000
   67        9.360269      9.360260   0.000000   0.000000
   68        9.576273      9.576280   0.000000   0.000000
   69        9.837206      9.837207   0.000000   0.000000
   70       10.006890     10.006902   0.000000   0.000000
   71       10.313053     10.313059   0.000000   0.000000
   72       10.543189     10.543220   0.000000   0.000000
   73       10.607059     10.607077   0.000000   0.000000
   74       10.752957     10.752955   0.000000   0.000000
   75       10.947122     10.947143   0.000000   0.000000
   76       11.048435     11.048446   0.000000   0.000000
   77       11.226049     11.226066   0.000000   0.000000
   78       11.323368     11.323378   0.000000   0.000000
   79       11.479995     11.480023   0.000000   0.000000
   80       11.661561     11.661601   0.000000   0.000000
   81       11.746446     11.746466   0.000000   0.000000
   82       11.863226     11.863251   0.000000   0.000000
   83       12.095923     12.095973   0.000000   0.000000
   84       12.430201     12.430225   0.000000   0.000000
   85       12.652741     12.652766   0.000000   0.000000
   86       12.888167     12.888209   0.000000   0.000000
   87       13.196004     13.196203   0.000000   0.000000
   88       13.481495     13.469985   0.000000   0.000000
 
  0.4285714E+00 -0.6109014E-16 -0.4271439E-14  0.1428571E-01
    1      -41.216893    -41.216928   1.000000   1.000000
    2      -41.216007    -41.216042   1.000000   1.000000
    3      -41.031308    -41.031383   1.000000   1.000000
    4      -41.028992    -41.029067   1.000000   1.000000
    5      -40.996219    -40.996295   1.000000   1.000000
    6      -40.980545    -40.980622   1.000000   1.000000
    7      -40.931977    -40.932023   1.000000   1.000000
    8      -40.931784    -40.931830   1.000000   1.000000
    9      -20.030801    -20.030795   1.000000   1.000000
   10      -20.009412    -20.009407   1.000000   1.000000
   11      -18.707516    -18.707512   1.000000   1.000000
   12      -18.691036    -18.691033   1.000000   1.000000
   13      -17.289812    -17.289811   1.000000   1.000000
   14      -17.271960    -17.271960   1.000000   1.000000
   15      -16.668293    -16.668296   1.000000   1.000000
   16      -16.648008    -16.648013   1.000000   1.000000
   17      -16.514621    -16.514624   1.000000   1.000000
   18      -16.498568    -16.498574   1.000000   1.000000
   19      -16.416332    -16.416339   1.000000   1.000000
   20      -16.409507    -16.409515   1.000000   1.000000
   21      -16.359380    -16.359387   1.000000   1.000000
   22      -16.349732    -16.349739   1.000000   1.000000
   23       -8.319161     -8.319155   1.000000   1.000000
   24       -8.285378     -8.285372   1.000000   1.000000
   25       -5.458524     -5.458486   1.000000   1.000000
   26       -5.101781     -5.101747   1.000000   1.000000
   27       -4.594764     -4.594740   1.000000   1.000000
   28       -4.492535     -4.492512   1.000000   1.000000
   29       -4.216312     -4.216283   1.000000   1.000000
   30       -4.088004     -4.087978   1.000000   1.000000
   31       -3.801536     -3.801523   1.000000   1.000000
   32       -3.760762     -3.760740   1.000000   1.000000
   33       -3.497378     -3.497335   1.000000   1.000000
   34       -3.138658     -3.138628   1.000000   1.000000
   35       -3.044558     -3.044526   1.000000   1.000000
   36       -2.934469     -2.934447   1.000000   1.000000
   37       -2.766072     -2.766036   1.000000   1.000000
   38       -2.345194     -2.345178   1.000000   1.000000
   39       -2.086219     -2.086206   1.000000   1.000000
   40       -1.892270     -1.892264   1.000000   1.000000
   41       -1.851200     -1.851183   1.000000   1.000000
   42       -1.782771     -1.782757   1.000000   1.000000
   43       -1.578869     -1.578860   1.000000   1.000000
   44       -1.477958     -1.477947   1.000000   1.000000
   45       -1.371977     -1.371964   1.000000   1.000000
   46       -1.310124     -1.310112   1.000000   1.000000
   47       -1.214630     -1.214622   1.000000   1.000000
   48       -1.057417     -1.057407   1.000000   1.000000
   49       -0.940086     -0.940072   1.000000   1.000000
   50       -0.888878     -0.888869   1.000000   1.000000
   51       -0.759830     -0.759830   1.000000   1.000000
   52       -0.602320     -0.602319   1.000000   1.000000
   53       -0.139645     -0.139639   1.000000   1.000000
   54       -0.077152     -0.077155   1.000000   1.000000
   55       -0.025393     -0.025398   1.000000   1.000000
   56        0.075397      0.075391   1.000000   1.000000
   57        0.209310      0.209311   1.000000   1.000000
   58        0.244102      0.244107   1.000000   1.000000
   59        0.442045      0.442052   1.000000   1.000000
   60        0.503228      0.503227   1.000000   1.000000
   61        0.686080      0.686073   1.000000   1.000000
   62        0.701630      0.701628   1.000000   1.000000
   63        0.917347      0.917344   1.000000   1.000000
   64        0.940874      0.940872   1.000000   1.000000
   65        8.326227      8.326233   0.000000   0.000000
   66        9.131533      9.131544   0.000000   0.000000
   67        9.451916      9.451909   0.000000   0.000000
   68        9.617603      9.617593   0.000000   0.000000
   69        9.814735      9.814736   0.000000   0.000000
   70        9.945578      9.945574   0.000000   0.000000
   71       10.097161     10.097164   0.000000   0.000000
   72       10.329987     10.329979   0.000000   0.000000
   73       10.483172     10.483193   0.000000   0.000000
   74       10.581317     10.581351   0.000000   0.000000
   75       10.722265     10.722297   0.000000   0.000000
   76       10.825663     10.825681   0.000000   0.000000
   77       11.207352     11.207365   0.000000   0.000000
   78       11.406009     11.406019   0.000000   0.000000
   79       11.500621     11.500658   0.000000   0.000000
   80       11.631704     11.631731   0.000000   0.000000
   81       11.774187     11.774231   0.000000   0.000000
   82       11.899913     11.899931   0.000000   0.000000
   83       12.063682     12.063729   0.000000   0.000000
   84       12.384623     12.384636   0.000000   0.000000
   85       12.590123     12.590150   0.000000   0.000000
   86       12.972537     12.972597   0.000000   0.000000
   87       13.431411     13.425444   0.000000   0.000000
   88       13.755539     13.679444   0.000000   0.000000
 
 -0.1302459E-20  0.2000000E+00 -0.3229932E-14  0.1428571E-01
    1      -41.216926    -41.216961   1.000000   1.000000
    2      -41.216140    -41.216175   1.000000   1.000000
    3      -41.031895    -41.031969   1.000000   1.000000
    4      -41.029334    -41.029408   1.000000   1.000000
    5      -40.996367    -40.996444   1.000000   1.000000
    6      -40.979959    -40.980037   1.000000   1.000000
    7      -40.931774    -40.931820   1.000000   1.000000
    8      -40.931702    -40.931748   1.000000   1.000000
    9      -20.057160    -20.057153   1.000000   1.000000
   10      -20.003931    -20.003926   1.000000   1.000000
   11      -18.714697    -18.714692   1.000000   1.000000
   12      -18.700346    -18.700342   1.000000   1.000000
   13      -17.315534    -17.315532   1.000000   1.000000
   14      -17.265774    -17.265773   1.000000   1.000000
   15      -16.694186    -16.694189   1.000000   1.000000
   16      -16.633371    -16.633376   1.000000   1.000000
   17      -16.472826    -16.472832   1.000000   1.000000
   18      -16.462317    -16.462322   1.000000   1.000000
   19      -16.404884    -16.404892   1.000000   1.000000
   20      -16.389383    -16.389392   1.000000   1.000000
   21      -16.337986    -16.337994   1.000000   1.000000
   22      -16.330214    -16.330222   1.000000   1.000000
   23       -8.291533     -8.291526   1.000000   1.000000
   24       -8.279289     -8.279283   1.000000   1.000000
   25       -5.550477     -5.550422   1.000000   1.000000
   26       -5.070630     -5.070598   1.000000   1.000000
   27       -4.675156     -4.675117   1.000000   1.000000
   28       -4.523595     -4.523567   1.000000   1.000000
   29       -4.294087     -4.294062   1.000000   1.000000
   30       -4.079540     -4.079517   1.000000   1.000000
   31       -3.984327     -3.984311   1.000000   1.000000
   32       -3.970263     -3.970247   1.000000   1.000000
   33       -3.508283     -3.508252   1.000000   1.000000
   34       -3.491414     -3.491389   1.000000   1.000000
   35       -3.346950     -3.346930   1.000000   1.000000
   36       -3.143969     -3.143946   1.000000   1.000000
   37       -2.795632     -2.795607   1.000000   1.000000
   38       -2.552731     -2.552712   1.000000   1.000000
   39       -2.048758     -2.048749   1.000000   1.000000
   40       -1.899914     -1.899907   1.000000   1.000000
   41       -1.895879     -1.895876   1.000000   1.000000
   42       -1.760222     -1.760213   1.000000   1.000000
   43       -1.603431     -1.603405   1.000000   1.000000
   44       -1.283025     -1.283019   1.000000   1.000000
   45       -1.207684     -1.207677   1.000000   1.000000
   46       -1.058382     -1.058380   1.000000   1.000000
   47       -0.921963     -0.921958   1.000000   1.000000
   48       -0.886050     -0.886046   1.000000   1.000000
   49       -0.720791     -0.720789   1.000000   1.000000
   50       -0.682782     -0.682777   1.000000   1.000000
   51       -0.649453     -0.649452   1.000000   1.000000
   52       -0.437858     -0.437857   1.000000   1.000000
   53       -0.235972     -0.235970   1.000000   1.000000
   54        0.021285      0.021288   1.000000   1.000000
   55        0.096424      0.096420   1.000000   1.000000
   56        0.153207      0.153204   1.000000   1.000000
   57        0.293871      0.293872   1.000000   1.000000
   58        0.376986      0.377007   1.000000   1.000000
   59        0.436819      0.436840   1.000000   1.000000
   60        0.504932      0.504946   1.000000   1.000000
   61        0.601163      0.601168   1.000000   1.000000
   62        0.689413      0.689410   1.000000   1.000000
   63        0.879953      0.879953   1.000000   1.000000
   64        0.918224      0.918224   1.000000   1.000000
   65        7.311532      7.311563  -0.000000  -0.000000
   66        9.066409      9.066393   0.000000   0.000000
   67        9.353454      9.353461   0.000000   0.000000
   68        9.737536      9.737544   0.000000   0.000000
   69        9.942175      9.942201   0.000000   0.000000
   70       10.067147     10.067165   0.000000   0.000000
   71       10.279677     10.279696   0.000000   0.000000
   72       10.406918     10.406939   0.000000   0.000000
   73       10.666066     10.666071   0.000000   0.000000
   74       10.751582     10.751599   0.000000   0.000000
   75       10.978876     10.978898   0.000000   0.000000
   76       11.254484     11.254519   0.000000   0.000000
   77       11.317623     11.317637   0.000000   0.000000
   78       11.614346     11.614372   0.000000   0.000000
   79       11.720831     11.720845   0.000000   0.000000
   80       11.974797     11.974827   0.000000   0.000000
   81       12.127047     12.127078   0.000000   0.000000
   82       12.290169     12.290177   0.000000   0.000000
   83       12.387163     12.387187   0.000000   0.000000
   84       12.489021     12.489044   0.000000   0.000000
   85       12.710595     12.710652   0.000000   0.000000
   86       12.946182     12.945437   0.000000   0.000000
   87       13.053616     13.047770   0.000000   0.000000
   88       13.208678     13.181229   0.000000   0.000000
 
  0.1428571E+00  0.2000000E+00  0.9796778E-16  0.1428571E-01
    1      -41.216896    -41.216931   1.000000   1.000000
    2      -41.216144    -41.216178   1.000000   1.000000
    3      -41.031764    -41.031838   1.000000   1.000000
    4      -41.029279    -41.029353   1.000000   1.000000
    5      -40.996327    -40.996404   1.000000   1.000000
    6      -40.980127    -40.980205   1.000000   1.000000
    7      -40.931822    -40.931868   1.000000   1.000000
    8      -40.931696    -40.931742   1.000000   1.000000
    9      -20.046670    -20.046664   1.000000   1.000000
   10      -20.006912    -20.006907   1.000000   1.000000
   11      -18.730204    -18.730199   1.000000   1.000000
   12      -18.692665    -18.692661   1.000000   1.000000
   13      -17.299430    -17.299428   1.000000   1.000000
   14      -17.272753    -17.272752   1.000000   1.000000
   15      -16.690154    -16.690157   1.000000   1.000000
   16      -16.629562    -16.629567   1.000000   1.000000
   17      -16.486666    -16.486672   1.000000   1.000000
   18      -16.465922    -16.465928   1.000000   1.000000
   19      -16.404815    -16.404823   1.000000   1.000000
   20      -16.395163    -16.395171   1.000000   1.000000
   21      -16.342430    -16.342438   1.000000   1.000000
   22      -16.332614    -16.332622   1.000000   1.000000
   23       -8.320112     -8.320104   1.000000   1.000000
   24       -8.279862     -8.279855   1.000000   1.000000
   25       -5.529591     -5.529540   1.000000   1.000000
   26       -5.047492     -5.047461   1.000000   1.000000
   27       -4.662460     -4.662424   1.000000   1.000000
   28       -4.505720     -4.505693   1.000000   1.000000
   29       -4.275506     -4.275480   1.000000   1.000000
   30       -4.062287     -4.062264   1.000000   1.000000
   31       -3.971719     -3.971697   1.000000   1.000000
   32       -3.964116     -3.964103   1.000000   1.000000
   33       -3.527440     -3.527408   1.000000   1.000000
   34       -3.401037     -3.401012   1.000000   1.000000
   35       -3.263790     -3.263768   1.000000   1.000000
   36       -3.142869     -3.142844   1.000000   1.000000
   37       -2.759868     -2.759840   1.000000   1.000000
   38       -2.500976     -2.500959   1.000000   1.000000
   39       -2.005684     -2.005676   1.000000   1.000000
   40       -1.939859     -1.939851   1.000000   1.000000
   41       -1.853762     -1.853755   1.000000   1.000000
   42       -1.781421     -1.781412   1.000000   1.000000
   43       -1.653887     -1.653862   1.000000   1.000000
   44       -1.320226     -1.320220   1.000000   1.000000
   45       -1.180896     -1.180885   1.000000   1.000000
   46       -1.082126     -1.082124   1.000000   1.000000
   47       -0.920927     -0.920922   1.000000   1.000000
   48       -0.880593     -0.880588   1.000000   1.000000
   49       -0.798517     -0.798514   1.000000   1.000000
   50       -0.785420     -0.785417   1.000000   1.000000
   51       -0.700853     -0.700849   1.000000   1.000000
   52       -0.521728     -0.521728   1.000000   1.000000
   53       -0.198365     -0.198360   1.000000   1.000000
   54       -0.014194     -0.014191   1.000000   1.000000
   55        0.045242      0.045236   1.000000   1.000000
   56        0.155040      0.155040   1.000000   1.000000
   57        0.266910      0.266911   1.000000   1.000000
   58        0.327656      0.327671   1.000000   1.000000
   59        0.457006      0.457018   1.000000   1.000000
   60        0.521365      0.521383   1.000000   1.000000
   61        0.637901      0.637905   1.000000   1.000000
   62        0.670793      0.670790   1.000000   1.000000
   63        0.864361      0.864359   1.000000   1.000000
   64        0.935421      0.935421   1.000000   1.000000
   65        7.635179      7.635203   0.000000   0.000000
   66        8.940759      8.940743   0.000000   0.000000
   67        9.154410      9.154417   0.000000   0.000000