       N       E                     dE             d eps       ncg     rms          rms(c)
DAV:   1     0.111368647943E+04    0.11137E+04   -0.62675E+04 24992   0.151E+03
DAV:   2    -0.664582219212E+02   -0.11801E+04   -0.11057E+04 28984   0.395E+02
DAV:   3    -0.174720039098E+03   -0.10826E+03   -0.10759E+03 32392   0.122E+02
DAV:   4    -0.184652290221E+03   -0.99323E+01   -0.98882E+01 47576   0.290E+01
DAV:   5    -0.185960686218E+03   -0.13084E+01   -0.13080E+01 33816   0.619E+00    0.548E+01
DAV:   6    -0.165205558733E+03    0.20755E+02   -0.84475E+01 31328   0.315E+01    0.275E+01
DAV:   7    -0.167142726106E+03   -0.19372E+01   -0.75837E+00 33240   0.888E+00    0.976E+00
DAV:   8    -0.167401532498E+03   -0.25881E+00   -0.85218E-01 33608   0.361E+00    0.476E+00
DAV:   9    -0.167529681131E+03   -0.12815E+00   -0.15749E-01 34024   0.165E+00    0.180E+00
DAV:  10    -0.167549703408E+03   -0.20022E-01   -0.47783E-02 31328   0.105E+00    0.556E-01
DAV:  11    -0.167560525165E+03   -0.10822E-01   -0.12459E-02 30440   0.469E-01    0.316E-01
DAV:  12    -0.167562812474E+03   -0.22873E-02   -0.17414E-03 32240   0.193E-01    0.160E-01
DAV:  13    -0.167563774172E+03   -0.96170E-03   -0.98861E-04 29296   0.123E-01    0.473E-02
DAV:  14    -0.167563915421E+03   -0.14125E-03   -0.13721E-04 35248   0.547E-02    0.239E-02
DAV:  15    -0.167563977271E+03   -0.61849E-04   -0.64307E-05 25904   0.349E-02    0.133E-02
DAV:  16    -0.167563984102E+03   -0.68311E-05   -0.72563E-06 21488   0.137E-02
   1 F= -.16756398E+03 E0= -.16756398E+03  d E =0.000000E+00  mag=    -0.0016
