Automatically generated mesh
     123
Reciprocal lattice
    0.00000000000000    0.00000000000000    0.00000000000000             1
    0.11111111111111   -0.00000000000000    0.00000000000000             2
    0.22222222222222    0.00000000000000    0.00000000000000             2
    0.33333333333334    0.00000000000000    0.00000000000000             2
    0.44444444444444    0.00000000000000    0.00000000000000             2
   -0.00000000000000    0.11111111111111    0.00000000000000             2
    0.11111111111111    0.11111111111111    0.00000000000000             2
    0.22222222222222    0.11111111111111    0.00000000000000             2
    0.33333333333334    0.11111111111111    0.00000000000000             2
    0.44444444444444    0.11111111111111    0.00000000000000             2
   -0.44444444444444    0.11111111111111    0.00000000000000             2
   -0.33333333333334    0.11111111111111    0.00000000000000             2
   -0.22222222222222    0.11111111111111    0.00000000000000             2
   -0.11111111111111    0.11111111111111    0.00000000000000             2
   -0.00000000000000    0.22222222222222    0.00000000000000             2
    0.11111111111111    0.22222222222222    0.00000000000000             2
    0.22222222222222    0.22222222222222    0.00000000000000             2
    0.33333333333334    0.22222222222222    0.00000000000000             2
    0.44444444444444    0.22222222222222    0.00000000000000             2
   -0.44444444444444    0.22222222222222    0.00000000000000             2
   -0.33333333333334    0.22222222222222    0.00000000000000             2
   -0.22222222222222    0.22222222222222    0.00000000000000             2
   -0.11111111111111    0.22222222222222    0.00000000000000             2
   -0.00000000000000    0.33333333333334    0.00000000000000             2
    0.11111111111111    0.33333333333334    0.00000000000000             2
    0.22222222222222    0.33333333333334    0.00000000000000             2
    0.33333333333334    0.33333333333334    0.00000000000000             2
    0.44444444444444    0.33333333333334    0.00000000000000             2
   -0.44444444444444    0.33333333333334    0.00000000000000             2
   -0.33333333333334    0.33333333333334    0.00000000000000             2
   -0.22222222222222    0.33333333333334    0.00000000000000             2
   -0.11111111111111    0.33333333333334    0.00000000000000             2
   -0.00000000000000    0.44444444444444    0.00000000000000             2
    0.11111111111111    0.44444444444444    0.00000000000000             2
    0.22222222222222    0.44444444444444    0.00000000000000             2
    0.33333333333334    0.44444444444444    0.00000000000000             2
    0.44444444444444    0.44444444444444    0.00000000000000             2
   -0.44444444444444    0.44444444444444    0.00000000000000             2
   -0.33333333333334    0.44444444444444    0.00000000000000             2
   -0.22222222222222    0.44444444444444    0.00000000000000             2
   -0.11111111111111    0.44444444444444    0.00000000000000             2
    0.00000000000000    0.00000000000000    0.25000000000000             2
    0.11111111111111   -0.00000000000000    0.25000000000000             4
    0.22222222222222    0.00000000000000    0.25000000000000             4
    0.33333333333334    0.00000000000000    0.25000000000000             4
    0.44444444444444    0.00000000000000    0.25000000000000             4
   -0.00000000000000    0.11111111111111    0.25000000000000             4
    0.11111111111111    0.11111111111111    0.25000000000000             4
    0.22222222222222    0.11111111111111    0.25000000000000             4
    0.33333333333334    0.11111111111111    0.25000000000000             4
    0.44444444444444    0.11111111111111    0.25000000000000             4
   -0.44444444444444    0.11111111111111    0.25000000000000             4
   -0.33333333333334    0.11111111111111    0.25000000000000             4
   -0.22222222222222    0.11111111111111    0.25000000000000             4
   -0.11111111111111    0.11111111111111    0.25000000000000             4
   -0.00000000000000    0.22222222222222    0.25000000000000             4
    0.11111111111111    0.22222222222222    0.25000000000000             4
    0.22222222222222    0.22222222222222    0.25000000000000             4
    0.33333333333334    0.22222222222222    0.25000000000000             4
    0.44444444444444    0.22222222222222    0.25000000000000             4
   -0.44444444444444    0.22222222222222    0.25000000000000             4
   -0.33333333333334    0.22222222222222    0.25000000000000             4
   -0.22222222222222    0.22222222222222    0.25000000000000             4
   -0.11111111111111    0.22222222222222    0.25000000000000             4
   -0.00000000000000    0.33333333333334    0.25000000000000             4
    0.11111111111111    0.33333333333334    0.25000000000000             4
    0.22222222222222    0.33333333333334    0.25000000000000             4
    0.33333333333334    0.33333333333334    0.25000000000000             4
    0.44444444444444    0.33333333333334    0.25000000000000             4
   -0.44444444444444    0.33333333333334    0.25000000000000             4
   -0.33333333333334    0.33333333333334    0.25000000000000             4
   -0.22222222222222    0.33333333333334    0.25000000000000             4
   -0.11111111111111    0.33333333333334    0.25000000000000             4
   -0.00000000000000    0.44444444444444    0.25000000000000             4
    0.11111111111111    0.44444444444444    0.25000000000000             4
    0.22222222222222    0.44444444444444    0.25000000000000             4
    0.33333333333334    0.44444444444444    0.25000000000000             4
    0.44444444444444    0.44444444444444    0.25000000000000             4
   -0.44444444444444    0.44444444444444    0.25000000000000             4
   -0.33333333333334    0.44444444444444    0.25000000000000             4
   -0.22222222222222    0.44444444444444    0.25000000000000             4
   -0.11111111111111    0.44444444444444    0.25000000000000             4
    0.00000000000000    0.00000000000000    0.50000000000000             1
    0.11111111111111   -0.00000000000000    0.50000000000000             2
    0.22222222222222    0.00000000000000    0.50000000000000             2
    0.33333333333334    0.00000000000000    0.50000000000000             2
    0.44444444444444    0.00000000000000    0.50000000000000             2
   -0.00000000000000    0.11111111111111    0.50000000000000             2
    0.11111111111111    0.11111111111111    0.50000000000000             2
    0.22222222222222    0.11111111111111    0.50000000000000             2
    0.33333333333334    0.11111111111111    0.50000000000000             2
    0.44444444444444    0.11111111111111    0.50000000000000             2
   -0.44444444444444    0.11111111111111    0.50000000000000             2
   -0.33333333333334    0.11111111111111    0.50000000000000             2
   -0.22222222222222    0.11111111111111    0.50000000000000             2
   -0.11111111111111    0.11111111111111    0.50000000000000             2
   -0.00000000000000    0.22222222222222    0.50000000000000             2
    0.11111111111111    0.22222222222222    0.50000000000000             2
    0.22222222222222    0.22222222222222    0.50000000000000             2
    0.33333333333334    0.22222222222222    0.50000000000000             2
    0.44444444444444    0.22222222222222    0.50000000000000             2
   -0.44444444444444    0.22222222222222    0.50000000000000             2
   -0.33333333333334    0.22222222222222    0.50000000000000             2
   -0.22222222222222    0.22222222222222    0.50000000000000             2
   -0.11111111111111    0.22222222222222    0.50000000000000             2
   -0.00000000000000    0.33333333333334    0.50000000000000             2
    0.11111111111111    0.33333333333334    0.50000000000000             2
    0.22222222222222    0.33333333333334    0.50000000000000             2
    0.33333333333334    0.33333333333334    0.50000000000000             2
    0.44444444444444    0.33333333333334    0.50000000000000             2
   -0.44444444444444    0.33333333333334    0.50000000000000             2
   -0.33333333333334    0.33333333333334    0.50000000000000             2
   -0.22222222222222    0.33333333333334    0.50000000000000             2
   -0.11111111111111    0.33333333333334    0.50000000000000             2
   -0.00000000000000    0.44444444444444    0.50000000000000             2
    0.11111111111111    0.44444444444444    0.50000000000000             2
    0.22222222222222    0.44444444444444    0.50000000000000             2
    0.33333333333334    0.44444444444444    0.50000000000000             2
    0.44444444444444    0.44444444444444    0.50000000000000             2
   -0.44444444444444    0.44444444444444    0.50000000000000             2
   -0.33333333333334    0.44444444444444    0.50000000000000             2
   -0.22222222222222    0.44444444444444    0.50000000000000             2
   -0.11111111111111    0.44444444444444    0.50000000000000             2
Tetrahedra
       966    0.00051440329218
         2         2         6         7        47
         2         1         2         6        47
         2         1         2        42        47
         2         2         7        47        48
         2         2        43        47        48
         2         2        42        43        47
         2         3         7         8        48
         2         2         3         7        48
         2         2         3        43        48
         2         3         8        48        49
         2         3        44        48        49
         2         3        43        44        48
         2         4         8         9        49
         2         3         4         8        49
         2         3         4        44        49
         2         4         9        49        50
         2         4        45        49        50
         2         4        44        45        49
         2         5         9        10        50
         2         4         5         9        50
         2         4         5        45        50
         2         5        10        50        51
         2         5        46        50        51
         2         5        45        46        50
         2         5        10        11        51
         2         5         5        10        51
         2         5         5        46        51
         2         5        11        51        52
         2         5        46        51        52
         2         5        46        46        51
         2         4        11        12        52
         2         4         5        11        52
         2         4         5        46        52
         2         4        12        52        53
         2         4        45        52        53
         2         4        45        46        52
         2         3        12        13        53
         2         3         4        12        53
         2         3         4        45        53
         2         3        13        53        54
         2         3        44        53        54
         2         3        44        45        53
         2         2        13        14        54
         2         2         3        13        54
         2         2         3        44        54
         2         2        14        54        55
         2         2        43        54        55
         2         2        43        44        54
         2         1         6        14        55
         2         1         2        14        55
         2         1         2        43        55
         2         1         6        47        55
         2         1        42        47        55
         2         1        42        43        55
         2         7        15        16        56
         2         6         7        15        56
         2         6         7        47        56
         2         7        16        56        57
         2         7        48        56        57
         2         7        47        48        56
         2         8        16        17        57
         2         7         8        16        57
         2         7         8        48        57
         2         8        17        57        58
         2         8        49        57        58
         2         8        48        49        57
         2         9        17        18        58
         2         8         9        17        58
         2         8         9        49        58
         2         9        18        58        59
         2         9        50        58        59
         2         9        49        50        58
         2        10        18        19        59
         2         9        10        18        59
         2         9        10        50        59
         2        10        19        59        60
         2        10        51        59        60
         2        10        50        51        59
         2        11        19        20        60
         2        10        11        19        60
         2        10        11        51        60
         2        11        20        60        61
         2        11        52        60        61
         2        11        51        52        60
         2        12        20        21        61
         2        11        12        20        61
         2        11        12        52        61
         2        12        21        61        62
         2        12        53        61        62
         2        12        52        53        61
         2        13        21        22        62
         2        12        13        21        62
         2        12        13        53        62
         2        13        22        62        63
         2        13        54        62        63
         2        13        53        54        62
         2        14        22        23        63
         2        13        14        22        63
         2        13        14        54        63
         2        14        23        63        64
         2        14        55        63        64
         2        14        54        55        63
         2         6        15        23        64
         2         6        14        23        64
         2         6        14        55        64
         2         6        15        56        64
         2         6        47        56        64
         2         6        47        55        64
         2        16        24        25        65
         2        15        16        24        65
         2        15        16        56        65
         2        16        25        65        66
         2        16        57        65        66
         2        16        56        57        65
         2        17        25        26        66
         2        16        17        25        66
         2        16        17        57        66
         2        17        26        66        67
         2        17        58        66        67
         2        17        57        58        66
         2        18        26        27        67
         2        17        18        26        67
         2        17        18        58        67
         2        18        27        67        68
         2        18        59        67        68
         2        18        58        59        67
         2        19        27        28        68
         2        18        19        27        68
         2        18        19        59        68
         2        19        28        68        69
         2        19        60        68        69
         2        19        59        60        68
         2        20        28        29        69
         2        19        20        28        69
         2        19        20        60        69
         2        20        29        69        70
         2        20        61        69        70
         2        20        60        61        69
         2        21        29        30        70
         2        20        21        29        70
         2        20        21        61        70
         2        21        30        70        71
         2        21        62        70        71
         2        21        61        62        70
         2        22        30        31        71
         2        21        22        30        71
         2        21        22        62        71
         2        22        31        71        72
         2        22        63        71        72
         2        22        62        63        71
         2        23        31        32        72
         2        22        23        31        72
         2        22        23        63        72
         2        23        32        72        73
         2        23        64        72        73
         2        23        63        64        72
         2        15        24        32        73
         2        15        23        32        73
         2        15        23        64        73
         2        15        24        65        73
         2        15        56        65        73
         2        15        56        64        73
         2        25        33        34        74
         2        24        25        33        74
         2        24        25        65        74
         2        25        34        74        75
         2        25        66        74        75
         2        25        65        66        74
         2        26        34        35        75
         2        25        26        34        75
         2        25        26        66        75
         2        26        35        75        76
         2        26        67        75        76
         2        26        66        67        75
         2        27        35        36        76
         2        26        27        35        76
         2        26        27        67        76
         2        27        36        76        77
         2        27        68        76        77
         2        27        67        68        76
         2        28        36        37        77
         2        27        28        36        77
         2        27        28        68        77
         2        28        37        77        78
         2        28        69        77        78
         2        28        68        69        77
         2        29        37        38        78
         2        28        29        37        78
         2        28        29        69        78
         2        29        38        78        79
         2        29        70        78        79
         2        29        69        70        78
         2        30        38        39        79
         2        29        30        38        79
         2        29        30        70        79
         2        30        39        79        80
         2        30        71        79        80
         2        30        70        71        79
         2        31        39        40        80
         2        30        31        39        80
         2        30        31        71        80
         2        31        40        80        81
         2        31        72        80        81
         2        31        71        72        80
         2        32        40        41        81
         2        31        32        40        81
         2        31        32        72        81
         2        32        41        81        82
         2        32        73        81        82
         2        32        72        73        81
         2        24        33        41        82
         2        24        32        41        82
         2        24        32        73        82
         2        24        33        74        82
         2        24        65        74        82
         2        24        65        73        82
         2        33        34        41        74
         2        33        33        34        74
         2        33        34        74        74
         2        34        41        74        82
         2        34        74        75        82
         2        34        74        74        75
         2        35        40        41        82
         2        34        35        41        82
         2        34        35        75        82
         2        35        40        81        82
         2        35        76        81        82
         2        35        75        76        82
         2        36        39        40        81
         2        35        36        40        81
         2        35        36        76        81
         2        36        39        80        81
         2        36        77        80        81
         2        36        76        77        81
         2        37        38        39        80
         2        36        37        39        80
         2        36        37        77        80
         2        37        38        79        80
         2        37        78        79        80
         2        37        77        78        80
         4        37        38        38        79
         4        37        38        78        79
         4        38        78        79        79
         2        36        37        39        78
         2        37        38        39        78
         2        38        39        78        79
         2        36        39        77        78
         2        39        77        78        80
         2        39        78        79        80
         2        35        36        40        77
         2        36        39        40        77
         2        39        40        77        80
         2        35        40        76        77
         2        40        76        77        81
         2        40        77        80        81
         2        34        35        41        76
         2        35        40        41        76
         2        40        41        76        81
         2        34        41        75        76
         2        41        75        76        82
         2        41        76        81        82
         2        33        33        34        75
         2        33        34        41        75
         2        33        41        75        82
         2        33        33        74        75
         2        33        74        74        75
         2        33        74        75        82
         2        24        32        41        65
         2        24        33        41        65
         2        33        41        65        74
         2        32        41        65        73
         2        41        65        73        82
         2        41        65        74        82
         2        31        32        40        73
         2        32        40        41        73
         2        40        41        73        82
         2        31        40        72        73
         2        40        72        73        81
         2        40        73        81        82
         2        30        31        39        72
         2        31        39        40        72
         2        39        40        72        81
         2        30        39        71        72
         2        39        71        72        80
         2        39        72        80        81
         2        29        30        38        71
         2        30        38        39        71
         2        38        39        71        80
         2        29        38        70        71
         2        38        70        71        79
         2        38        71        79        80
         2        28        29        37        70
         2        29        37        38        70
         2        37        38        70        79
         2        28        37        69        70
         2        37        69        70        78
         2        37        70        78        79
         2        27        28        36        69
         2        28        36        37        69
         2        36        37        69        78
         2        27        36        68        69
         2        36        68        69        77
         2        36        69        77        78
         2        26        27        35        68
         2        27        35        36        68
         2        35        36        68        77
         2        26        35        67        68
         2        35        67        68        76
         2        35        68        76        77
         2        25        26        34        67
         2        26        34        35        67
         2        34        35        67        76
         2        25        34        66        67
         2        34        66        67        75
         2        34        67        75        76
         2        24        25        33        66
         2        25        33        34        66
         2        33        34        66        75
         2        24        33        65        66
         2        33        65        66        74
         2        33        66        74        75
         2        15        23        32        56
         2        15        24        32        56
         2        24        32        56        65
         2        23        32        56        64
         2        32        56        64        73
         2        32        56        65        73
         2        22        23        31        64
         2        23        31        32        64
         2        31        32        64        73
         2        22        31        63        64
         2        31        63        64        72
         2        31        64        72        73
         2        21        22        30        63
         2        22        30        31        63
         2        30        31        63        72
         2        21        30        62        63
         2        30        62        63        71
         2        30        63        71        72
         2        20        21        29        62
         2        21        29        30        62
         2        29        30        62        71
         2        20        29        61        62
         2        29        61        62        70
         2        29        62        70        71
         2        19        20        28        61
         2        20        28        29        61
         2        28        29        61        70
         2        19        28        60        61
         2        28        60        61        69
         2        28        61        69        70
         2        18        19        27        60
         2        19        27        28        60
         2        27        28        60        69
         2        18        27        59        60
         2        27        59        60        68
         2        27        60        68        69
         2        17        18        26        59
         2        18        26        27        59
         2        26        27        59        68
         2        17        26        58        59
         2        26        58        59        67
         2        26        59        67        68
         2        16        17        25        58
         2        17        25        26        58
         2        25        26        58        67
         2        16        25        57        58
         2        25        57        58        66
         2        25        58        66        67
         2        15        16        24        57
         2        16        24        25        57
         2        24        25        57        66
         2        15        24        56        57
         2        24        56        57        65
         2        24        57        65        66
         2         6        14        23        47
         2         6        15        23        47
         2        15        23        47        56
         2        14        23        47        55
         2        23        47        55        64
         2        23        47        56        64
         2        13        14        22        55
         2        14        22        23        55
         2        22        23        55        64
         2        13        22        54        55
         2        22        54        55        63
         2        22        55        63        64
         2        12        13        21        54
         2        13        21        22        54
         2        21        22        54        63
         2        12        21        53        54
         2        21        53        54        62
         2        21        54        62        63
         2        11        12        20        53
         2        12        20        21        53
         2        20        21        53        62
         2        11        20        52        53
         2        20        52        53        61
         2        20        53        61        62
         2        10        11        19        52
         2        11        19        20        52
         2        19        20        52        61
         2        10        19        51        52
         2        19        51        52        60
         2        19        52        60        61