 running on   12 total cores
 distrk:  each k-point on   12 cores,    1 groups
 distr:  one band on    6 cores,    2 groups
 using from now: INCAR     
 vasp.6.1.2 22Jul20 (build Mar 20 2021 11:25:07) complex                        
  
 POSCAR found type information on POSCAR LiP 
 POSCAR found :  2 types and       8 ions
 scaLAPACK will be used
 -----------------------------------------------------------------------------
|                                                                             |
|               ----> ADVICE to this user running VASP <----                  |
|                                                                             |
|     You have a (more or less) 'small supercell' and for smaller cells       |
|     it is recommended to use the reciprocal-space projection scheme!        |
|     The real-space optimization is not efficient for small cells and it     |
|     is also less accurate ...                                               |
|     Therefore, set LREAL=.FALSE. in the INCAR file.                         |
|                                                                             |
 -----------------------------------------------------------------------------

 LDA part: xc-table for Pade appr. of Perdew
 generate k-points for:    9    9    4
 POSCAR, INCAR and KPOINTS ok, starting setup
 FFT: planning ...
 WAVECAR not read
 entering main loop
       N       E                     dE             d eps       ncg     rms          rms(c)
DAV:   1     0.156587449117E+03    0.15659E+03   -0.12095E+04 10832   0.129E+03
DAV:   2     0.155699855571E+01   -0.15503E+03   -0.14687E+03 11976   0.318E+02
DAV:   3    -0.236450970027E+02   -0.25202E+02   -0.25030E+02 19052   0.740E+01
DAV:   4    -0.264435290315E+02   -0.27984E+01   -0.27801E+01 16650   0.336E+01
DAV:   5    -0.266605834421E+02   -0.21705E+00   -0.21703E+00 17224   0.710E+00    0.149E+01
RMM:   6    -0.271119277712E+02   -0.45134E+00   -0.18270E+00 13334   0.696E+00    0.757E+00
RMM:   7    -0.278120959542E+02   -0.70017E+00   -0.59172E-01 14993   0.476E+00    0.290E+00
RMM:   8    -0.278890819273E+02   -0.76986E-01   -0.52851E-01 17338   0.330E+00    0.126E+00
RMM:   9    -0.278989442563E+02   -0.98623E-02   -0.11234E-01 18082   0.198E+00    0.595E-01
WARNING in EDDRMM: call to ZHEGV failed, returncode =   8  4     10
RMM:  10    -0.279075447632E+02   -0.86005E-02   -0.54536E-02 18999   0.116E+00    0.279E-01
RMM:  11    -0.279103088451E+02   -0.27641E-02   -0.21000E-02 19292   0.681E-01    0.218E-01
RMM:  12    -0.279112790909E+02   -0.97025E-03   -0.80547E-03 19063   0.493E-01    0.557E-02
RMM:  13    -0.279119125341E+02   -0.63344E-03   -0.41676E-03 19202   0.310E-01    0.219E-02
RMM:  14    -0.279121801156E+02   -0.26758E-03   -0.23041E-03 18030   0.210E-01    0.242E-02
RMM:  15    -0.279123044343E+02   -0.12432E-03   -0.11257E-03 16634   0.146E-01    0.196E-02
RMM:  16    -0.279123746064E+02   -0.70172E-04   -0.64296E-04 16536   0.108E-01    0.285E-02
RMM:  17    -0.279124059591E+02   -0.31353E-04   -0.36983E-04 16068   0.883E-02    0.178E-02
RMM:  18    -0.279124290592E+02   -0.23100E-04   -0.23248E-04 14307   0.670E-02    0.151E-02
RMM:  19    -0.279124442618E+02   -0.15203E-04   -0.16194E-04 14447   0.572E-02    0.140E-02
RMM:  20    -0.279124545827E+02   -0.10321E-04   -0.99264E-05 12633   0.473E-02    0.157E-02
RMM:  21    -0.279124600404E+02   -0.54577E-05   -0.70835E-05 12308   0.430E-02
   1 F= -.27912460E+02 E0= -.27912460E+02  d E =0.000000E+00  mag=    -0.0001
