 running on    8 total cores
 distrk:  each k-point on    8 cores,    1 groups
 distr:  one band on    1 cores,    8 groups
 using from now: INCAR     
 vasp.6.1.2 22Jul20 (build Mar 20 2021 11:25:07) complex                        
  
 POSCAR found type information on POSCAR LiP O 
 POSCAR found :  3 types and      26 ions
 scaLAPACK will be used
 -----------------------------------------------------------------------------
|                                                                             |
|           W    W    AA    RRRRR   N    N  II  N    N   GGGG   !!!           |
|           W    W   A  A   R    R  NN   N  II  NN   N  G    G  !!!           |
|           W    W  A    A  R    R  N N  N  II  N N  N  G       !!!           |
|           W WW W  AAAAAA  RRRRR   N  N N  II  N  N N  G  GGG   !            |
|           WW  WW  A    A  R   R   N   NN  II  N   NN  G    G                |
|           W    W  A    A  R    R  N    N  II  N    N   GGGG   !!!           |
|                                                                             |
|     The value NCORE = 6 specified in the INCAR file was overwritten,        |
|     because it was not compatible with the 8 processes available:           |
|     NCORE = 1                                                               |
|     was used instead, please check that this makes sense for your           |
|     machine.                                                                |
|                                                                             |
 -----------------------------------------------------------------------------

 -----------------------------------------------------------------------------
|                                                                             |
|           W    W    AA    RRRRR   N    N  II  N    N   GGGG   !!!           |
|           W    W   A  A   R    R  NN   N  II  NN   N  G    G  !!!           |
|           W    W  A    A  R    R  N N  N  II  N N  N  G       !!!           |
|           W WW W  AAAAAA  RRRRR   N  N N  II  N  N N  G  GGG   !            |
|           WW  WW  A    A  R   R   N   NN  II  N   NN  G    G                |
|           W    W  A    A  R    R  N    N  II  N    N   GGGG   !!!           |
|                                                                             |
|     For optimal performance we recommend to set                             |
|       NCORE = 4 - approx SQRT(number of cores).                             |
|     NCORE specifies how many cores store one orbital (NPAR=cpu/NCORE).      |
|     This setting can greatly improve the performance of VASP for DFT.       |
|     The default, NCORE=1 might be grossly inefficient on modern             |
|     multi-core architectures or massively parallel machines. Do your        |
|     own testing!!!!                                                         |
|     Unfortunately you need to use the default for GW and RPA                |
|     calculations (for HF NCORE is supported but not extensively tested      |
|     yet).                                                                   |
|                                                                             |
 -----------------------------------------------------------------------------

 LDA part: xc-table for Pade appr. of Perdew
 -----------------------------------------------------------------------------
|                                                                             |
|           W    W    AA    RRRRR   N    N  II  N    N   GGGG   !!!           |
|           W    W   A  A   R    R  NN   N  II  NN   N  G    G  !!!           |
|           W    W  A    A  R    R  N N  N  II  N N  N  G       !!!           |
|           W WW W  AAAAAA  RRRRR   N  N N  II  N  N N  G  GGG   !            |
|           WW  WW  A    A  R   R   N   NN  II  N   NN  G    G                |
|           W    W  A    A  R    R  N    N  II  N    N   GGGG   !!!           |
|                                                                             |
|     The determination of the symmetry of your systems shows a strong        |
|     dependence on the tolerance parameter SYMPREC. This is often the        |
|     result of "noise" in the structural parameters (lattice vectors         |
|     and/or ionic positions). Set NWRITE=3 for more details.                 |
|                                                                             |
 -----------------------------------------------------------------------------

 generate k-points for:    6    5    4
 POSCAR, INCAR and KPOINTS ok, starting setup
 FFT: planning ...
 WAVECAR not read
 entering main loop
       N       E                     dE             d eps       ncg     rms          rms(c)
DAV:   1     0.108696641959E+04    0.10870E+04   -0.60729E+04 21824   0.147E+03
DAV:   2    -0.589547323284E+02   -0.11459E+04   -0.10758E+04 26112   0.377E+02
DAV:   3    -0.173048839657E+03   -0.11409E+03   -0.11328E+03 28456   0.121E+02
DAV:   4    -0.182383906070E+03   -0.93351E+01   -0.92932E+01 40048   0.288E+01
DAV:   5    -0.184032482811E+03   -0.16486E+01   -0.16479E+01 31904   0.692E+00    0.458E+01
DAV:   6    -0.164557765630E+03    0.19475E+02   -0.87529E+01 27152   0.311E+01    0.220E+01
DAV:   7    -0.166763808104E+03   -0.22060E+01   -0.74080E+00 27536   0.908E+00    0.807E+00
DAV:   8    -0.167108616820E+03   -0.34481E+00   -0.76916E-01 28776   0.342E+00    0.413E+00
DAV:   9    -0.167258793375E+03   -0.15018E+00   -0.14512E-01 30544   0.159E+00    0.157E+00
DAV:  10    -0.167289752797E+03   -0.30959E-01   -0.55143E-02 26144   0.108E+00    0.469E-01
DAV:  11    -0.167299894909E+03   -0.10142E-01   -0.92793E-03 27680   0.393E-01    0.275E-01
DAV:  12    -0.167303346307E+03   -0.34514E-02   -0.25564E-03 27032   0.215E-01    0.136E-01
DAV:  13    -0.167304645072E+03   -0.12988E-02   -0.89583E-04 26472   0.111E-01    0.491E-02
DAV:  14    -0.167304874250E+03   -0.22918E-03   -0.18013E-04 26448   0.594E-02    0.207E-02
DAV:  15    -0.167304931184E+03   -0.56933E-04   -0.55656E-05 23312   0.328E-02    0.152E-02
DAV:  16    -0.167304939965E+03   -0.87807E-05   -0.98587E-06 18816   0.145E-02
   1 F= -.16730494E+03 E0= -.16730494E+03  d E =0.000000E+00  mag=    -0.0012
