Automatically generated mesh
       6
Reciprocal lattice
    0.00000000000000    0.00000000000000    0.00000000000000             1
    0.33333333333334    0.00000000000000   -0.00000000000000             8
    0.33333333333334    0.33333333333334   -0.00000000000000             8
   -0.33333333333334    0.33333333333334   -0.00000000000000             4
   -0.33333333333334    0.33333333333334    0.33333333333334             4
   -0.33333333333334   -0.33333333333334    0.33333333333333             2
Tetrahedra
        25    0.00617283950617
         4         1         2         3         4
        16         2         3         3         4
        12         3         3         3         4
        12         2         2         3         4
         8         2         3         4         5
         8         3         3         4         5
         4         1         2         2         2
         4         2         2         2         4
         8         2         2         4         5
         4         1         2         2         4
        20         2         2         3         5
         4         3         3         5         6
         8         2         3         5         6
         4         2         2         5         6
         4         1         2         3         6
         4         1         2         2         6
         4         1         2         4         6
         6         3         3         4         4
         4         2         3         4         6
         8         2         3         3         5
         4         2         3         5         5
         4         2         5         5         6
         2         3         3         5         5
         4         3         5         6         6
         2         5         5         6         6
