       N       E                     dE             d eps       ncg     rms          rms(c)
DAV:   1     0.161662061776E+04    0.16166E+04   -0.12190E+05  4692   0.139E+03
DAV:   2    -0.128004225026E+03   -0.17446E+04   -0.16592E+04  5448   0.261E+02
DAV:   3    -0.315819920439E+03   -0.18782E+03   -0.18516E+03  5916   0.854E+01
DAV:   4    -0.329958940161E+03   -0.14139E+02   -0.14081E+02  7980   0.212E+01
DAV:   5    -0.332802293162E+03   -0.28434E+01   -0.28420E+01  8064   0.554E+00    0.373E+01
RMM:   6    -0.329293135647E+03    0.35092E+01   -0.47063E+00  5517   0.326E+00    0.225E+01
RMM:   7    -0.328654342696E+03    0.63879E+00   -0.85881E+00  5555   0.400E+00    0.225E+00
RMM:   8    -0.328531391209E+03    0.12295E+00   -0.15961E+00  5607   0.228E+00    0.744E-01
RMM:   9    -0.328536836144E+03   -0.54449E-02   -0.37564E-01  7376   0.107E+00    0.615E-01
RMM:  10    -0.328544909722E+03   -0.80736E-02   -0.95914E-02  7813   0.523E-01    0.495E-01
RMM:  11    -0.328547889840E+03   -0.29801E-02   -0.42323E-02  7026   0.346E-01    0.179E-01
RMM:  12    -0.328549839414E+03   -0.19496E-02   -0.22490E-02  7764   0.250E-01    0.703E-02
RMM:  13    -0.328551419383E+03   -0.15800E-02   -0.14494E-02  8102   0.185E-01    0.561E-02
RMM:  14    -0.328552097636E+03   -0.67825E-03   -0.71730E-03  7743   0.134E-01    0.382E-02
RMM:  15    -0.328552458980E+03   -0.36134E-03   -0.38362E-03  7452   0.107E-01    0.376E-02
RMM:  16    -0.328552628898E+03   -0.16992E-03   -0.25466E-03  7677   0.856E-02    0.102E-02
RMM:  17    -0.328552819076E+03   -0.19018E-03   -0.18875E-03  7733   0.678E-02    0.147E-02
RMM:  18    -0.328552905308E+03   -0.86232E-04   -0.89537E-04  7010   0.501E-02    0.144E-02
RMM:  19    -0.328552943803E+03   -0.38495E-04   -0.42197E-04  6166   0.379E-02    0.191E-02
RMM:  20    -0.328552958892E+03   -0.15090E-04   -0.20350E-04  5338   0.313E-02    0.218E-02
RMM:  21    -0.328552964640E+03   -0.57480E-05   -0.89606E-05  4686   0.276E-02
   1 F= -.32855296E+03 E0= -.32855296E+03  d E =-.328553E+03  mag=     0.0000
       N       E                     dE             d eps       ncg     rms          rms(c)
DAV:   1    -0.328553633137E+03   -0.67424E-03   -0.67205E-02  5244   0.544E-01    0.804E-02
RMM:   2    -0.328553745566E+03   -0.11243E-03   -0.16187E-03  6291   0.924E-02    0.316E-02
RMM:   3    -0.328553793870E+03   -0.48304E-04   -0.59013E-04  7204   0.527E-02    0.216E-02
RMM:   4    -0.328553799735E+03   -0.58654E-05   -0.92685E-05  5586   0.268E-02
   2 F= -.32855380E+03 E0= -.32855380E+03  d E =-.835095E-03  mag=     0.0000
       N       E                     dE             d eps       ncg     rms          rms(c)
DAV:   1    -0.328553560956E+03    0.23291E-03   -0.60059E-01  5244   0.163E+00    0.217E-01
RMM:   2    -0.328554661468E+03   -0.11005E-02   -0.14104E-02  6070   0.268E-01    0.728E-02
RMM:   3    -0.328555140230E+03   -0.47876E-03   -0.49795E-03  7215   0.151E-01    0.579E-02
RMM:   4    -0.328555218340E+03   -0.78111E-04   -0.11566E-03  7828   0.749E-02    0.506E-02
RMM:   5    -0.328555269726E+03   -0.51386E-04   -0.53088E-04  6466   0.424E-02    0.374E-02
RMM:   6    -0.328555296966E+03   -0.27240E-04   -0.26025E-04  7091   0.320E-02    0.114E-02
RMM:   7    -0.328555300705E+03   -0.37391E-05   -0.49112E-05  3692   0.222E-02
   3 F= -.32855530E+03 E0= -.32855530E+03  d E =-.233606E-02  mag=     0.0000
       N       E                     dE             d eps       ncg     rms          rms(c)
DAV:   1    -0.328546923760E+03    0.83732E-02   -0.24067E+00  4896   0.327E+00    0.435E-01
RMM:   2    -0.328551483825E+03   -0.45601E-02   -0.56645E-02  6045   0.540E-01    0.143E-01
RMM:   3    -0.328553371837E+03   -0.18880E-02   -0.19349E-02  7121   0.301E-01    0.116E-01
RMM:   4    -0.328553662902E+03   -0.29106E-03   -0.44925E-03  7731   0.149E-01    0.999E-02
RMM:   5    -0.328553876937E+03   -0.21403E-03   -0.21905E-03  7853   0.840E-02    0.774E-02
RMM:   6    -0.328553968538E+03   -0.91601E-04   -0.94836E-04  7262   0.585E-02    0.218E-02
RMM:   7    -0.328554025123E+03   -0.56585E-04   -0.55558E-04  6996   0.389E-02    0.181E-02
RMM:   8    -0.328554045443E+03   -0.20320E-04   -0.28029E-04  5955   0.296E-02    0.916E-03
RMM:   9    -0.328554052641E+03   -0.71980E-05   -0.69975E-05  4386   0.232E-02
   4 F= -.32855405E+03 E0= -.32855405E+03  d E =-.108800E-02  mag=    -0.0000
       N       E                     dE             d eps       ncg     rms          rms(c)
DAV:   1    -0.328552317416E+03    0.17280E-02   -0.11824E+00  4944   0.229E+00    0.305E-01
RMM:   2    -0.328554506115E+03   -0.21887E-02   -0.27351E-02  5917   0.377E-01    0.101E-01
RMM:   3    -0.328555357592E+03   -0.85148E-03   -0.87102E-03  6888   0.202E-01    0.785E-02
RMM:   4    -0.328555465009E+03   -0.10742E-03   -0.19276E-03  7360   0.965E-02    0.607E-02
RMM:   5    -0.328555537366E+03   -0.72356E-04   -0.73049E-04  7356   0.452E-02    0.488E-02
RMM:   6    -0.328555553103E+03   -0.15737E-04   -0.25981E-04  5980   0.278E-02    0.111E-02
RMM:   7    -0.328555564122E+03   -0.11019E-04   -0.11105E-04  4260   0.212E-02    0.128E-02
RMM:   8    -0.328555565186E+03   -0.10633E-05   -0.32462E-05  3847   0.181E-02
   5 F= -.32855557E+03 E0= -.32855557E+03  d E =-.260055E-02  mag=     0.0000
       N       E                     dE             d eps       ncg     rms          rms(c)
DAV:   1    -0.328556088240E+03   -0.52412E-03   -0.45172E-02  5388   0.449E-01    0.729E-02
RMM:   2    -0.328556155316E+03   -0.67076E-04   -0.10086E-03  5667   0.748E-02    0.289E-02
RMM:   3    -0.328556173795E+03   -0.18478E-04   -0.28577E-04  6443   0.377E-02    0.160E-02
RMM:   4    -0.328556172189E+03    0.16058E-05   -0.47038E-05  4059   0.171E-02
   6 F= -.32855617E+03 E0= -.32855617E+03  d E =-.607003E-03  mag=     0.0000
       N       E                     dE             d eps       ncg     rms          rms(c)
DAV:   1    -0.328556322182E+03   -0.14839E-03   -0.40382E-01  4896   0.134E+00    0.205E-01
RMM:   2    -0.328556969190E+03   -0.64701E-03   -0.95988E-03  6000   0.226E-01    0.801E-02
RMM:   3    -0.328557203207E+03   -0.23402E-03   -0.32104E-03  6920   0.125E-01    0.525E-02
RMM:   4    -0.328557245501E+03   -0.42294E-04   -0.85577E-04  7537   0.627E-02    0.332E-02
RMM:   5    -0.328557271388E+03   -0.25887E-04   -0.31965E-04  6205   0.309E-02    0.190E-02
RMM:   6    -0.328557276214E+03   -0.48255E-05   -0.11018E-04  4700   0.222E-02    0.581E-03
RMM:   7    -0.328557276505E+03   -0.29118E-06   -0.22282E-05  3759   0.191E-02
   7 F= -.32855728E+03 E0= -.32855728E+03  d E =-.171132E-02  mag=     0.0000
       N       E                     dE             d eps       ncg     rms          rms(c)
DAV:   1    -0.328552816953E+03    0.44593E-02   -0.16138E+00  4872   0.269E+00    0.409E-01
RMM:   2    -0.328555492718E+03   -0.26758E-02   -0.38599E-02  6006   0.452E-01    0.158E-01
RMM:   3    -0.328556469455E+03   -0.97674E-03   -0.13026E-02  6981   0.252E-01    0.104E-01
RMM:   4    -0.328556681164E+03   -0.21171E-03   -0.36646E-03  7725   0.129E-01    0.660E-02
RMM:   5    -0.328556823738E+03   -0.14257E-03   -0.15831E-03  7826   0.656E-02    0.398E-02
RMM:   6    -0.328556880781E+03   -0.57043E-04   -0.68304E-04  7045   0.426E-02    0.124E-02
RMM:   7    -0.328556907695E+03   -0.26915E-04   -0.31480E-04  5876   0.309E-02    0.480E-03
RMM:   8    -0.328556921203E+03   -0.13508E-04   -0.14254E-04  4943   0.249E-02    0.459E-03
RMM:   9    -0.328556922849E+03   -0.16459E-05   -0.29597E-05  3704   0.216E-02
   8 F= -.32855692E+03 E0= -.32855692E+03  d E =-.135766E-02  mag=    -0.0000
       N       E                     dE             d eps       ncg     rms          rms(c)
DAV:   1    -0.328556385387E+03    0.53582E-03   -0.53151E-01  4896   0.154E+00    0.239E-01
RMM:   2    -0.328557210610E+03   -0.82522E-03   -0.12375E-02  5781   0.258E-01    0.934E-02
RMM:   3    -0.328557474736E+03   -0.26413E-03   -0.37372E-03  6577   0.135E-01    0.588E-02
RMM:   4    -0.328557523898E+03   -0.49163E-04   -0.80016E-04  7050   0.641E-02    0.319E-02
RMM:   5    -0.328557551086E+03   -0.27188E-04   -0.27478E-04  6188   0.297E-02    0.186E-02
RMM:   6    -0.328557560065E+03   -0.89788E-05   -0.78573E-05  3986   0.189E-02
   9 F= -.32855756E+03 E0= -.32855756E+03  d E =-.199488E-02  mag=    -0.0000
       N       E                     dE             d eps       ncg     rms          rms(c)
DAV:   1    -0.328557923896E+03   -0.37281E-03   -0.11619E-01  4920   0.715E-01    0.131E-01
RMM:   2    -0.328558232241E+03   -0.30834E-03   -0.33816E-03  5765   0.136E-01    0.381E-02
RMM:   3    -0.328558332968E+03   -0.10073E-03   -0.97387E-04  6745   0.701E-02    0.316E-02
RMM:   4    -0.328558339765E+03   -0.67974E-05   -0.18335E-04  6830   0.321E-02    0.241E-02
RMM:   5    -0.328558340484E+03   -0.71910E-06   -0.10901E-05  3376   0.166E-02
  10 F= -.32855834E+03 E0= -.32855834E+03  d E =-.780419E-03  mag=    -0.0000
       N       E                     dE             d eps       ncg     rms          rms(c)
DAV:   1    -0.328558418087E+03   -0.78322E-04   -0.34840E-02  5244   0.392E-01    0.733E-02
RMM:   2    -0.328558517535E+03   -0.99448E-04   -0.10782E-03  5958   0.759E-02    0.223E-02
RMM:   3    -0.328558561367E+03   -0.43832E-04   -0.42024E-04  6929   0.443E-02    0.171E-02
RMM:   4    -0.328558564150E+03   -0.27830E-05   -0.59114E-05  4585   0.232E-02
  11 F= -.32855856E+03 E0= -.32855856E+03  d E =-.100408E-02  mag=     0.0000
       N       E                     dE             d eps       ncg     rms          rms(c)
DAV:   1    -0.328559124478E+03   -0.56311E-03   -0.13001E-02  5508   0.197E-01    0.917E-02
RMM:   2    -0.328559084694E+03    0.39784E-04   -0.78962E-04  5678   0.605E-02    0.381E-02
RMM:   3    -0.328559060925E+03    0.23769E-04   -0.24263E-04  5981   0.330E-02    0.185E-02
RMM:   4    -0.328559059714E+03    0.12106E-05   -0.92982E-05  5922   0.186E-02
  12 F= -.32855906E+03 E0= -.32855906E+03  d E =-.495564E-03  mag=     0.0000
       N       E                     dE             d eps       ncg     rms          rms(c)
DAV:   1    -0.328559660978E+03   -0.60005E-03   -0.45385E-02  4956   0.366E-01    0.168E-01
RMM:   2    -0.328559517859E+03    0.14312E-03   -0.28111E-03  5014   0.112E-01    0.722E-02
RMM:   3    -0.328559426982E+03    0.90878E-04   -0.80404E-04  5347   0.578E-02    0.370E-02
RMM:   4    -0.328559417620E+03    0.93613E-05   -0.23547E-04  6126   0.295E-02    0.242E-02
RMM:   5    -0.328559410066E+03    0.75540E-05   -0.32529E-05  3896   0.128E-02
  13 F= -.32855941E+03 E0= -.32855941E+03  d E =-.845916E-03  mag=    -0.0000
       N       E                     dE             d eps       ncg     rms          rms(c)
DAV:   1    -0.328559688862E+03   -0.27124E-03   -0.22345E-02  4968   0.256E-01    0.966E-02
RMM:   2    -0.328559714416E+03   -0.25554E-04   -0.12531E-03  4861   0.750E-02    0.313E-02
RMM:   3    -0.328559712767E+03    0.16484E-05   -0.33030E-04  5229   0.376E-02    0.202E-02
RMM:   4    -0.328559714048E+03   -0.12802E-05   -0.85456E-05  5724   0.176E-02
  14 F= -.32855971E+03 E0= -.32855971E+03  d E =-.303981E-03  mag=     0.0000
       N       E                     dE             d eps       ncg     rms          rms(c)
DAV:   1    -0.328559796991E+03   -0.84224E-04   -0.14609E-02  5112   0.207E-01    0.760E-02
RMM:   2    -0.328559808449E+03   -0.11457E-04   -0.81761E-04  5035   0.607E-02    0.264E-02
RMM:   3    -0.328559806191E+03    0.22578E-05   -0.22807E-04  5380   0.308E-02    0.191E-02
RMM:   4    -0.328559806327E+03   -0.13609E-06   -0.56674E-05  4899   0.144E-02
  15 F= -.32855981E+03 E0= -.32855981E+03  d E =-.396261E-03  mag=     0.0000
       N       E                     dE             d eps       ncg     rms          rms(c)
DAV:   1    -0.328560040808E+03   -0.23462E-03   -0.90427E-03  4944   0.172E-01    0.782E-02
RMM:   2    -0.328559949981E+03    0.90828E-04   -0.52741E-04  5657   0.479E-02    0.392E-02
RMM:   3    -0.328559909837E+03    0.40144E-04   -0.24174E-04  5690   0.288E-02    0.165E-02
RMM:   4    -0.328559908284E+03    0.15532E-05   -0.78016E-05  5352   0.156E-02
  16 F= -.32855991E+03 E0= -.32855991E+03  d E =-.101957E-03  mag=    -0.0000
       N       E                     dE             d eps       ncg     rms          rms(c)
DAV:   1    -0.328559922291E+03   -0.12454E-04   -0.61947E-04  5736   0.454E-02    0.191E-02
RMM:   2    -0.328559916144E+03    0.61471E-05   -0.47974E-05  4950   0.139E-02
  17 F= -.32855992E+03 E0= -.32855992E+03  d E =-.109817E-03  mag=    -0.0000
       N       E                     dE             d eps       ncg     rms          rms(c)
DAV:   1    -0.328559964771E+03   -0.42480E-04   -0.28855E-03  4896   0.978E-02    0.379E-02
RMM:   2    -0.328559980500E+03   -0.15729E-04   -0.20361E-04  5266   0.292E-02    0.124E-02
RMM:   3    -0.328559986872E+03   -0.63727E-05   -0.68473E-05  5148   0.157E-02
  18 F= -.32855999E+03 E0= -.32855999E+03  d E =-.707286E-04  mag=    -0.0000
       N       E                     dE             d eps       ncg     rms          rms(c)
DAV:   1    -0.328559992275E+03   -0.11775E-04   -0.16977E-04  5592   0.235E-02    0.133E-02
RMM:   2    -0.328559993551E+03   -0.12763E-05   -0.13306E-05  2547   0.756E-03
  19 F= -.32855999E+03 E0= -.32855999E+03  d E =-.774072E-04  mag=    -0.0000
