 vasp.6.1.2 22Jul20 (build Dec 05 2020 14:50:36) complex                        
  
 executed on         CrayXC-Intel date 2021.02.03  12:04:40
 running on   72 total cores
 distrk:  each k-point on   72 cores,    1 groups
 distr:  one band on NCORE=   6 cores,   12 groups


--------------------------------------------------------------------------------------------------------


 INCAR:
 POTCAR:    PAW_PBE Li_sv 10Sep2004               
 POTCAR:    PAW_PBE P 06Sep2000                   
 POTCAR:    PAW_PBE Li_sv 10Sep2004               
   VRHFIN =Li: 1s2s2p                                                                               
   LEXCH  = PE                                                                                      
   EATOM  =   202.7858 eV,   14.9043 Ry                                                             
                                                                                                    
   TITEL  = PAW_PBE Li_sv 10Sep2004                                                                 
   LULTRA =        F    use ultrasoft PP ?                                                          
   IUNSCR =        0    unscreen: 0-lin 1-nonlin 2-no                                               
   RPACOR =    0.000    partial core radius                                                         
   POMASS =    7.010; ZVAL   =    3.000    mass and valenz                                          
   RCORE  =    1.700    outmost cutoff radius                                                       
   RWIGS  =    2.050; RWIGS  =    1.085    wigner-seitz radius (au A)                               
   ENMAX  =  499.034; ENMIN  =  374.276 eV                                                          
   ICORE  =        2    local potential                                                             
   LCOR   =        T    correct aug charges                                                         
   LPAW   =        T    paw PP                                                                      
   EAUG   =  628.945                                                                                
   RMAX   =    1.732    core radius for proj-oper                                                   
   RAUG   =    1.300    factor for augmentation sphere                                              
   RDEP   =    1.728    radius for radial grids                                                     
   RDEPT  =    1.329    core radius for aug-charge                                                  
                                                                                                    
   Atomic configuration                                                                             
    4 entries                                                                                       
     n  l   j            E        occ.                                                              
     1  0  0.50       -51.8549   2.0000                                                             
     2  0  0.50        -2.8742   1.0000                                                             
     2  1  0.50        -1.3606   0.0000                                                             
     3  2  1.50        -1.3606   0.0000                                                             
   Description                                                                                      
     l       E           TYP  RCUT    TYP  RCUT                                                     
     0    -51.8548813     23  1.400                                                                 
     0     -2.8742052     23  1.700                                                                 
     1     -1.3605826     23  1.400                                                                 
     2     -1.3605826     23  1.400                                                                 
  local pseudopotential read in
  atomic valenz-charges read in
  non local Contribution for L=           0  read in
    real space projection operators read in
  non local Contribution for L=           0  read in
    real space projection operators read in
  non local Contribution for L=           1  read in
    real space projection operators read in
    PAW grid and wavefunctions read in
 
   number of l-projection  operators is LMAX  =           3
   number of lm-projection operators is LMMAX =           5
 
 POTCAR:    PAW_PBE P 06Sep2000                   
   VRHFIN =P : s2p3                                                                                 
   LEXCH  = PE                                                                                      
   EATOM  =   176.0430 eV,   12.9388 Ry                                                             
                                                                                                    
   TITEL  = PAW_PBE P 06Sep2000                                                                     
   LULTRA =        F    use ultrasoft PP ?                                                          
   IUNSCR =        1    unscreen: 0-lin 1-nonlin 2-no                                               
   RPACOR =    1.500    partial core radius                                                         
   POMASS =   30.974; ZVAL   =    5.000    mass and valenz                                          
   RCORE  =    1.900    outmost cutoff radius                                                       
   RWIGS  =    2.330; RWIGS  =    1.233    wigner-seitz radius (au A)                               
   ENMAX  =  255.040; ENMIN  =  191.280 eV                                                          
   ICORE  =        2    local potential                                                             
   LCOR   =        T    correct aug charges                                                         
   LPAW   =        T    paw PP                                                                      
   EAUG   =  342.924                                                                                
   DEXC   =    0.000                                                                                
   RMAX   =    1.935    core radius for proj-oper                                                   
   RAUG   =    1.300    factor for augmentation sphere                                              
   RDEP   =    1.931    radius for radial grids                                                     
   RDEPT  =    1.794    core radius for aug-charge                                                  
                                                                                                    
   Atomic configuration                                                                             
    6 entries                                                                                       
     n  l   j            E        occ.                                                              
     1  0  0.50     -2084.0982   2.0000                                                             
     2  0  0.50      -173.9859   2.0000                                                             
     2  1  1.50      -124.4865   6.0000                                                             
     3  0  0.50       -13.9692   2.0000                                                             
     3  1  0.50        -5.5067   3.0000                                                             
     3  2  1.50        -5.4423   0.0000                                                             
   Description                                                                                      
     l       E           TYP  RCUT    TYP  RCUT                                                     
     0    -13.9691527     23  1.900                                                                 
     0    -11.7794650     23  1.900                                                                 
     1     -5.5066937     23  1.900                                                                 
     1     -0.2556953     23  1.900                                                                 
     2     -5.4423304     23  1.900                                                                 
  local pseudopotential read in
  partial core-charges read in
  partial kinetic energy density read in
  atomic valenz-charges read in
  non local Contribution for L=           0  read in
    real space projection operators read in
  non local Contribution for L=           0  read in
    real space projection operators read in
  non local Contribution for L=           1  read in
    real space projection operators read in
  non local Contribution for L=           1  read in
    real space projection operators read in
    PAW grid and wavefunctions read in
 
   number of l-projection  operators is LMAX  =           4
   number of lm-projection operators is LMMAX =           8
 
 Optimization of the real space projectors (new method)

 maximal supplied QI-value         = 22.11
 optimisation between [QCUT,QGAM] = [ 11.50, 23.22] = [ 37.02,150.92] Ry 
 Optimized for a Real-space Cutoff    1.08 Angstroem

   l    n(q)    QCUT    max X(q) W(low)/X(q) W(high)/X(q)  e(spline) 
   0      7    11.497    10.506    0.36E-04    0.62E-04    0.14E-07
   0      7    11.497     8.367    0.65E-04    0.14E-03    0.28E-07
   1      7    11.497     8.983    0.21E-03    0.43E-03    0.90E-07
 Optimization of the real space projectors (new method)

 maximal supplied QI-value         = 19.84
 optimisation between [QCUT,QGAM] = [ 11.51, 23.22] = [ 37.09,150.92] Ry 
 Optimized for a Real-space Cutoff    1.21 Angstroem

   l    n(q)    QCUT    max X(q) W(low)/X(q) W(high)/X(q)  e(spline) 
   0      8    11.508   160.924    0.96E-04    0.17E-03    0.52E-07
   0      8    11.508   130.086    0.95E-04    0.17E-03    0.51E-07
   1      8    11.508    74.434    0.16E-03    0.74E-04    0.91E-07
   1      8    11.508    49.120    0.16E-03    0.71E-04    0.89E-07
  PAW_PBE Li_sv 10Sep2004               :
 energy of atom  1       EATOM= -202.7858
 kinetic energy error for atom=    0.0130 (will be added to EATOM!!)
  PAW_PBE P 06Sep2000                   :
 energy of atom  2       EATOM= -176.0430
 kinetic energy error for atom=    0.0011 (will be added to EATOM!!)
 
 
 POSCAR: Li8 P56
  positions in direct lattice
  No initial velocities read in
 exchange correlation table for  LEXCH =        8
   RHO(1)=    0.500       N(1)  =     2000
   RHO(2)=  100.500       N(2)  =     4000
 


--------------------------------------------------------------------------------------------------------


 ion  position               nearest neighbor table
   1  0.119  0.119  0.738-  12 2.68  11 2.68  62 2.76  61 2.76
   2  0.869  0.631  0.500-   9 2.68  15 2.68  62 2.76  64 2.76
   3  0.131  0.369  0.500-  14 2.68  16 2.68  61 2.76  63 2.76
   4  0.381  0.381  0.262-  10 2.68  13 2.68  64 2.76  63 2.76
   5  0.631  0.131  0.762-  20 2.68  19 2.68  58 2.76  57 2.76
   6  0.881  0.619  0.000-  17 2.68  23 2.68  58 2.76  60 2.76
   7  0.619  0.881  0.000-  22 2.68  24 2.68  57 2.76  59 2.76
   8  0.369  0.869  0.238-  18 2.68  21 2.68  60 2.76  59 2.76
   9  0.794  0.768  0.383-  25 2.21  12 2.22  44 2.23   2 2.68
  10  0.518  0.635  0.474-  26 2.21  15 2.22  47 2.23   4 2.68
  11  0.161  0.044  0.526-  27 2.21  16 2.22  48 2.23   1 2.68
  12  0.865  0.982  0.526-  28 2.21   9 2.22  41 2.23   1 2.68
  13  0.456  0.339  0.474-  29 2.21  14 2.22  46 2.23   4 2.68
  14  0.385  0.411  0.617-  30 2.21  13 2.22  45 2.23   3 2.68
  15  0.732  0.706  0.617-  31 2.21  10 2.22  42 2.23   2 2.68
  16  0.089  0.115  0.383-  32 2.21  11 2.22  43 2.23   3 2.68
  17  0.956  0.482  0.117-  33 2.21  20 2.22  52 2.23   6 2.68
  18  0.232  0.615  0.026-  34 2.21  23 2.22  55 2.23   8 2.68
  19  0.589  0.206  0.974-  35 2.21  24 2.22  56 2.23   5 2.68
  20  0.885  0.268  0.974-  36 2.21  17 2.22  49 2.23   5 2.68
  21  0.294  0.911  0.026-  37 2.21  22 2.22  54 2.23   8 2.68
  22  0.365  0.839  0.883-  38 2.21  21 2.22  53 2.23   7 2.68
  23  0.018  0.544  0.883-  39 2.21  18 2.22  50 2.23   6 2.68
  24  0.661  0.135  0.117-  40 2.21  19 2.22  51 2.23   7 2.68
  25  0.583  0.710  0.246-   9 2.21  59 2.21  47 2.22
  26  0.460  0.714  0.627-  10 2.21  57 2.21  45 2.22
  27  0.087  0.833  0.373-  11 2.21  60 2.21  44 2.22
  28  0.786  0.040  0.373-  12 2.21  59 2.21  43 2.22
  29  0.667  0.413  0.627-  13 2.21  58 2.21  42 2.22
  30  0.464  0.337  0.754-  14 2.21  58 2.21  48 2.22
  31  0.790  0.917  0.754-  15 2.21  57 2.21  41 2.22
  32  0.163  0.036  0.246-  16 2.21  60 2.21  46 2.22
  33  0.167  0.540  0.254-  17 2.21  63 2.21  55 2.22
  34  0.290  0.536  0.873-  18 2.21  61 2.21  53 2.22
  35  0.663  0.417  0.127-  19 2.21  64 2.21  52 2.22
  36  0.964  0.210  0.127-  20 2.21  63 2.21  51 2.22
  37  0.083  0.837  0.873-  21 2.21  62 2.21  50 2.22
  38  0.286  0.913  0.746-  22 2.21  62 2.21  56 2.22
  39  0.960  0.333  0.746-  23 2.21  61 2.21  49 2.22
  40  0.587  0.214  0.254-  24 2.21  64 2.21  54 2.22
  41  0.717  0.971  0.594-  31 2.22  12 2.23  47 2.29
  42  0.721  0.626  0.753-  29 2.22  15 2.23  45 2.29
  43  0.873  0.967  0.247-  28 2.22  16 2.23  44 2.29
  44  0.874  0.779  0.247-  27 2.22   9 2.23  43 2.29
  45  0.533  0.627  0.753-  26 2.22  14 2.23  42 2.29
  46  0.376  0.123  0.406-  32 2.22  13 2.23  48 2.29
  47  0.529  0.783  0.406-  25 2.22  10 2.23  41 2.29
  48  0.377  0.124  0.594-  30 2.22  11 2.23  46 2.29
  49  0.033  0.279  0.906-  39 2.22  20 2.23  55 2.29
  50  0.029  0.624  0.747-  37 2.22  23 2.23  53 2.29
  51  0.877  0.283  0.253-  36 2.22  24 2.23  52 2.29
  52  0.876  0.471  0.253-  35 2.22  17 2.23  51 2.29
  53  0.217  0.623  0.747-  34 2.22  22 2.23  50 2.29
  54  0.374  0.127  0.094-  40 2.22  21 2.23  56 2.29
  55  0.221  0.467  0.094-  33 2.22  18 2.23  49 2.29
  56  0.373  0.126  0.906-  38 2.22  19 2.23  54 2.29
  57  0.625  0.915  0.790-  31 2.21  26 2.21   7 2.76   5 2.76
  58  0.665  0.375  0.790-  29 2.21  30 2.21   5 2.76   6 2.76
  59  0.585  0.875  0.210-  25 2.21  28 2.21   7 2.76   8 2.76
  60  0.125  0.835  0.210-  27 2.21  32 2.21   8 2.76   6 2.76
  61  0.125  0.335  0.710-  39 2.21  34 2.21   3 2.76   1 2.76
  62  0.085  0.875  0.710-  37 2.21  38 2.21   1 2.76   2 2.76
  63  0.165  0.375  0.290-  33 2.21  36 2.21   3 2.76   4 2.76
  64  0.625  0.415  0.290-  35 2.21  40 2.21   4 2.76   2 2.76
 
 -----------------------------------------------------------------------------
|                                                                             |
|           W    W    AA    RRRRR   N    N  II  N    N   GGGG   !!!           |
|           W    W   A  A   R    R  NN   N  II  NN   N  G    G  !!!           |
|           W    W  A    A  R    R  N N  N  II  N N  N  G       !!!           |
|           W WW W  AAAAAA  RRRRR   N  N N  II  N  N N  G  GGG   !            |
|           WW  WW  A    A  R   R   N   NN  II  N   NN  G    G                |
|           W    W  A    A  R    R  N    N  II  N    N   GGGG   !!!           |
|                                                                             |
|     The determination of the symmetry of your systems shows a strong        |
|     dependence on the tolerance parameter SYMPREC. This is often the        |
|     result of "noise" in the structural parameters (lattice vectors         |
|     and/or ionic positions). Set NWRITE=3 for more details.                 |
|                                                                             |
 -----------------------------------------------------------------------------

  LATTYP: Found a body centered tetragonal cell.
 ALAT       =    13.6297800000
 C/A-ratio  =     1.0882309179
  
  Lattice vectors:
  
 A1 = (  -6.8148900000,   6.8148900000,   7.4161740000)
 A2 = (   6.8148900000,  -6.8148900000,   7.4161740000)
 A3 = (   6.8148900000,   6.8148900000,  -7.4161740000)


Analysis of symmetry for initial positions (statically):
=====================================================================
 Subroutine PRICEL returns:
 Original cell was already a primitive cell.
 

 Routine SETGRP: Setting up the symmetry group for a 
 body centered tetragonal supercell.


 Subroutine GETGRP returns: Found 16 space group operations
 (whereof  4 operations were pure point group operations)
 out of a pool of 16 trial point group operations.


The static configuration has the point symmetry S_4 .
 The point group associated with its full space group is D_4h.


Analysis of symmetry for dynamics (positions and initial velocities):
=====================================================================
 Subroutine PRICEL returns:
 Original cell was already a primitive cell.
 

 Routine SETGRP: Setting up the symmetry group for a 
 body centered tetragonal supercell.


 Subroutine GETGRP returns: Found 16 space group operations
 (whereof  4 operations were pure point group operations)
 out of a pool of 16 trial point group operations.


The dynamic configuration has the point symmetry S_4 .
 The point group associated with its full space group is D_4h.


Analysis of structural, dynamic, and magnetic symmetry:
=====================================================================
 Subroutine PRICEL returns:
 Original cell was already a primitive cell.
 

 Routine SETGRP: Setting up the symmetry group for a 
 body centered tetragonal supercell.


 Subroutine GETGRP returns: Found 16 space group operations
 (whereof  4 operations were pure point group operations)
 out of a pool of 16 trial point group operations.


The magnetic configuration has the point symmetry S_4 .
 The point group associated with its full space group is D_4h.


 Subroutine INISYM returns: Found 16 space group operations
 (whereof  4 operations are pure point group operations),
 and found     1 'primitive' translations


----------------------------------------------------------------------------------------

                                     Primitive cell                                     

  volume of cell :    1377.7093

  direct lattice vectors                    reciprocal lattice vectors
    -6.814890000  6.814890000  7.416174000    -0.000000000  0.073368756  0.067420209
     6.814890000 -6.814890000  7.416174000     0.073368756 -0.000000000  0.067420209
     6.814890000  6.814890000 -7.416174000     0.073368756  0.073368756  0.000000000

  length of vectors
    12.160801299 12.160801299 12.160801299     0.099641652  0.099641652  0.103759089

  position of ions in fractional coordinates (direct lattice)
     0.118757000  0.118757000  0.737515000
     0.868757000  0.631243000  0.500000000
     0.131243000  0.368757000  0.500000000
     0.381243000  0.381243000  0.262485000
     0.631243000  0.131243000  0.762485000
     0.881243000  0.618757000  0.000000000
     0.618757000  0.881243000  0.000000000
     0.368757000  0.868757000  0.237515000
     0.793929000  0.767734000  0.382791000
     0.517734000  0.634944000  0.473805000
     0.161139000  0.043929000  0.526195000
     0.865056000  0.982266000  0.526195000
     0.456071000  0.338861000  0.473805000
     0.384944000  0.411139000  0.617209000
     0.732266000  0.706071000  0.617209000
     0.088861000  0.115056000  0.382791000
     0.956071000  0.482266000  0.117209000
     0.232266000  0.615056000  0.026195000
     0.588861000  0.206071000  0.973805000
     0.884944000  0.267734000  0.973805000
     0.293929000  0.911139000  0.026195000
     0.365056000  0.838861000  0.882791000
     0.017734000  0.543929000  0.882791000
     0.661139000  0.134944000  0.117209000
     0.582941000  0.709931000  0.246429000
     0.459931000  0.713501000  0.626990000
     0.086512000  0.832941000  0.373010000
     0.786499000  0.040069000  0.373010000
     0.667059000  0.413488000  0.626990000
     0.463501000  0.336512000  0.753571000
     0.790069000  0.917059000  0.753571000
     0.163488000  0.036499000  0.246429000
     0.167059000  0.540069000  0.253571000
     0.290069000  0.536499000  0.873010000
     0.663488000  0.417059000  0.126990000
     0.963501000  0.209931000  0.126990000
     0.082941000  0.836512000  0.873010000
     0.286499000  0.913488000  0.746429000
     0.959931000  0.332941000  0.746429000
     0.586512000  0.213501000  0.253571000
     0.717491000  0.970614000  0.594170000
     0.720614000  0.626445000  0.753123000
     0.873321000  0.967491000  0.246877000
     0.873555000  0.779386000  0.246877000
     0.532509000  0.626679000  0.753123000
     0.376445000  0.123321000  0.405830000
     0.529386000  0.782509000  0.405830000
     0.376679000  0.123555000  0.594170000
     0.032509000  0.279386000  0.905830000
     0.029386000  0.623555000  0.746877000
     0.876679000  0.282509000  0.253123000
     0.876445000  0.470614000  0.253123000
     0.217491000  0.623321000  0.746877000
     0.373555000  0.126679000  0.094170000
     0.220614000  0.467491000  0.094170000
     0.373321000  0.126445000  0.905830000
     0.625000000  0.915130000  0.790130000
     0.665130000  0.375000000  0.790130000
     0.584870000  0.875000000  0.209870000
     0.125000000  0.834870000  0.209870000
     0.125000000  0.334870000  0.709870000
     0.084870000  0.875000000  0.709870000
     0.165130000  0.375000000  0.290130000
     0.625000000  0.415130000  0.290130000

  ion indices of the primitive-cell ions
   primitive index   ion index
                 1           1
                 2           2
                 3           3
                 4           4
                 5           5
                 6           6
                 7           7
                 8           8
                 9           9
                10          10
                11          11
                12          12
                13          13
                14          14
                15          15
                16          16
                17          17
                18          18
                19          19
                20          20
                21          21
                22          22
                23          23
                24          24
                25          25
                26          26
                27          27
                28          28
                29          29
                30          30
                31          31
                32          32
                33          33
                34          34
                35          35
                36          36
                37          37
                38          38
                39          39
                40          40
                41          41
                42          42
                43          43
                44          44
                45          45
                46          46
                47          47
                48          48
                49          49
                50          50
                51          51
                52          52
                53          53
                54          54
                55          55
                56          56
                57          57
                58          58
                59          59
                60          60
                61          61
                62          62
                63          63
                64          64

----------------------------------------------------------------------------------------

 
 
 KPOINTS: Fully automatic kpoint scheme           

Automatic generation of k-mesh.
 generate k-points for:    3    3    3
Space group operators:
 irot       det(A)        alpha          n_x          n_y          n_z        tau_x        tau_y        tau_z
    1     1.000000     0.000000     1.000000     0.000000     0.000000     0.000000     0.000000     0.000000
    2    -1.000000    90.000000     0.000000    -0.000000    -1.000000     0.000000     0.000000     0.000000
    3     1.000000   180.000000     0.000000     0.000000    -1.000000     0.000000     0.000000     0.000000
    4    -1.000000    90.000000     0.000000    -0.000000     1.000000     0.000000     0.000000     0.000000
    5    -1.000000     0.000000     1.000000     0.000000     0.000000    -0.250000     0.250000    -0.500000
    6     1.000000    90.000000     0.000000    -0.000000    -1.000000    -0.250000     0.250000     0.499999
    7    -1.000000   180.000000     0.000000     0.000000    -1.000000    -0.249999     0.250001    -0.500000
    8     1.000000    90.000000     0.000000    -0.000000     1.000000    -0.250000     0.250000     0.499999
    9     1.000000   180.000000     0.000000    -1.000000    -0.000000     0.250000    -0.250000    -0.499999
   10    -1.000000   180.000000     0.000000    -1.000000    -0.000000    -0.500000    -0.500000    -0.000000
   11     1.000000   180.000000     0.707107     0.707107     0.000000    -0.499999    -0.499999    -0.000000
   12    -1.000000   180.000000     0.707107     0.707107     0.000000     0.249999    -0.250001    -0.500000
   13     1.000000   180.000000     1.000000     0.000000     0.000000     0.250000    -0.250000    -0.499999
   14    -1.000000   180.000000     1.000000     0.000000     0.000000    -0.500000    -0.500000    -0.000000
   15     1.000000   180.000000     0.707107    -0.707107    -0.000000    -0.500000    -0.500000    -0.000000
   16    -1.000000   180.000000     0.707107    -0.707107    -0.000000     0.250000    -0.250000    -0.500000
 TETIRR: Found     25 inequivalent tetrahedra from      162
 
 Subroutine IBZKPT returns following result:
 ===========================================
 
 Found      6 irreducible k-points:
 
 Following reciprocal coordinates:
            Coordinates               Weight
  0.000000  0.000000  0.000000      1.000000
  0.333333  0.000000 -0.000000      8.000000
  0.333333  0.333333 -0.000000      8.000000
 -0.333333  0.333333 -0.000000      4.000000
 -0.333333  0.333333  0.333333      4.000000
 -0.333333 -0.333333  0.333333      2.000000
 
 Following cartesian coordinates:
            Coordinates               Weight
  0.000000  0.000000  0.000000      1.000000
  0.000000  0.024456  0.022473      8.000000
  0.024456  0.024456  0.044947      8.000000
  0.024456 -0.024456  0.000000      4.000000
  0.048913 -0.000000  0.000000      4.000000
 -0.000000 -0.000000 -0.044947      2.000000
 


--------------------------------------------------------------------------------------------------------




 Dimension of arrays:
   k-points           NKPTS =      6   k-points in BZ     NKDIM =      6   number of bands    NBANDS=    192
   number of dos      NEDOS =    301   number of ions     NIONS =     64
   non local maximal  LDIM  =      4   non local SUM 2l+1 LMDIM =      8
   total plane-waves  NPLWV = 729000
   max r-space proj   IRMAX =   3984   max aug-charges    IRDMAX=  16300
   dimension x,y,z NGX =    90 NGY =   90 NGZ =   90
   dimension x,y,z NGXF=   180 NGYF=  180 NGZF=  180
   support grid    NGXF=   180 NGYF=  180 NGZF=  180
   ions per type =               8  56
   NGX,Y,Z   is equivalent  to a cutoff of  12.30, 12.30, 12.30 a.u.
   NGXF,Y,Z  is equivalent  to a cutoff of  24.61, 24.61, 24.61 a.u.

 SYSTEM =  unknown system                          
 POSCAR =  Li8 P56                                 

 Startparameter for this run:
   NWRITE =      2    write-flag & timer
   PREC   = accura    normal or accurate (medium, high low for compatibility)
   ISTART =      0    job   : 0-new  1-cont  2-samecut
   ICHARG =      2    charge: 1-file 2-atom 10-const
   ISPIN  =      2    spin polarized calculation?
   LNONCOLLINEAR =      F non collinear calculations
   LSORBIT =      F    spin-orbit coupling
   INIWAV =      1    electr: 0-lowe 1-rand  2-diag
   LASPH  =      T    aspherical Exc in radial PAW
   METAGGA=      F    non-selfconsistent MetaGGA calc.

 Electronic Relaxation 1
   ENCUT  =  520.0 eV  38.22 Ry    6.18 a.u.  22.61 22.61 22.61*2*pi/ulx,y,z
   ENINI  =  520.0     initial cutoff
   ENAUG  =  628.9 eV  augmentation charge cutoff
   NELM   =    100;   NELMIN=  2; NELMDL= -5     # of ELM steps 
   EDIFF  = 0.1E-04   stopping-criterion for ELM
   LREAL  =      T    real-space projection
   NLSPLINE    = F    spline interpolate recip. space projectors
   LCOMPAT=      F    compatible to vasp.4.4
   GGA_COMPAT  = T    GGA compatible to vasp.4.4-vasp.4.6
   LMAXPAW     = -100 max onsite density
   LMAXMIX     =    2 max onsite mixed and CHGCAR
   VOSKOWN=      0    Vosko Wilk Nusair interpolation
   ROPT   =   -0.00025  -0.00025
 Ionic relaxation
   EDIFFG = 0.1E-03   stopping-criterion for IOM
   NSW    =     99    number of steps for IOM
   NBLOCK =      1;   KBLOCK =     99    inner block; outer block 
   IBRION =      2    ionic relax: 0-MD 1-quasi-New 2-CG
   NFREE  =      1    steps in history (QN), initial steepest desc. (CG)
   ISIF   =      3    stress and relaxation
   IWAVPR =     11    prediction:  0-non 1-charg 2-wave 3-comb
   ISYM   =      2    0-nonsym 1-usesym 2-fastsym
   LCORR  =      T    Harris-Foulkes like correction to forces

   POTIM  = 0.5000    time-step for ionic-motion
   TEIN   =    0.0    initial temperature
   TEBEG  =    0.0;   TEEND  =   0.0 temperature during run
   SMASS  =  -3.00    Nose mass-parameter (am)
   estimated Nose-frequenzy (Omega)   =  0.10E-29 period in steps = 0.13E+47 mass=  -0.338E-26a.u.
   SCALEE = 1.0000    scale energy and forces
   NPACO  =    256;   APACO  = 16.0  distance and # of slots for P.C.
   PSTRESS=    0.0 pullay stress

  Mass of Ions in am
   POMASS =   7.01 30.97
  Ionic Valenz
   ZVAL   =   3.00  5.00
  Atomic Wigner-Seitz radii
   RWIGS  =  -1.00 -1.00
  virtual crystal weights 
   VCA    =   1.00  1.00
   NELECT =     304.0000    total number of electrons
   NUPDOWN=      -1.0000    fix difference up-down

 DOS related values:
   EMIN   =  10.00;   EMAX   =-10.00  energy-range for DOS
   EFERMI =   0.00
   ISMEAR =    -5;   SIGMA  =   0.05  broadening in eV -4-tet -1-fermi 0-gaus

 Electronic relaxation 2 (details)
   IALGO  =     68    algorithm
   LDIAG  =      T    sub-space diagonalisation (order eigenvalues)
   LSUBROT=      F    optimize rotation matrix (better conditioning)
   TURBO    =      0    0=normal 1=particle mesh
   IRESTART =      0    0=no restart 2=restart with 2 vectors
   NREBOOT  =      0    no. of reboots
   NMIN     =      0    reboot dimension
   EREF     =   0.00    reference energy to select bands
   IMIX   =      4    mixing-type and parameters
     AMIX     =   0.40;   BMIX     =  1.00
     AMIX_MAG =   1.60;   BMIX_MAG =  1.00
     AMIN     =   0.10
     WC   =   100.;   INIMIX=   1;  MIXPRE=   1;  MAXMIX= -45

 Intra band minimization:
   WEIMIN = 0.0010     energy-eigenvalue tresh-hold
   EBREAK =  0.13E-07  absolut break condition
   DEPER  =   0.30     relativ break condition  

   TIME   =   0.40     timestep for ELM

  volume/ion in A,a.u.               =      21.53       145.27
  Fermi-wavevector in a.u.,A,eV,Ry     =   0.989267  1.869443 13.315329  0.978649
  Thomas-Fermi vector in A             =   2.120853
 
 Write flags
   LWAVE        =      F    write WAVECAR
   LDOWNSAMPLE  =      F    k-point downsampling of WAVECAR
   LCHARG       =      F    write CHGCAR
   LVTOT        =      F    write LOCPOT, total local potential
   LVHAR        =      F    write LOCPOT, Hartree potential only
   LELF         =      F    write electronic localiz. function (ELF)
   LORBIT       =     11    0 simple, 1 ext, 2 COOP (PROOUT), +10 PAW based schemes


 Dipole corrections
   LMONO  =      F    monopole corrections only (constant potential shift)
   LDIPOL =      F    correct potential (dipole corrections)
   IDIPOL =      0    1-x, 2-y, 3-z, 4-all directions 
   EPSILON=  1.0000000 bulk dielectric constant

 Exchange correlation treatment:
   GGA     =    --    GGA type
   LEXCH   =     8    internal setting for exchange type
   VOSKOWN=      0    Vosko Wilk Nusair interpolation
   LHFCALC =     F    Hartree Fock is set to
   LHFONE  =     F    Hartree Fock one center treatment
   AEXX    =    0.0000 exact exchange contribution

 Linear response parameters
   LEPSILON=     F    determine dielectric tensor
   LRPA    =     F    only Hartree local field effects (RPA)
   LNABLA  =     F    use nabla operator in PAW spheres
   LVEL    =     F    velocity operator in full k-point grid
   LINTERFAST=   F  fast interpolation
   KINTER  =     0    interpolate to denser k-point grid
   CSHIFT  =0.1000    complex shift for real part using Kramers Kronig
   OMEGAMAX=  -1.0    maximum frequency
   DEG_THRESHOLD= 0.2000000E-02 threshold for treating states as degnerate
   RTIME   =   -0.100 relaxation time in fs
  (WPLASMAI=    0.000 imaginary part of plasma frequency in eV, 0.658/RTIME)
   DFIELD  = 0.0000000 0.0000000 0.0000000 field for delta impulse in time
 
 Orbital magnetization related:
   ORBITALMAG=     F  switch on orbital magnetization
   LCHIMAG   =     F  perturbation theory with respect to B field
   DQ        =  0.001000  dq finite difference perturbation B field
   LLRAUG    =     F  two centre corrections for induced B field



--------------------------------------------------------------------------------------------------------


 conjugate gradient relaxation of ions
 charge density and potential will be updated during run
 spin polarized calculation
 RMM-DIIS sequential band-by-band and
  variant of blocked Davidson during initial phase
 perform sub-space diagonalisation
    before iterative eigenvector-optimisation
 modified Broyden-mixing scheme, WC =      100.0
 initial mixing is a Kerker type mixing with AMIX =  0.4000 and BMIX =      1.0000
 Hartree-type preconditioning will be used
 using additional bands           40
 real space projection scheme for non local part
 use partial core corrections
 calculate Harris-corrections to forces 
   (improved forces if not selfconsistent)
 use gradient corrections 
 use of overlap-Matrix (Vanderbilt PP)
 Fermi weights with tetrahedron method with Bloechl corrections


--------------------------------------------------------------------------------------------------------


  energy-cutoff  :      520.00
  volume of cell :     1377.71
      direct lattice vectors                 reciprocal lattice vectors
    -6.814890000  6.814890000  7.416174000    -0.000000000  0.073368756  0.067420209
     6.814890000 -6.814890000  7.416174000     0.073368756 -0.000000000  0.067420209
     6.814890000  6.814890000 -7.416174000     0.073368756  0.073368756  0.000000000

  length of vectors
    12.160801299 12.160801299 12.160801299     0.099641652  0.099641652  0.103759089


 
 k-points in units of 2pi/SCALE and weight: Fully automatic kpoint scheme           
   0.00000000  0.00000000  0.00000000       0.037
   0.00000000  0.02445625  0.02247340       0.296
   0.02445625  0.02445625  0.04494681       0.296
   0.02445625 -0.02445625 -0.00000000       0.148
   0.04891250 -0.00000000 -0.00000000       0.148
  -0.00000000 -0.00000000 -0.04494681       0.074
 
 k-points in reciprocal lattice and weights: Fully automatic kpoint scheme           
   0.00000000  0.00000000  0.00000000       0.037
   0.33333333  0.00000000 -0.00000000       0.296
   0.33333333  0.33333333 -0.00000000       0.296
  -0.33333333  0.33333333 -0.00000000       0.148
  -0.33333333  0.33333333  0.33333333       0.148
  -0.33333333 -0.33333333  0.33333333       0.074
 
 position of ions in fractional coordinates (direct lattice) 
   0.11875700  0.11875700  0.73751500
   0.86875700  0.63124300  0.50000000
   0.13124300  0.36875700  0.50000000
   0.38124300  0.38124300  0.26248500
   0.63124300  0.13124300  0.76248500
   0.88124300  0.61875700  0.00000000
   0.61875700  0.88124300  0.00000000
   0.36875700  0.86875700  0.23751500
   0.79392900  0.76773400  0.38279100
   0.51773400  0.63494400  0.47380500
   0.16113900  0.04392900  0.52619500
   0.86505600  0.98226600  0.52619500
   0.45607100  0.33886100  0.47380500
   0.38494400  0.41113900  0.61720900
   0.73226600  0.70607100  0.61720900
   0.08886100  0.11505600  0.38279100
   0.95607100  0.48226600  0.11720900
   0.23226600  0.61505600  0.02619500
   0.58886100  0.20607100  0.97380500
   0.88494400  0.26773400  0.97380500
   0.29392900  0.91113900  0.02619500
   0.36505600  0.83886100  0.88279100
   0.01773400  0.54392900  0.88279100
   0.66113900  0.13494400  0.11720900
   0.58294100  0.70993100  0.24642900
   0.45993100  0.71350100  0.62699000
   0.08651200  0.83294100  0.37301000
   0.78649900  0.04006900  0.37301000
   0.66705900  0.41348800  0.62699000
   0.46350100  0.33651200  0.75357100
   0.79006900  0.91705900  0.75357100
   0.16348800  0.03649900  0.24642900
   0.16705900  0.54006900  0.25357100
   0.29006900  0.53649900  0.87301000
   0.66348800  0.41705900  0.12699000
   0.96350100  0.20993100  0.12699000
   0.08294100  0.83651200  0.87301000
   0.28649900  0.91348800  0.74642900
   0.95993100  0.33294100  0.74642900
   0.58651200  0.21350100  0.25357100
   0.71749100  0.97061400  0.59417000
   0.72061400  0.62644500  0.75312300
   0.87332100  0.96749100  0.24687700
   0.87355500  0.77938600  0.24687700
   0.53250900  0.62667900  0.75312300
   0.37644500  0.12332100  0.40583000
   0.52938600  0.78250900  0.40583000
   0.37667900  0.12355500  0.59417000
   0.03250900  0.27938600  0.90583000
   0.02938600  0.62355500  0.74687700
   0.87667900  0.28250900  0.25312300
   0.87644500  0.47061400  0.25312300
   0.21749100  0.62332100  0.74687700
   0.37355500  0.12667900  0.09417000
   0.22061400  0.46749100  0.09417000
   0.37332100  0.12644500  0.90583000
   0.62500000  0.91513000  0.79013000
   0.66513000  0.37500000  0.79013000
   0.58487000  0.87500000  0.20987000
   0.12500000  0.83487000  0.20987000
   0.12500000  0.33487000  0.70987000
   0.08487000  0.87500000  0.70987000
   0.16513000  0.37500000  0.29013000
   0.62500000  0.41513000  0.29013000
 
 position of ions in cartesian coordinates  (Angst):
   5.02608360  5.02608360 -3.70809442
   1.78881322  5.02607678  7.41617400
   5.02607678  1.78881322  0.00000000
   1.78880640  1.78880640  3.70809442
   1.78880640  8.60369640  0.00000742
  -1.78881322  1.78881322 11.12426100
   1.78881322 -1.78881322 11.12426100
   5.02608360 -1.78880640  7.41616658
   2.43016251  2.78719460  8.74271988
   4.02770221  2.43015570  5.03464029
   2.78718779  4.38473430 -2.38153371
   4.38473430  2.78718779  9.79770771
   2.43015570  4.02770221  2.38153371
   4.38472749  4.02769540  1.32656071
   4.02769540  4.38472749  6.08962812
   2.78719460  2.43016251 -1.32656071
  -2.43016251  4.02769540  9.79771512
   2.78718779 -2.43015570  6.08962071
   4.02770221  9.24504570 -1.32655329
   2.43015570 10.84259221  1.32655329
   4.38473430 -4.02770221  8.74272729
   9.24505251  2.78719460  2.38152629
   9.60208460  2.43016251 -2.38154112
  -2.78719460  4.38472749  5.03464771
   2.54480941  0.81396365  7.76060337
   6.00091954  2.54481622  4.05250895
   7.62885365 -2.54480941  4.05251637
  -2.54481622  7.62886046  3.36366505
   2.54480941  6.00092635  3.36365763
   4.27008741  6.00091954  0.34442195
   6.00092635  4.27008059  7.07174463
   0.81397046  2.54480259 -0.34442195
   4.27008059 -0.81396365  3.36365763
   7.62886046  4.27007378 -0.34442195
  -0.81396365  2.54480941  7.07174463
  -4.27007378  6.00091954  7.76059595
  11.08497059  0.81396365  0.34442937
   9.35969259  0.81397046  3.36366505
   0.81396365  9.35969941  4.05251637
  -0.81397046  4.27008741  4.05250895
   5.77420859  2.32419779  8.11281230
   4.49069903  5.77420178  4.40473272
   2.32419779  1.04068141 11.82089930
   1.04068822  2.32419097 10.42761528
   5.77420859  4.49069221  3.01144870
   1.04067459  4.49069903  0.69664572
   4.49069221  1.04068141  6.71953570
   2.32419097  5.77421541 -0.69664572
   7.85557141  4.49069221 -4.40472530
   9.13908097  1.04068822 -0.69664572
  -2.32419779  5.77420859  6.71953570
  -1.04068822  4.49069903  8.11281972
   7.85557141  2.32419779  0.69663830
  -1.04067459  2.32419097  3.01144128
   2.32419779 -1.04068141  4.40472530
   4.49069903  7.85556459 -3.01144128
   7.36185307  3.40744500  5.56213050
   3.40744500  7.36185307  1.85404350
   3.40744500 -0.54696307  9.27021750
   6.26792693 -3.40744500  5.56213050
   6.26792693  3.40744500 -1.85404350
  10.22233500 -0.54696307  1.85404350
   3.40744500  0.54696307  1.85404350
   0.54696307  3.40744500  5.56213050
 


--------------------------------------------------------------------------------------------------------


 k-point   1 :   0.0000 0.0000 0.0000  plane waves:   37167
 k-point   2 :   0.3333 0.0000-0.0000  plane waves:   37081
 k-point   3 :   0.3333 0.3333-0.0000  plane waves:   37081
 k-point   4 :  -0.3333 0.3333-0.0000  plane waves:   37054
 k-point   5 :  -0.3333 0.3333 0.3333  plane waves:   37134
 k-point   6 :  -0.3333-0.3333 0.3333  plane waves:   37124

 maximum and minimum number of plane-waves per node :      6233     6141

 maximum number of plane-waves:     37167
 maximum index in each direction: 
   IXMAX=   22   IYMAX=   22   IZMAX=   22
   IXMIN=  -22   IYMIN=  -22   IZMIN=  -22


 real space projection operators:
  total allocation   :      14195.44 KBytes
  max/ min on nodes  :       2371.50       2358.94


 parallel 3D FFT for wavefunctions:
    minimum data exchange during FFTs selected (reduces bandwidth)
 parallel 3D FFT for charge:
    minimum data exchange during FFTs selected (reduces bandwidth)


 total amount of memory used by VASP MPI-rank0    81089. kBytes
=======================================================================

   base      :      30000. kBytes
   nonlr-proj:       7218. kBytes
   fftplans  :       6806. kBytes
   grid      :      17608. kBytes
   one-center:         67. kBytes
   wavefun   :      19390. kBytes
 
     INWAV:  cpu time    0.0000: real time    0.0000
 Broyden mixing: mesh for mixing (old mesh)
   NGX = 45   NGY = 45   NGZ = 45
  (NGX  =180   NGY  =180   NGZ  =180)
  gives a total of  91125 points

 initial charge density was supplied:
 charge density of overlapping atoms calculated
 number of electron     304.0000000 magnetization       0.0000000
 keeping initial charge density in first step


--------------------------------------------------------------------------------------------------------


 Maximum index for non-local projection operator          653
 Maximum index for augmentation-charges          676 (set IRDMAX)


--------------------------------------------------------------------------------------------------------


 First call to EWALD:  gamma=   0.159
 Maximum number of real-space cells 3x 3x 3
 Maximum number of reciprocal cells 3x 3x 3

    FEWALD:  cpu time    0.0054: real time    0.0054


--------------------------------------- Iteration      1(   1)  ---------------------------------------


    POTLOK:  cpu time    0.1952: real time    0.2006
    SETDIJ:  cpu time    0.2206: real time    0.2206
     EDDAV:  cpu time    8.6553: real time    8.6649
 BZINTS: Fermi energy:   13.898834;  304.000000 electrons
         Band energy: 0.622907E+03;  BLOECHL correction:   -0.000463
       DOS:  cpu time    0.0127: real time    0.0127
    --------------------------------------------
      LOOP:  cpu time    9.0838: real time    9.0988

 eigenvalue-minimisations  :  4692
 total energy-change (2. order) : 0.1616621E+04  (-0.1219031E+05)
 number of electron     304.0000000 magnetization       0.0000000
 augmentation part      304.0000000 magnetization       0.0000000

 Free energy of the ion-electron system (eV)
  ---------------------------------------------------
  alpha Z        PSCENC =       261.32283722
  Ewald energy   TEWEN  =     -9062.61347647
  -Hartree energ DENC   =     -2303.86265420
  -exchange      EXHF   =         0.00000000
  -V(xc)+E(xc)   XCENC  =       284.53778253
  PAW double counting   =      8464.65468221    -8130.85701967
  entropy T*S    EENTRO =         0.00000000
  eigenvalues    EBANDS =       622.90669132
  atomic energy  EATOM  =     11480.53177481
  Solvation  Ediel_sol  =         0.00000000
  ---------------------------------------------------
  free energy    TOTEN  =      1616.62061776 eV

  energy without entropy =     1616.62061776  energy(sigma->0) =     1616.62061776


--------------------------------------------------------------------------------------------------------




--------------------------------------- Iteration      1(   2)  ---------------------------------------


     EDDAV:  cpu time    9.6426: real time    9.6432
 BZINTS: Fermi energy:    5.403830;  304.000000 electrons
         Band energy:-0.112172E+04;  BLOECHL correction:   -0.000000
       DOS:  cpu time    0.0083: real time    0.0083
    --------------------------------------------
      LOOP:  cpu time    9.6509: real time    9.6514

 eigenvalue-minimisations  :  5448
 total energy-change (2. order) :-0.1744625E+04  (-0.1659227E+04)
 number of electron     304.0000000 magnetization       0.0000000
 augmentation part      304.0000000 magnetization       0.0000000

 Free energy of the ion-electron system (eV)
  ---------------------------------------------------
  alpha Z        PSCENC =       261.32283722
  Ewald energy   TEWEN  =     -9062.61347647
  -Hartree energ DENC   =     -2303.86265420
  -exchange      EXHF   =         0.00000000
  -V(xc)+E(xc)   XCENC  =       284.53778253
  PAW double counting   =      8464.65468221    -8130.85701967
  entropy T*S    EENTRO =         0.00000000
  eigenvalues    EBANDS =     -1121.71815147
  atomic energy  EATOM  =     11480.53177481
  Solvation  Ediel_sol  =         0.00000000
  ---------------------------------------------------
  free energy    TOTEN  =      -128.00422503 eV

  energy without entropy =     -128.00422503  energy(sigma->0) =     -128.00422503


--------------------------------------------------------------------------------------------------------




--------------------------------------- Iteration      1(   3)  ---------------------------------------


     EDDAV:  cpu time   10.3028: real time   10.3037
 BZINTS: Fermi energy:    3.370098;  304.000000 electrons
         Band energy:-0.130953E+04;  BLOECHL correction:    0.000000
       DOS:  cpu time    0.0082: real time    0.0082
    --------------------------------------------
      LOOP:  cpu time   10.3110: real time   10.3119

 eigenvalue-minimisations  :  5916
 total energy-change (2. order) :-0.1878157E+03  (-0.1851597E+03)
 number of electron     304.0000000 magnetization       0.0000000
 augmentation part      304.0000000 magnetization       0.0000000

 Free energy of the ion-electron system (eV)
  ---------------------------------------------------
  alpha Z        PSCENC =       261.32283722
  Ewald energy   TEWEN  =     -9062.61347647
  -Hartree energ DENC   =     -2303.86265420
  -exchange      EXHF   =         0.00000000
  -V(xc)+E(xc)   XCENC  =       284.53778253
  PAW double counting   =      8464.65468221    -8130.85701967
  entropy T*S    EENTRO =         0.00000000
  eigenvalues    EBANDS =     -1309.53384688
  atomic energy  EATOM  =     11480.53177481
  Solvation  Ediel_sol  =         0.00000000
  ---------------------------------------------------
  free energy    TOTEN  =      -315.81992044 eV

  energy without entropy =     -315.81992044  energy(sigma->0) =     -315.81992044


--------------------------------------------------------------------------------------------------------




--------------------------------------- Iteration      1(   4)  ---------------------------------------


     EDDAV:  cpu time   13.2147: real time   13.2155
 BZINTS: Fermi energy:    3.280371;  304.000000 electrons
         Band energy:-0.132367E+04;  BLOECHL correction:    0.000000
       DOS:  cpu time    0.0082: real time    0.0082
    --------------------------------------------
      LOOP:  cpu time   13.2229: real time   13.2237

 eigenvalue-minimisations  :  7980
 total energy-change (2. order) :-0.1413902E+02  (-0.1408094E+02)
 number of electron     304.0000000 magnetization       0.0000000
 augmentation part      304.0000000 magnetization       0.0000000

 Free energy of the ion-electron system (eV)
  ---------------------------------------------------
  alpha Z        PSCENC =       261.32283722
  Ewald energy   TEWEN  =     -9062.61347647
  -Hartree energ DENC   =     -2303.86265420
  -exchange      EXHF   =         0.00000000
  -V(xc)+E(xc)   XCENC  =       284.53778253
  PAW double counting   =      8464.65468221    -8130.85701967
  entropy T*S    EENTRO =         0.00000000
  eigenvalues    EBANDS =     -1323.67286660
  atomic energy  EATOM  =     11480.53177481
  Solvation  Ediel_sol  =         0.00000000
  ---------------------------------------------------
  free energy    TOTEN  =      -329.95894016 eV

  energy without entropy =     -329.95894016  energy(sigma->0) =     -329.95894016


--------------------------------------------------------------------------------------------------------




--------------------------------------- Iteration      1(   5)  ---------------------------------------


     EDDAV:  cpu time   13.2643: real time   13.2650
 BZINTS: Fermi energy:    3.276994;  304.000000 electrons
         Band energy:-0.132652E+04;  BLOECHL correction:    0.000000
       DOS:  cpu time    0.0082: real time    0.0082
    CHARGE:  cpu time    0.6768: real time    0.6769
    MIXING:  cpu time    0.0038: real time    0.0038
    --------------------------------------------
      LOOP:  cpu time   13.9533: real time   13.9540

 eigenvalue-minimisations  :  8064
 total energy-change (2. order) :-0.2843353E+01  (-0.2842013E+01)
 number of electron     304.0000070 magnetization       0.0000000
 augmentation part      -22.2684754 magnetization       0.0014196

 Broyden mixing:
  rms(total) = 0.37334E+01    rms(broyden)= 0.37331E+01
  rms(prec ) = 0.39382E+01
  weight for this iteration     100.00

 Free energy of the ion-electron system (eV)
  ---------------------------------------------------
  alpha Z        PSCENC =       261.32283722
  Ewald energy   TEWEN  =     -9062.61347647
  -Hartree energ DENC   =     -2303.86265420
  -exchange      EXHF   =         0.00000000
  -V(xc)+E(xc)   XCENC  =       284.53778253
  PAW double counting   =      8464.65468221    -8130.85701967
  entropy T*S    EENTRO =         0.00000000
  eigenvalues    EBANDS =     -1326.51621961
  atomic energy  EATOM  =     11480.53177481
  Solvation  Ediel_sol  =         0.00000000
  ---------------------------------------------------
  free energy    TOTEN  =      -332.80229316 eV

  energy without entropy =     -332.80229316  energy(sigma->0) =     -332.80229316


--------------------------------------------------------------------------------------------------------




--------------------------------------- Iteration      1(   6)  ---------------------------------------


    POTLOK:  cpu time    0.1968: real time    0.1968
    SETDIJ:  cpu time    0.2409: real time    0.2409
    EDDIAG:  cpu time    1.8676: real time    1.8677
  RMM-DIIS:  cpu time    5.5039: real time    5.5041
    ORTHCH:  cpu time    0.2987: real time    0.2987
 BZINTS: Fermi energy:    3.514946;  304.000000 electrons
         Band energy:-0.127896E+04;  BLOECHL correction:    0.000000
       DOS:  cpu time    0.0077: real time    0.0077
    CHARGE:  cpu time    0.6605: real time    0.6605
    MIXING:  cpu time    0.0032: real time    0.0032
    --------------------------------------------
      LOOP:  cpu time    8.7793: real time    8.7797

 eigenvalue-minimisations  :  5517
 total energy-change (2. order) : 0.3509158E+01  (-0.4706287E+00)
 number of electron     304.0000069 magnetization       0.0000000
 augmentation part      -22.1163941 magnetization       0.0013811

 Broyden mixing:
  rms(total) = 0.22534E+01    rms(broyden)= 0.22534E+01
  rms(prec ) = 0.23558E+01
  weight for this iteration     100.00

 eigenvalues of (default mixing * dielectric matrix)
  average eigenvalue GAMMA=   2.5019
  2.5019

 Free energy of the ion-electron system (eV)
  ---------------------------------------------------
  alpha Z        PSCENC =       261.32283722
  Ewald energy   TEWEN  =     -9062.61347647
  -Hartree energ DENC   =     -2349.37162223
  -exchange      EXHF   =         0.00000000
  -V(xc)+E(xc)   XCENC  =       289.70240281
  PAW double counting   =     15307.86260471   -14977.77183638
  entropy T*S    EENTRO =         0.00000000
  eigenvalues    EBANDS =     -1278.95582012
  atomic energy  EATOM  =     11480.53177481
  Solvation  Ediel_sol  =         0.00000000
  ---------------------------------------------------
  free energy    TOTEN  =      -329.29313565 eV

  energy without entropy =     -329.29313565  energy(sigma->0) =     -329.29313565


--------------------------------------------------------------------------------------------------------




--------------------------------------- Iteration      1(   7)  ---------------------------------------


    POTLOK:  cpu time    0.1976: real time    0.1976
    SETDIJ:  cpu time    0.2408: real time    0.2408
    EDDIAG:  cpu time    1.8932: real time    1.8933
  RMM-DIIS:  cpu time    5.6229: real time    5.6233
    ORTHCH:  cpu time    0.2760: real time    0.2761
 BZINTS: Fermi energy:    3.903793;  304.000000 electrons
         Band energy:-0.121254E+04;  BLOECHL correction:    0.000000
       DOS:  cpu time    0.0075: real time    0.0075
    CHARGE:  cpu time    0.6621: real time    0.6621
    MIXING:  cpu time    0.0032: real time    0.0032
    --------------------------------------------
      LOOP:  cpu time    8.9033: real time    8.9038

 eigenvalue-minimisations  :  5555
 total energy-change (2. order) : 0.6387930E+00  (-0.8588082E+00)
 number of electron     304.0000069 magnetization       0.0000000
 augmentation part      -21.8779467 magnetization       0.0012823

 Broyden mixing:
  rms(total) = 0.22469E+00    rms(broyden)= 0.22469E+00
  rms(prec ) = 0.32570E+00
  weight for this iteration     100.00

 eigenvalues of (default mixing * dielectric matrix)
  average eigenvalue GAMMA=   2.1219
  1.7686  2.4751

 Free energy of the ion-electron system (eV)
  ---------------------------------------------------
  alpha Z        PSCENC =       261.32283722
  Ewald energy   TEWEN  =     -9062.61347647
  -Hartree energ DENC   =     -2418.55543280
  -exchange      EXHF   =         0.00000000
  -V(xc)+E(xc)   XCENC  =       298.04689329
  PAW double counting   =     29915.37990823   -29590.23062821
  entropy T*S    EENTRO =         0.00000000
  eigenvalues    EBANDS =     -1212.53621876
  atomic energy  EATOM  =     11480.53177481
  Solvation  Ediel_sol  =         0.00000000
  ---------------------------------------------------
  free energy    TOTEN  =      -328.65434270 eV

  energy without entropy =     -328.65434270  energy(sigma->0) =     -328.65434270


--------------------------------------------------------------------------------------------------------




--------------------------------------- Iteration      1(   8)  ---------------------------------------


    POTLOK:  cpu time    0.1933: real time    0.1933
    SETDIJ:  cpu time    0.2407: real time    0.2407
    EDDIAG:  cpu time    1.8581: real time    1.8582
  RMM-DIIS:  cpu time    5.7674: real time    5.7679
    ORTHCH:  cpu time    0.3014: real time    0.3014
 BZINTS: Fermi energy:    3.702337;  304.000000 electrons
         Band energy:-0.121937E+04;  BLOECHL correction:    0.000000
       DOS:  cpu time    0.0078: real time    0.0078
    CHARGE:  cpu time    0.6672: real time    0.6672
    MIXING:  cpu time    0.0034: real time    0.0034
    --------------------------------------------
      LOOP:  cpu time    9.0393: real time    9.0400

 eigenvalue-minimisations  :  5607
 total energy-change (2. order) : 0.1229515E+00  (-0.1596148E+00)
 number of electron     304.0000069 magnetization       0.0000000
 augmentation part      -21.9491767 magnetization       0.0012642

 Broyden mixing:
  rms(total) = 0.74362E-01    rms(broyden)= 0.74349E-01
  rms(prec ) = 0.10742E+00
  weight for this iteration     100.00

 eigenvalues of (default mixing * dielectric matrix)
  average eigenvalue GAMMA=   1.7582
  2.5066  1.3839  1.3839

 Free energy of the ion-electron system (eV)
  ---------------------------------------------------
  alpha Z        PSCENC =       261.32283722
  Ewald energy   TEWEN  =     -9062.61347647
  -Hartree energ DENC   =     -2412.03547960
  -exchange      EXHF   =         0.00000000
  -V(xc)+E(xc)   XCENC  =       297.90537873
  PAW double counting   =     30541.35836251   -30215.63382010
  entropy T*S    EENTRO =         0.00000000
  eigenvalues    EBANDS =     -1219.36696831
  atomic energy  EATOM  =     11480.53177481
  Solvation  Ediel_sol  =         0.00000000
  ---------------------------------------------------
  free energy    TOTEN  =      -328.53139121 eV

  energy without entropy =     -328.53139121  energy(sigma->0) =     -328.53139121


--------------------------------------------------------------------------------------------------------




--------------------------------------- Iteration      1(   9)  ---------------------------------------


    POTLOK:  cpu time    0.1828: real time    0.1828
    SETDIJ:  cpu time    0.2410: real time    0.2410
    EDDIAG:  cpu time    1.8392: real time    1.8393
  RMM-DIIS:  cpu time    7.4742: real time    7.4746
    ORTHCH:  cpu time    0.2938: real time    0.2938
 BZINTS: Fermi energy:    3.767058;  304.000000 electrons
         Band energy:-0.121631E+04;  BLOECHL correction:    0.000000
       DOS:  cpu time    0.0081: real time    0.0081
    CHARGE:  cpu time    0.6617: real time    0.6618
    MIXING:  cpu time    0.0036: real time    0.0036
    --------------------------------------------
      LOOP:  cpu time   10.7045: real time   10.7051

 eigenvalue-minimisations  :  7376
 total energy-change (2. order) :-0.5444936E-02  (-0.3756439E-01)
 number of electron     304.0000069 magnetization       0.0000000
 augmentation part      -21.9750521 magnetization       0.0010899

 Broyden mixing:
  rms(total) = 0.61475E-01    rms(broyden)= 0.61449E-01
  rms(prec ) = 0.72228E-01
  weight for this iteration     100.00

 eigenvalues of (default mixing * dielectric matrix)
  average eigenvalue GAMMA=   1.5103
  2.4713  1.5295  1.5295  0.5107

 Free energy of the ion-electron system (eV)
  ---------------------------------------------------
  alpha Z        PSCENC =       261.32283722
  Ewald energy   TEWEN  =     -9062.61347647
  -Hartree energ DENC   =     -2415.16315751
  -exchange      EXHF   =         0.00000000
  -V(xc)+E(xc)   XCENC  =       298.19017350
  PAW double counting   =     30736.49049232   -30410.98963150
  entropy T*S    EENTRO =         0.00000000
  eigenvalues    EBANDS =     -1216.30584851
  atomic energy  EATOM  =     11480.53177481
  Solvation  Ediel_sol  =         0.00000000
  ---------------------------------------------------
  free energy    TOTEN  =      -328.53683614 eV

  energy without entropy =     -328.53683614  energy(sigma->0) =     -328.53683614


--------------------------------------------------------------------------------------------------------




--------------------------------------- Iteration      1(  10)  ---------------------------------------


    POTLOK:  cpu time    0.1888: real time    0.1888
    SETDIJ:  cpu time    0.2411: real time    0.2411
    EDDIAG:  cpu time    1.9091: real time    1.9091
  RMM-DIIS:  cpu time    8.0040: real time    8.0045
    ORTHCH:  cpu time    0.2866: real time    0.2867
 BZINTS: Fermi energy:    3.762834;  304.000000 electrons
         Band energy:-0.121652E+04;  BLOECHL correction:    0.000000
       DOS:  cpu time    0.0079: real time    0.0079
    CHARGE:  cpu time    0.6637: real time    0.6638
    MIXING:  cpu time    0.0035: real time    0.0035
    --------------------------------------------
      LOOP:  cpu time   11.3047: real time   11.3054

 eigenvalue-minimisations  :  7813
 total energy-change (2. order) :-0.8073578E-02  (-0.9591445E-02)
 number of electron     304.0000068 magnetization       0.0000000
 augmentation part      -21.9964162 magnetization       0.0007683

 Broyden mixing:
  rms(total) = 0.49499E-01    rms(broyden)= 0.49480E-01
  rms(prec ) = 0.57473E-01
  weight for this iteration     100.00

 eigenvalues of (default mixing * dielectric matrix)
  average eigenvalue GAMMA=   1.6570
  2.4846  2.4846  1.2985  1.2985  0.7184

 Free energy of the ion-electron system (eV)
  ---------------------------------------------------
  alpha Z        PSCENC =       261.32283722
  Ewald energy   TEWEN  =     -9062.61347647
  -Hartree energ DENC   =     -2414.95154991
  -exchange      EXHF   =         0.00000000
  -V(xc)+E(xc)   XCENC  =       298.19384598
  PAW double counting   =     30674.33683050   -30348.84346466
  entropy T*S    EENTRO =         0.00000000
  eigenvalues    EBANDS =     -1216.52170719
  atomic energy  EATOM  =     11480.53177481
  Solvation  Ediel_sol  =         0.00000000
  ---------------------------------------------------
  free energy    TOTEN  =      -328.54490972 eV

  energy without entropy =     -328.54490972  energy(sigma->0) =     -328.54490972


--------------------------------------------------------------------------------------------------------




--------------------------------------- Iteration      1(  11)  ---------------------------------------


    POTLOK:  cpu time    0.1971: real time    0.1971
    SETDIJ:  cpu time    0.2415: real time    0.2415
    EDDIAG:  cpu time    1.8925: real time    1.8926
  RMM-DIIS:  cpu time    7.1780: real time    7.1786
    ORTHCH:  cpu time    0.3079: real time    0.3079
 BZINTS: Fermi energy:    3.746630;  304.000000 electrons
         Band energy:-0.121668E+04;  BLOECHL correction:    0.000000
       DOS:  cpu time    0.0076: real time    0.0076
    CHARGE:  cpu time    0.6802: real time    0.6803
    MIXING:  cpu time    0.0036: real time    0.0036
    --------------------------------------------
      LOOP:  cpu time   10.5083: real time   10.5090

 eigenvalue-minimisations  :  7026
 total energy-change (2. order) :-0.2980118E-02  (-0.4232256E-02)
 number of electron     304.0000068 magnetization       0.0000000
 augmentation part      -22.0098097 magnetization       0.0005755

 Broyden mixing:
  rms(total) = 0.17911E-01    rms(broyden)= 0.17891E-01
  rms(prec ) = 0.22045E-01
  weight for this iteration     100.00

 eigenvalues of (default mixing * dielectric matrix)
  average eigenvalue GAMMA=   1.5854
  2.4979  2.0337  2.0337  1.1540  1.1540  0.6391

 Free energy of the ion-electron system (eV)
  ---------------------------------------------------
  alpha Z        PSCENC =       261.32283722
  Ewald energy   TEWEN  =     -9062.61347647
  -Hartree energ DENC   =     -2414.82724234
  -exchange      EXHF   =         0.00000000
  -V(xc)+E(xc)   XCENC  =       298.21302356
  PAW double counting   =     30515.96332084   -30190.45519381
  entropy T*S    EENTRO =         0.00000000
  eigenvalues    EBANDS =     -1216.68293366
  atomic energy  EATOM  =     11480.53177481
  Solvation  Ediel_sol  =         0.00000000
  ---------------------------------------------------
  free energy    TOTEN  =      -328.54788984 eV

  energy without entropy =     -328.54788984  energy(sigma->0) =     -328.54788984


--------------------------------------------------------------------------------------------------------




--------------------------------------- Iteration      1(  12)  ---------------------------------------


    POTLOK:  cpu time    0.2004: real time    0.2004
    SETDIJ:  cpu time    0.2400: real time    0.2400
    EDDIAG:  cpu time    1.8657: real time    1.8658
  RMM-DIIS:  cpu time    8.0298: real time    8.0302
    ORTHCH:  cpu time    0.2879: real time    0.2879
 BZINTS: Fermi energy:    3.753443;  304.000000 electrons
         Band energy:-0.121571E+04;  BLOECHL correction:    0.000000
       DOS:  cpu time    0.0077: real time    0.0077
    CHARGE:  cpu time    0.6724: real time    0.6724
    MIXING:  cpu time    0.0037: real time    0.0037
    --------------------------------------------
      LOOP:  cpu time   11.3076: real time   11.3081

 eigenvalue-minimisations  :  7764
 total energy-change (2. order) :-0.1949574E-02  (-0.2248983E-02)
 number of electron     304.0000068 magnetization       0.0000000
 augmentation part      -22.0154690 magnetization       0.0004473

 Broyden mixing:
  rms(total) = 0.70283E-02    rms(broyden)= 0.69915E-02
  rms(prec ) = 0.83540E-02
  weight for this iteration     100.00

 eigenvalues of (default mixing * dielectric matrix)
  average eigenvalue GAMMA=   1.4612
  2.3856  2.0594  2.0594  1.3702  0.8646  0.8646  0.6248

 Free energy of the ion-electron system (eV)
  ---------------------------------------------------
  alpha Z        PSCENC =       261.32283722
  Ewald energy   TEWEN  =     -9062.61347647
  -Hartree energ DENC   =     -2415.85807489
  -exchange      EXHF   =         0.00000000
  -V(xc)+E(xc)   XCENC  =       298.30912821
  PAW double counting   =     30605.21511356   -30279.74635422
  entropy T*S    EENTRO =         0.00000000
  eigenvalues    EBANDS =     -1215.71078764
  atomic energy  EATOM  =     11480.53177481
  Solvation  Ediel_sol  =         0.00000000
  ---------------------------------------------------
  free energy    TOTEN  =      -328.54983941 eV

  energy without entropy =     -328.54983941  energy(sigma->0) =     -328.54983941


--------------------------------------------------------------------------------------------------------




--------------------------------------- Iteration      1(  13)  ---------------------------------------


    POTLOK:  cpu time    0.2005: real time    0.2005
    SETDIJ:  cpu time    0.2406: real time    0.2407
    EDDIAG:  cpu time    1.8870: real time    1.8871
  RMM-DIIS:  cpu time    8.3922: real time    8.3928
    ORTHCH:  cpu time    0.2955: real time    0.2955
 BZINTS: Fermi energy:    3.753354;  304.000000 electrons
         Band energy:-0.121557E+04;  BLOECHL correction:    0.000000
       DOS:  cpu time    0.0078: real time    0.0078
    CHARGE:  cpu time    0.6693: real time    0.6693
    MIXING:  cpu time    0.0042: real time    0.0042
    --------------------------------------------
      LOOP:  cpu time   11.6971: real time   11.6978

 eigenvalue-minimisations  :  8102
 total energy-change (2. order) :-0.1579969E-02  (-0.1449396E-02)
 number of electron     304.0000068 magnetization       0.0000000
 augmentation part      -22.0244190 magnetization       0.0003142

 Broyden mixing:
  rms(total) = 0.56066E-02    rms(broyden)= 0.55676E-02
  rms(prec ) = 0.72891E-02
  weight for this iteration     100.00

 eigenvalues of (default mixing * dielectric matrix)
  average eigenvalue GAMMA=   1.5031
  2.3912  2.3281  2.3281  1.3168  1.3168  0.8588  0.8588  0.6260

 Free energy of the ion-electron system (eV)
  ---------------------------------------------------
  alpha Z        PSCENC =       261.32283722
  Ewald energy   TEWEN  =     -9062.61347647
  -Hartree energ DENC   =     -2416.03290026
  -exchange      EXHF   =         0.00000000
  -V(xc)+E(xc)   XCENC  =       298.32473809
  PAW double counting   =     30590.05759157   -30264.57066793
  entropy T*S    EENTRO =         0.00000000
  eigenvalues    EBANDS =     -1215.57131641
  atomic energy  EATOM  =     11480.53177481
  Solvation  Ediel_sol  =         0.00000000
  ---------------------------------------------------
  free energy    TOTEN  =      -328.55141938 eV

  energy without entropy =     -328.55141938  energy(sigma->0) =     -328.55141938


--------------------------------------------------------------------------------------------------------




--------------------------------------- Iteration      1(  14)  ---------------------------------------


    POTLOK:  cpu time    0.1905: real time    0.1905
    SETDIJ:  cpu time    0.2400: real time    0.2401
    EDDIAG:  cpu time    1.9092: real time    1.9093
  RMM-DIIS:  cpu time    8.0780: real time    8.0785
    ORTHCH:  cpu time    0.3003: real time    0.3003
 BZINTS: Fermi energy:    3.754788;  304.000000 electrons
         Band energy:-0.121530E+04;  BLOECHL correction:   -0.000000
       DOS:  cpu time    0.0092: real time    0.0092
    CHARGE:  cpu time    0.6694: real time    0.6694
    MIXING:  cpu time    0.0051: real time    0.0051
    --------------------------------------------
      LOOP:  cpu time   11.4018: real time   11.4025

 eigenvalue-minimisations  :  7743
 total energy-change (2. order) :-0.6782537E-03  (-0.7172973E-03)
 number of electron     304.0000068 magnetization       0.0000000
 augmentation part      -22.0274120 magnetization       0.0002372

 Broyden mixing:
  rms(total) = 0.38183E-02    rms(broyden)= 0.37908E-02
  rms(prec ) = 0.46374E-02
  weight for this iteration     100.00

 eigenvalues of (default mixing * dielectric matrix)
  average eigenvalue GAMMA=   1.6211
  3.0575  2.5050  2.1366  2.1366  1.1981  1.1981  0.8694  0.8694  0.6195

 Free energy of the ion-electron system (eV)
  ---------------------------------------------------
  alpha Z        PSCENC =       261.32283722
  Ewald energy   TEWEN  =     -9062.61347647
  -Hartree energ DENC   =     -2416.35361606
  -exchange      EXHF   =         0.00000000
  -V(xc)+E(xc)   XCENC  =       298.34552240
  PAW double counting   =     30586.75320913   -30261.23465883
  entropy T*S    EENTRO =         0.00000000
  eigenvalues    EBANDS =     -1215.30368984
  atomic energy  EATOM  =     11480.53177481
  Solvation  Ediel_sol  =         0.00000000
  ---------------------------------------------------
  free energy    TOTEN  =      -328.55209764 eV

  energy without entropy =     -328.55209764  energy(sigma->0) =     -328.55209764


--------------------------------------------------------------------------------------------------------




--------------------------------------- Iteration      1(  15)  ---------------------------------------


    POTLOK:  cpu time    0.1957: real time    0.1957
    SETDIJ:  cpu time    0.2404: real time    0.2404
    EDDIAG:  cpu time    1.8726: real time    1.8727
  RMM-DIIS:  cpu time    7.6658: real time    7.6662
    ORTHCH:  cpu time    0.3020: real time    0.3020
 BZINTS: Fermi energy:    3.752507;  304.000000 electrons
         Band energy:-0.121537E+04;  BLOECHL correction:    0.000000
       DOS:  cpu time    0.0072: real time    0.0072
    CHARGE:  cpu time    0.6715: real time    0.6715
    MIXING:  cpu time    0.0039: real time    0.0039
    --------------------------------------------
      LOOP:  cpu time   10.9591: real time   10.9596

 eigenvalue-minimisations  :  7452
 total energy-change (2. order) :-0.3613437E-03  (-0.3836173E-03)
 number of electron     304.0000068 magnetization       0.0000000
 augmentation part      -22.0314700 magnetization       0.0001849

 Broyden mixing:
  rms(total) = 0.37595E-02    rms(broyden)= 0.37477E-02
  rms(prec ) = 0.54417E-02
  weight for this iteration     100.00

 eigenvalues of (default mixing * dielectric matrix)
  average eigenvalue GAMMA=   1.6484
  3.7906  2.5140  2.5140  1.7649  1.3743  1.3743  0.9384  0.9384  0.6624  0.6128

 Free energy of the ion-electron system (eV)
  ---------------------------------------------------
  alpha Z        PSCENC =       261.32283722
  Ewald energy   TEWEN  =     -9062.61347647
  -Hartree energ DENC   =     -2416.32988811
  -exchange      EXHF   =         0.00000000
  -V(xc)+E(xc)   XCENC  =       298.35036317
  PAW double counting   =     30592.52671821   -30266.97396553
  entropy T*S    EENTRO =         0.00000000
  eigenvalues    EBANDS =     -1215.36682227
  atomic energy  EATOM  =     11480.53177481
  Solvation  Ediel_sol  =         0.00000000
  ---------------------------------------------------
  free energy    TOTEN  =      -328.55245898 eV

  energy without entropy =     -328.55245898  energy(sigma->0) =     -328.55245898


--------------------------------------------------------------------------------------------------------




--------------------------------------- Iteration      1(  16)  ---------------------------------------


    POTLOK:  cpu time    0.1901: real time    0.1901
    SETDIJ:  cpu time    0.2408: real time    0.2408
    EDDIAG:  cpu time    1.9278: real time    1.9278
  RMM-DIIS:  cpu time    7.9783: real time    7.9788
    ORTHCH:  cpu time    0.2952: real time    0.2952
 BZINTS: Fermi energy:    3.754111;  304.000000 electrons
         Band energy:-0.121516E+04;  BLOECHL correction:    0.000000
       DOS:  cpu time    0.0080: real time    0.0080
    CHARGE:  cpu time    0.6768: real time    0.6769
    MIXING:  cpu time    0.0040: real time    0.0040
    --------------------------------------------
      LOOP:  cpu time   11.3211: real time   11.3217

 eigenvalue-minimisations  :  7677
 total energy-change (2. order) :-0.1699178E-03  (-0.2546632E-03)
 number of electron     304.0000068 magnetization       0.0000000
 augmentation part      -22.0328760 magnetization       0.0001462

 Broyden mixing:
  rms(total) = 0.10237E-02    rms(broyden)= 0.99944E-03
  rms(prec ) = 0.11342E-02
  weight for this iteration     100.00

 eigenvalues of (default mixing * dielectric matrix)
  average eigenvalue GAMMA=   1.6458
  3.8398  2.7617  2.7617  1.7550  1.7550  1.1226  1.1226  0.8616  0.8616  0.6127
  0.6492

 Free energy of the ion-electron system (eV)
  ---------------------------------------------------
  alpha Z        PSCENC =       261.32283722
  Ewald energy   TEWEN  =     -9062.61347647
  -Hartree energ DENC   =     -2416.58755549
  -exchange      EXHF   =         0.00000000
  -V(xc)+E(xc)   XCENC  =       298.36614863
  PAW double counting   =     30593.51189983   -30267.91999637
  entropy T*S    EENTRO =         0.00000000
  eigenvalues    EBANDS =     -1215.16426106
  atomic energy  EATOM  =     11480.53177481
  Solvation  Ediel_sol  =         0.00000000
  ---------------------------------------------------
  free energy    TOTEN  =      -328.55262890 eV

  energy without entropy =     -328.55262890  energy(sigma->0) =     -328.55262890


--------------------------------------------------------------------------------------------------------




--------------------------------------- Iteration      1(  17)  ---------------------------------------


    POTLOK:  cpu time    0.1922: real time    0.1922
    SETDIJ:  cpu time    0.2399: real time    0.2399
    EDDIAG:  cpu time    1.8572: real time    1.8573
  RMM-DIIS:  cpu time    8.3354: real time    8.3362
    ORTHCH:  cpu time    0.2812: real time    0.2812
 BZINTS: Fermi energy:    3.754380;  304.000000 electrons
         Band energy:-0.121515E+04;  BLOECHL correction:    0.000000
       DOS:  cpu time    0.0072: real time    0.0072
    CHARGE:  cpu time    0.6732: real time    0.6732
    MIXING:  cpu time    0.0042: real time    0.0042
    --------------------------------------------
      LOOP:  cpu time   11.5905: real time   11.5915

 eigenvalue-minimisations  :  7733
 total energy-change (2. order) :-0.1901783E-03  (-0.1887502E-03)
 number of electron     304.0000068 magnetization       0.0000000
 augmentation part      -22.0352705 magnetization       0.0001110

 Broyden mixing:
  rms(total) = 0.14716E-02    rms(broyden)= 0.14537E-02
  rms(prec ) = 0.16456E-02
  weight for this iteration     100.00

 eigenvalues of (default mixing * dielectric matrix)
  average eigenvalue GAMMA=   1.5735
  3.9834  2.7648  2.7648  1.8594  1.8594  1.1567  1.1567  0.8450  0.8450  0.6811
  0.6170  0.3488

 Free energy of the ion-electron system (eV)
  ---------------------------------------------------
  alpha Z        PSCENC =       261.32283722
  Ewald energy   TEWEN  =     -9062.61347647
  -Hartree energ DENC   =     -2416.60221064
  -exchange      EXHF   =         0.00000000
  -V(xc)+E(xc)   XCENC  =       298.36639104
  PAW double counting   =     30590.71684382   -30265.12232015
  entropy T*S    EENTRO =         0.00000000
  eigenvalues    EBANDS =     -1215.15265871
  atomic energy  EATOM  =     11480.53177481
  Solvation  Ediel_sol  =         0.00000000
  ---------------------------------------------------
  free energy    TOTEN  =      -328.55281908 eV

  energy without entropy =     -328.55281908  energy(sigma->0) =     -328.55281908


--------------------------------------------------------------------------------------------------------




--------------------------------------- Iteration      1(  18)  ---------------------------------------


    POTLOK:  cpu time    0.1901: real time    0.1901
    SETDIJ:  cpu time    0.2402: real time    0.2402
    EDDIAG:  cpu time    1.8760: real time    1.8760
  RMM-DIIS:  cpu time    7.3540: real time    7.3543
    ORTHCH:  cpu time    0.3022: real time    0.3022
 BZINTS: Fermi energy:    3.754286;  304.000000 electrons
         Band energy:-0.121515E+04;  BLOECHL correction:    0.000000
       DOS:  cpu time    0.0073: real time    0.0073
    CHARGE:  cpu time    0.6722: real time    0.6722
    MIXING:  cpu time    0.0047: real time    0.0047
    --------------------------------------------
      LOOP:  cpu time   10.6466: real time   10.6471

 eigenvalue-minimisations  :  7010
 total energy-change (2. order) :-0.8623151E-04  (-0.8953723E-04)
 number of electron     304.0000068 magnetization       0.0000000
 augmentation part      -22.0368152 magnetization       0.0000808

 Broyden mixing:
  rms(total) = 0.14439E-02    rms(broyden)= 0.14336E-02
  rms(prec ) = 0.16493E-02
  weight for this iteration     100.00

 eigenvalues of (default mixing * dielectric matrix)
  average eigenvalue GAMMA=   1.4654
  4.0852  2.7625  2.7625  1.8626  1.8626  1.1585  1.1585  0.8447  0.8447  0.6795
  0.6168  0.3222  0.0896

 Free energy of the ion-electron system (eV)
  ---------------------------------------------------
  alpha Z        PSCENC =       261.32283722
  Ewald energy   TEWEN  =     -9062.61347647
  -Hartree energ DENC   =     -2416.61034239
  -exchange      EXHF   =         0.00000000
  -V(xc)+E(xc)   XCENC  =       298.36757566
  PAW double counting   =     30591.43505856   -30265.83519347
  entropy T*S    EENTRO =         0.00000000
  eigenvalues    EBANDS =     -1215.15113924
  atomic energy  EATOM  =     11480.53177481
  Solvation  Ediel_sol  =         0.00000000
  ---------------------------------------------------
  free energy    TOTEN  =      -328.55290531 eV

  energy without entropy =     -328.55290531  energy(sigma->0) =     -328.55290531


--------------------------------------------------------------------------------------------------------




--------------------------------------- Iteration      1(  19)  ---------------------------------------


    POTLOK:  cpu time    0.1877: real time    0.1877
    SETDIJ:  cpu time    0.2409: real time    0.2409
    EDDIAG:  cpu time    1.9079: real time    1.9080
  RMM-DIIS:  cpu time    6.6105: real time    6.6110
    ORTHCH:  cpu time    0.2778: real time    0.2778
 BZINTS: Fermi energy:    3.754229;  304.000000 electrons
         Band energy:-0.121515E+04;  BLOECHL correction:    0.000000
       DOS:  cpu time    0.0075: real time    0.0075
    CHARGE:  cpu time    0.6800: real time    0.6800
    MIXING:  cpu time    0.0046: real time    0.0046
    --------------------------------------------
      LOOP:  cpu time    9.9169: real time    9.9176

 eigenvalue-minimisations  :  6166
 total energy-change (2. order) :-0.3849497E-04  (-0.4219680E-04)
 number of electron     304.0000068 magnetization       0.0000000
 augmentation part      -22.0377905 magnetization       0.0000623

 Broyden mixing:
  rms(total) = 0.19053E-02    rms(broyden)= 0.19020E-02
  rms(prec ) = 0.21892E-02
[...]
   0.473E+02 0.452E+02 0.328E+02   -.481E+02 -.494E+02 -.360E+02   0.844E+00 0.420E+01 0.327E+01   0.155E-04 -.939E-04 0.327E-03
   -.473E+02 -.452E+02 0.328E+02   0.481E+02 0.494E+02 -.360E+02   -.844E+00 -.420E+01 0.327E+01   -.152E-04 0.938E-04 0.327E-03
   0.473E+02 -.452E+02 -.328E+02   -.481E+02 0.494E+02 0.360E+02   0.844E+00 -.420E+01 -.327E+01   0.154E-04 0.937E-04 -.327E-03
   -.452E+02 0.473E+02 0.328E+02   0.494E+02 -.481E+02 -.360E+02   -.420E+01 0.844E+00 0.327E+01   0.939E-04 0.153E-04 0.327E-03
   0.452E+02 -.473E+02 0.328E+02   -.494E+02 0.481E+02 -.360E+02   0.420E+01 -.844E+00 0.327E+01   -.937E-04 -.154E-04 0.327E-03
   0.905E+02 0.447E+02 0.431E+02   -.959E+02 -.470E+02 -.463E+02   0.534E+01 0.229E+01 0.323E+01   0.479E-03 -.384E-03 -.381E-04
   -.447E+02 0.905E+02 0.431E+02   0.470E+02 -.959E+02 -.463E+02   -.229E+01 0.534E+01 0.323E+01   0.384E-03 0.479E-03 -.381E-04
   0.447E+02 -.905E+02 0.431E+02   -.470E+02 0.958E+02 -.463E+02   0.229E+01 -.534E+01 0.323E+01   -.384E-03 -.479E-03 -.381E-04
   -.905E+02 0.447E+02 -.431E+02   0.959E+02 -.470E+02 0.463E+02   -.534E+01 0.229E+01 -.323E+01   -.479E-03 -.384E-03 0.381E-04
   0.905E+02 -.447E+02 -.431E+02   -.958E+02 0.470E+02 0.463E+02   0.534E+01 -.229E+01 -.323E+01   0.479E-03 0.384E-03 0.381E-04
   -.905E+02 -.447E+02 0.431E+02   0.958E+02 0.470E+02 -.463E+02   -.534E+01 -.229E+01 0.323E+01   -.479E-03 0.384E-03 -.382E-04
   -.447E+02 -.905E+02 -.431E+02   0.470E+02 0.959E+02 0.463E+02   -.229E+01 -.534E+01 -.323E+01   0.384E-03 -.479E-03 0.381E-04
   0.447E+02 0.905E+02 -.431E+02   -.470E+02 -.958E+02 0.463E+02   0.229E+01 0.534E+01 -.323E+01   -.384E-03 0.479E-03 0.381E-04
   -.905E+02 -.447E+02 -.431E+02   0.959E+02 0.470E+02 0.463E+02   -.534E+01 -.229E+01 -.323E+01   -.479E-03 0.384E-03 0.381E-04
   0.447E+02 -.905E+02 -.431E+02   -.470E+02 0.959E+02 0.463E+02   0.229E+01 -.534E+01 -.323E+01   -.384E-03 -.479E-03 0.381E-04
   -.447E+02 0.905E+02 -.431E+02   0.470E+02 -.958E+02 0.463E+02   -.229E+01 0.534E+01 -.323E+01   0.384E-03 0.479E-03 0.381E-04
   0.905E+02 -.447E+02 0.431E+02   -.959E+02 0.470E+02 -.463E+02   0.534E+01 -.229E+01 0.323E+01   0.479E-03 0.384E-03 -.381E-04
   -.905E+02 0.447E+02 0.431E+02   0.958E+02 -.470E+02 -.463E+02   -.534E+01 0.229E+01 0.323E+01   -.479E-03 -.384E-03 -.381E-04
   0.905E+02 0.447E+02 -.431E+02   -.958E+02 -.470E+02 0.463E+02   0.534E+01 0.229E+01 -.323E+01   0.479E-03 -.384E-03 0.381E-04
   0.447E+02 0.905E+02 0.431E+02   -.470E+02 -.959E+02 -.463E+02   0.229E+01 0.534E+01 0.323E+01   -.384E-03 0.479E-03 -.381E-04
   -.447E+02 -.905E+02 0.431E+02   0.470E+02 0.958E+02 -.463E+02   -.229E+01 -.534E+01 0.323E+01   0.384E-03 -.479E-03 -.382E-04
   -.755E+02 0.478E+02 -.283E+02   0.821E+02 -.494E+02 0.297E+02   -.660E+01 0.166E+01 -.138E+01   -.268E-03 -.752E-04 0.224E-03
   -.478E+02 -.755E+02 -.283E+02   0.494E+02 0.821E+02 0.297E+02   -.166E+01 -.660E+01 -.138E+01   0.752E-04 -.268E-03 0.224E-03
   0.478E+02 0.755E+02 -.283E+02   -.494E+02 -.821E+02 0.297E+02   0.166E+01 0.660E+01 -.138E+01   -.753E-04 0.269E-03 0.224E-03
   0.755E+02 0.478E+02 0.283E+02   -.821E+02 -.494E+02 -.297E+02   0.660E+01 0.166E+01 0.138E+01   0.268E-03 -.752E-04 -.224E-03
   -.755E+02 -.478E+02 0.283E+02   0.821E+02 0.494E+02 -.297E+02   -.660E+01 -.166E+01 0.138E+01   -.269E-03 0.752E-04 -.224E-03
   0.755E+02 -.478E+02 -.283E+02   -.821E+02 0.494E+02 0.297E+02   0.660E+01 -.166E+01 -.138E+01   0.268E-03 0.752E-04 0.224E-03
   -.478E+02 0.755E+02 0.283E+02   0.494E+02 -.821E+02 -.297E+02   -.166E+01 0.660E+01 0.138E+01   0.752E-04 0.268E-03 -.224E-03
   0.478E+02 -.755E+02 0.283E+02   -.494E+02 0.821E+02 -.297E+02   0.166E+01 -.660E+01 0.138E+01   -.752E-04 -.268E-03 -.224E-03
   0.755E+02 -.478E+02 0.283E+02   -.821E+02 0.494E+02 -.297E+02   0.660E+01 -.166E+01 0.138E+01   0.268E-03 0.751E-04 -.224E-03
   0.478E+02 0.755E+02 0.283E+02   -.494E+02 -.821E+02 -.297E+02   0.166E+01 0.660E+01 0.138E+01   -.751E-04 0.268E-03 -.224E-03
   -.478E+02 -.755E+02 0.283E+02   0.494E+02 0.821E+02 -.297E+02   -.166E+01 -.660E+01 0.138E+01   0.752E-04 -.268E-03 -.224E-03
   -.755E+02 -.478E+02 -.283E+02   0.821E+02 0.494E+02 0.297E+02   -.660E+01 -.166E+01 -.138E+01   -.268E-03 0.751E-04 0.224E-03
   0.755E+02 0.478E+02 -.283E+02   -.821E+02 -.494E+02 0.297E+02   0.660E+01 0.166E+01 -.138E+01   0.268E-03 -.753E-04 0.224E-03
   -.755E+02 0.478E+02 0.283E+02   0.821E+02 -.494E+02 -.297E+02   -.660E+01 0.166E+01 0.138E+01   -.268E-03 -.752E-04 -.224E-03
   0.478E+02 -.755E+02 -.283E+02   -.494E+02 0.821E+02 0.297E+02   0.166E+01 -.660E+01 -.138E+01   -.752E-04 -.268E-03 0.224E-03
   -.478E+02 0.755E+02 -.283E+02   0.494E+02 -.821E+02 0.297E+02   -.166E+01 0.660E+01 -.138E+01   0.753E-04 0.268E-03 0.224E-03
   -.619E+02 -.305E-03 0.715E-03   0.672E+02 -.475E-03 -.302E-03   -.527E+01 -.210E-16 -.477E-17   -.835E-04 -.406E-07 -.192E-08
   -.445E-03 -.619E+02 0.245E-03   0.623E-03 0.672E+02 -.489E-03   -.451E-17 -.527E+01 -.229E-16   0.699E-07 -.833E-04 -.768E-07
   -.598E-03 0.619E+02 0.657E-03   0.475E-03 -.672E+02 0.302E-03   -.564E-16 0.527E+01 0.284E-16   0.563E-07 0.835E-04 -.530E-07
   0.619E+02 -.372E-04 0.676E-03   -.672E+02 -.623E-03 0.489E-03   0.527E+01 -.732E-17 -.474E-16   0.833E-04 -.350E-07 0.279E-07
   0.619E+02 -.224E-03 0.791E-03   -.672E+02 0.475E-03 0.302E-03   0.527E+01 0.234E-16 -.539E-17   0.834E-04 -.640E-08 -.414E-07
   -.453E-03 0.619E+02 0.368E-03   -.623E-03 -.672E+02 0.489E-03   -.183E-16 0.527E+01 0.117E-16   0.184E-07 0.834E-04 0.117E-07
   -.678E-03 -.619E+02 0.581E-03   -.475E-03 0.672E+02 -.302E-03   0.515E-16 -.527E+01 0.600E-16   0.220E-07 -.834E-04 -.135E-07
   -.619E+02 -.291E-04 0.553E-03   0.672E+02 0.623E-03 -.489E-03   -.527E+01 0.182E-16 0.287E-16   -.834E-04 0.165E-07 -.605E-07
 -----------------------------------------------------------------------------------------------
   -.381E-01 -.108E-01 0.416E-01   0.142E-12 -.400E-14 0.659E-13   -.444E-14 0.268E-14 -.840E-15   0.625E-06 -.230E-06 -.233E-06
 
 
 POSITION                                       TOTAL-FORCE (eV/Angst)
 -----------------------------------------------------------------------------------
      5.01931      5.01931     -3.71396         0.000599      0.000599      0.000000
      1.80201      5.01930      7.42791        -0.000599      0.000599     -0.000000
      5.01930      1.80201     -0.00000         0.000599     -0.000599     -0.000000
      1.80200      1.80200      3.71396        -0.000599     -0.000599      0.000000
      1.80200      8.62331      0.00001        -0.000599     -0.000599     -0.000000
     -1.80201      1.80201     11.14186         0.000599     -0.000599      0.000000
      1.80201     -1.80201     11.14186        -0.000599      0.000599      0.000000
      5.01931     -1.80200      7.42790         0.000599      0.000599      0.000000
      2.43234      2.79929      8.76041         0.000527      0.006673      0.001120
      4.02203      2.43233      5.04646        -0.006673      0.000527      0.001120
      2.79928      4.38898     -2.38144         0.006673     -0.000527      0.001120
      4.38898      2.79928      9.80935        -0.000527      0.006673     -0.001120
      2.43233      4.02203      2.38144         0.000527     -0.006673     -0.001120
      4.38897      4.02202      1.33252        -0.000527     -0.006673      0.001120
      4.02202      4.38897      6.09540        -0.006673     -0.000527     -0.001120
      2.79929      2.43234     -1.33252         0.006673      0.000527     -0.001120
     -2.43234      4.02202      9.80936        -0.000527     -0.006673     -0.001120
      2.79928     -2.43233      6.09540         0.006673     -0.000527     -0.001120
      4.02203      9.25364     -1.33251        -0.006673      0.000527     -0.001120
      2.43233     10.84334      1.33251         0.000527     -0.006673      0.001120
      4.38898     -4.02203      8.76042        -0.000527      0.006673      0.001120
      9.25365      2.79929      2.38144         0.000527      0.006673     -0.001120
      9.62060      2.43234     -2.38145         0.006673      0.000527      0.001120
     -2.79929      4.38897      5.04647        -0.006673     -0.000527      0.001120
      2.54254      0.82622      7.77882        -0.003527     -0.000139      0.001936
      5.99509      2.54255      4.06486         0.000139     -0.003527      0.001936
      7.64753     -2.54254      4.06487        -0.000139      0.003527      0.001936
     -2.54255      7.64753      3.36304         0.003527     -0.000139     -0.001936
      2.54254      5.99509      3.36303        -0.003527      0.000139     -0.001936
      4.27878      5.99509      0.35091         0.003527      0.000139      0.001936
      5.99509      4.27877      7.07699         0.000139      0.003527     -0.001936
      0.82622      2.54253     -0.35091        -0.000139     -0.003527     -0.001936
      4.27877     -0.82622      3.36303         0.003527      0.000139     -0.001936
      7.64753      4.27876     -0.35091        -0.000139      0.003527     -0.001936
     -0.82622      2.54254      7.07699         0.000139     -0.003527     -0.001936
     -4.27876      5.99509      7.77882        -0.003527      0.000139      0.001936
     11.10008      0.82622      0.35092         0.003527     -0.000139      0.001936
      9.36384      0.82622      3.36304        -0.003527     -0.000139     -0.001936
      0.82622      9.36385      4.06487        -0.000139     -0.003527      0.001936
     -0.82622      4.27878      4.06486         0.000139      0.003527      0.001936
      5.77386      2.33528      8.12148        -0.001330      0.001454      0.000061
      4.48603      5.77385      4.40753        -0.001454     -0.001330      0.000061
      2.33528      1.04745     11.83543         0.001454      0.001330      0.000061
      1.04746      2.33528     10.44828         0.001330      0.001454     -0.000061
      5.77386      4.48603      3.02038        -0.001330     -0.001454     -0.000061
      1.04744      4.48603      0.69358         0.001330     -0.001454      0.000061
      4.48603      1.04745      6.73433        -0.001454      0.001330     -0.000061
      2.33528      5.77386     -0.69358         0.001454     -0.001330     -0.000061
      7.86876      4.48603     -4.40753         0.001330     -0.001454     -0.000061
      9.15659      1.04746     -0.69358         0.001454      0.001330     -0.000061
     -2.33528      5.77386      6.73433        -0.001454     -0.001330     -0.000061
     -1.04746      4.48603      8.12149        -0.001330     -0.001454      0.000061
      7.86876      2.33528      0.69357         0.001330      0.001454      0.000061
     -1.04744      2.33528      3.02037        -0.001330      0.001454     -0.000061
      2.33528     -1.04745      4.40753         0.001454     -0.001330      0.000061
      4.48603      7.86875     -3.02037        -0.001454      0.001330      0.000061
      7.35718      3.41065      5.57093         0.000105     -0.000000      0.000000
      3.41065      7.35718      1.85698         0.000000      0.000105      0.000000
      3.41065     -0.53587      9.28488         0.000000     -0.000105     -0.000000
      6.28544     -3.41065      5.57093        -0.000105      0.000000     -0.000000
      6.28544      3.41065     -1.85698        -0.000105     -0.000000     -0.000000
     10.23196     -0.53587      1.85698         0.000000     -0.000105     -0.000000
      3.41065      0.53587      1.85698        -0.000000      0.000105     -0.000000
      0.53587      3.41065      5.57093         0.000105      0.000000      0.000000
 -----------------------------------------------------------------------------------
    total drift:                               -0.038139     -0.010773      0.041640


--------------------------------------------------------------------------------------------------------



  FREE ENERGIE OF THE ION-ELECTRON SYSTEM (eV)
  ---------------------------------------------------
  free  energy   TOTEN  =      -328.55999355 eV

  energy  without entropy=     -328.55999355  energy(sigma->0) =     -328.55999355
 
 d Force = 0.3667395E-05[ 0.345E-05, 0.388E-05]  d Energy = 0.6678685E-05-0.301E-05
 d Force =-0.2431087E+00[-0.243E+00,-0.243E+00]  d Ewald  =-0.1891808E+00-0.539E-01


--------------------------------------------------------------------------------------------------------


    POTLOK:  cpu time    0.4274: real time    0.4274


--------------------------------------------------------------------------------------------------------




--------------------------------------------------------------------------------------------------------


  
 reached required accuracy - stopping structural energy minimisation
     LOOP+:  cpu time   27.1330: real time   27.1384
    4ORBIT:  cpu time    0.0000: real time    0.0000
 


 total charge     
 
# of ion       s       p       d       tot
------------------------------------------
    1        2.010   0.039   0.000   2.050
    2        2.010   0.039   0.000   2.050
    3        2.010   0.039   0.000   2.050
    4        2.010   0.039   0.000   2.050
    5        2.010   0.039   0.000   2.050
    6        2.010   0.039   0.000   2.050
    7        2.010   0.039   0.000   2.050
    8        2.010   0.039   0.000   2.050
    9        1.067   1.417   0.000   2.484
   10        1.067   1.417   0.000   2.484
   11        1.067   1.417   0.000   2.484
   12        1.067   1.417   0.000   2.484
   13        1.067   1.417   0.000   2.484
   14        1.067   1.417   0.000   2.484
   15        1.067   1.417   0.000   2.484
   16        1.067   1.417   0.000   2.484
   17        1.067   1.417   0.000   2.484
   18        1.067   1.417   0.000   2.484
   19        1.067   1.417   0.000   2.484
   20        1.067   1.417   0.000   2.484
   21        1.067   1.417   0.000   2.484
   22        1.067   1.417   0.000   2.484
   23        1.067   1.417   0.000   2.484
   24        1.067   1.417   0.000   2.484
   25        1.078   1.385   0.000   2.463
   26        1.078   1.385   0.000   2.463
   27        1.078   1.385   0.000   2.463
   28        1.078   1.385   0.000   2.463
   29        1.078   1.385   0.000   2.463
   30        1.078   1.385   0.000   2.463
   31        1.078   1.385   0.000   2.463
   32        1.078   1.385   0.000   2.463
   33        1.078   1.385   0.000   2.463
   34        1.078   1.385   0.000   2.463
   35        1.078   1.385   0.000   2.463
   36        1.078   1.385   0.000   2.463
   37        1.078   1.385   0.000   2.463
   38        1.078   1.385   0.000   2.463
   39        1.078   1.385   0.000   2.463
   40        1.078   1.385   0.000   2.463
   41        1.081   1.378   0.000   2.459
   42        1.081   1.378   0.000   2.459
   43        1.081   1.378   0.000   2.459
   44        1.081   1.378   0.000   2.459
   45        1.081   1.378   0.000   2.459
   46        1.081   1.378   0.000   2.459
   47        1.081   1.378   0.000   2.459
   48        1.081   1.378   0.000   2.459
   49        1.081   1.378   0.000   2.459
   50        1.081   1.378   0.000   2.459
   51        1.081   1.378   0.000   2.459
   52        1.081   1.378   0.000   2.459
   53        1.081   1.378   0.000   2.459
   54        1.081   1.378   0.000   2.459
   55        1.081   1.378   0.000   2.459
   56        1.081   1.378   0.000   2.459
   57        1.068   1.421   0.000   2.489
   58        1.068   1.421   0.000   2.489
   59        1.068   1.421   0.000   2.489
   60        1.068   1.421   0.000   2.489
   61        1.068   1.421   0.000   2.489
   62        1.068   1.421   0.000   2.489
   63        1.068   1.421   0.000   2.489
   64        1.068   1.421   0.000   2.489
--------------------------------------------------
tot         76.238  78.564   0.000 154.801
 


 magnetization (x)
 
# of ion       s       p       d       tot
------------------------------------------
    1        0.000   0.000   0.000   0.000
    2        0.000   0.000   0.000   0.000
    3        0.000   0.000   0.000   0.000
    4        0.000   0.000   0.000   0.000
    5        0.000   0.000   0.000   0.000
    6        0.000   0.000   0.000   0.000
    7        0.000   0.000   0.000   0.000
    8        0.000   0.000   0.000   0.000
    9        0.000   0.000   0.000   0.000
   10        0.000   0.000   0.000   0.000
   11        0.000   0.000   0.000   0.000
   12        0.000   0.000   0.000   0.000
   13        0.000   0.000   0.000   0.000
   14        0.000   0.000   0.000   0.000
   15        0.000   0.000   0.000   0.000
   16        0.000   0.000   0.000   0.000
   17        0.000   0.000   0.000   0.000
   18        0.000   0.000   0.000   0.000
   19        0.000   0.000   0.000   0.000
   20        0.000   0.000   0.000   0.000
   21        0.000   0.000   0.000   0.000
   22        0.000   0.000   0.000   0.000
   23        0.000   0.000   0.000   0.000
   24        0.000   0.000   0.000   0.000
   25       -0.000   0.000   0.000   0.000
   26       -0.000   0.000   0.000   0.000
   27       -0.000   0.000   0.000   0.000
   28       -0.000   0.000   0.000   0.000
   29       -0.000   0.000   0.000   0.000
   30       -0.000   0.000   0.000   0.000
   31       -0.000   0.000   0.000   0.000
   32       -0.000   0.000   0.000   0.000
   33       -0.000   0.000   0.000   0.000
   34       -0.000   0.000   0.000   0.000
   35       -0.000   0.000   0.000   0.000
   36       -0.000   0.000   0.000   0.000
   37       -0.000   0.000   0.000   0.000
   38       -0.000   0.000   0.000   0.000
   39       -0.000   0.000   0.000   0.000
   40       -0.000   0.000   0.000   0.000
   41       -0.000  -0.000   0.000  -0.000
   42       -0.000  -0.000   0.000  -0.000
   43       -0.000  -0.000   0.000  -0.000
   44       -0.000  -0.000   0.000  -0.000
   45       -0.000  -0.000   0.000  -0.000
   46       -0.000  -0.000   0.000  -0.000
   47       -0.000  -0.000   0.000  -0.000
   48       -0.000  -0.000   0.000  -0.000
   49       -0.000  -0.000   0.000  -0.000
   50       -0.000  -0.000   0.000  -0.000
   51       -0.000  -0.000   0.000  -0.000
   52       -0.000  -0.000   0.000  -0.000
   53       -0.000  -0.000   0.000  -0.000
   54       -0.000  -0.000   0.000  -0.000
   55       -0.000  -0.000   0.000  -0.000
   56       -0.000  -0.000   0.000  -0.000
   57       -0.000  -0.000   0.000  -0.000
   58       -0.000  -0.000   0.000  -0.000
   59       -0.000  -0.000   0.000  -0.000
   60       -0.000  -0.000   0.000  -0.000
   61       -0.000  -0.000   0.000  -0.000
   62       -0.000  -0.000   0.000  -0.000
   63       -0.000  -0.000   0.000  -0.000
   64       -0.000  -0.000   0.000  -0.000
--------------------------------------------------
tot          0.000   0.000   0.000   0.000
 
 BZINTS: Fermi energy:    3.727286;  304.000000 electrons
         Band energy:-0.122441E+04;  BLOECHL correction:    0.000000

 total amount of memory used by VASP MPI-rank0    81089. kBytes
=======================================================================

   base      :      30000. kBytes
   nonlr-proj:       7218. kBytes
   fftplans  :       6806. kBytes
   grid      :      17608. kBytes
   one-center:         67. kBytes
   wavefun   :      19390. kBytes
 
  
  
 General timing and accounting informations for this job:
 ========================================================
  
                  Total CPU time used (sec):     1316.721
                            User time (sec):     1309.189
                          System time (sec):        7.532
                         Elapsed time (sec):     1358.746
  
                   Maximum memory used (kb):      128796.
                   Average memory used (kb):           0.
  
                          Minor page faults:      1275451
                          Major page faults:           15
                 Voluntary context switches:         1016
