unknown system                          
           1
    -6.814890    6.814890    7.416174
     6.814890   -6.814890    7.416174
     6.814890    6.814890   -7.416174
   Li   P 
     8    56
Direct configuration=     1
   0.11875700  0.11875700  0.73751500
   0.86875700  0.63124300  0.50000000
   0.13124300  0.36875700  0.50000000
   0.38124300  0.38124300  0.26248500
   0.63124300  0.13124300  0.76248500
   0.88124300  0.61875700  0.00000000
   0.61875700  0.88124300  0.00000000
   0.36875700  0.86875700  0.23751500
   0.79392900  0.76773400  0.38279100
   0.51773400  0.63494400  0.47380500
   0.16113900  0.04392900  0.52619500
   0.86505600  0.98226600  0.52619500
   0.45607100  0.33886100  0.47380500
   0.38494400  0.41113900  0.61720900
   0.73226600  0.70607100  0.61720900
   0.08886100  0.11505600  0.38279100
   0.95607100  0.48226600  0.11720900
   0.23226600  0.61505600  0.02619500
   0.58886100  0.20607100  0.97380500
   0.88494400  0.26773400  0.97380500
   0.29392900  0.91113900  0.02619500
   0.36505600  0.83886100  0.88279100
   0.01773400  0.54392900  0.88279100
   0.66113900  0.13494400  0.11720900
   0.58294100  0.70993100  0.24642900
   0.45993100  0.71350100  0.62699000
   0.08651200  0.83294100  0.37301000
   0.78649900  0.04006900  0.37301000
   0.66705900  0.41348800  0.62699000
   0.46350100  0.33651200  0.75357100
   0.79006900  0.91705900  0.75357100
   0.16348800  0.03649900  0.24642900
   0.16705900  0.54006900  0.25357100
   0.29006900  0.53649900  0.87301000
   0.66348800  0.41705900  0.12699000
   0.96350100  0.20993100  0.12699000
   0.08294100  0.83651200  0.87301000
   0.28649900  0.91348800  0.74642900
   0.95993100  0.33294100  0.74642900
   0.58651200  0.21350100  0.25357100
   0.71749100  0.97061400  0.59417000
   0.72061400  0.62644500  0.75312300
   0.87332100  0.96749100  0.24687700
   0.87355500  0.77938600  0.24687700
   0.53250900  0.62667900  0.75312300
   0.37644500  0.12332100  0.40583000
   0.52938600  0.78250900  0.40583000
   0.37667900  0.12355500  0.59417000
   0.03250900  0.27938600  0.90583000
   0.02938600  0.62355500  0.74687700
   0.87667900  0.28250900  0.25312300
   0.87644500  0.47061400  0.25312300
   0.21749100  0.62332100  0.74687700
   0.37355500  0.12667900  0.09417000
   0.22061400  0.46749100  0.09417000
   0.37332100  0.12644500  0.90583000
   0.62500000  0.91513000  0.79013000
   0.66513000  0.37500000  0.79013000
   0.58487000  0.87500000  0.20987000
   0.12500000  0.83487000  0.20987000
   0.12500000  0.33487000  0.70987000
   0.08487000  0.87500000  0.70987000
   0.16513000  0.37500000  0.29013000
   0.62500000  0.41513000  0.29013000
unknown system                          
           1
    -6.814585    6.814585    7.415850
     6.814585   -6.814585    7.415850
     6.814585    6.814585   -7.415850
   Li   P 
     8    56
Direct configuration=     2
   0.11869019  0.11869019  0.73738138
   0.86869019  0.63130981  0.50000000
   0.13130981  0.36869019  0.50000000
   0.38130981  0.38130981  0.26261862
   0.63130981  0.13130981  0.76261862
   0.88130981  0.61869019 -0.00000000
   0.61869019  0.88130981 -0.00000000
   0.36869019  0.86869019  0.23738138
   0.79398327  0.76771642  0.38285052
   0.51771642  0.63486690  0.47373315
   0.16113375  0.04398327  0.52626685
   0.86513310  0.98228358  0.52626685
   0.45601673  0.33886625  0.47373315
   0.38486690  0.41113375  0.61714948
   0.73228358  0.70601673  0.61714948
   0.08886625  0.11513310  0.38285052
   0.95601673  0.48228358  0.11714948
   0.23228358  0.61513310  0.02626685
   0.58886625  0.20601673  0.97373315
   0.88486690  0.26771642  0.97373315
   0.29398327  0.91113375  0.02626685
   0.36513310  0.83886625  0.88285052
   0.01771642  0.54398327  0.88285052
   0.66113375  0.13486690  0.11714948
   0.58300573  0.70992779  0.24646421
   0.45992779  0.71346258  0.62692205
   0.08654152  0.83300573  0.37307795
   0.78653742  0.04007221  0.37307795
   0.66699427  0.41345848  0.62692205
   0.46346258  0.33654152  0.75353579
   0.79007221  0.91699427  0.75353579
   0.16345848  0.03653742  0.24646421
   0.16699427  0.54007221  0.25353579
   0.29007221  0.53653742  0.87307795
   0.66345848  0.41699427  0.12692205
   0.96346258  0.20992779  0.12692205
   0.08300573  0.83654152  0.87307795
   0.28653742  0.91345848  0.74646421
   0.95992779  0.33300573  0.74646421
   0.58654152  0.21346258  0.25353579
   0.71750963  0.97056532  0.59416557
   0.72056532  0.62640075  0.75305569
   0.87334406  0.96750963  0.24694431
   0.87359925  0.77943468  0.24694431
   0.53249037  0.62665594  0.75305569
   0.37640075  0.12334406  0.40583443
   0.52943468  0.78249037  0.40583443
   0.37665594  0.12359925  0.59416557
   0.03249037  0.27943468  0.90583443
   0.02943468  0.62359925  0.74694431
   0.87665594  0.28249037  0.25305569
   0.87640075  0.47056532  0.25305569
   0.21750963  0.62334406  0.74694431
   0.37359925  0.12665594  0.09416557
   0.22056532  0.46750963  0.09416557
   0.37334406  0.12640075  0.90583443
   0.62500000  0.91512547  0.79012547
   0.66512547  0.37500000  0.79012547
   0.58487453  0.87500000  0.20987453
   0.12500000  0.83487453  0.20987453
   0.12500000  0.33487453  0.70987453
   0.08487453  0.87500000  0.70987453
   0.16512547  0.37500000  0.29012547
   0.62500000  0.41512547  0.29012547
unknown system                          
           1
    -6.813670    6.813670    7.414877
     6.813670   -6.813670    7.414877
     6.813670    6.813670   -7.414877
   Li   P 
     8    56
Direct configuration=     3
   0.11848975  0.11848975  0.73698050
   0.86848975  0.63151025  0.50000000
   0.13151025  0.36848975  0.50000000
   0.38151025  0.38151025  0.26301950
   0.63151025  0.13151025  0.76301950
   0.88151025  0.61848975 -0.00000000
   0.61848975  0.88151025 -0.00000000
   0.36848975  0.86848975  0.23698050
   0.79414609  0.76766370  0.38302909
   0.51766370  0.63463560  0.47351761
   0.16111800  0.04414609  0.52648239
   0.86536440  0.98233630  0.52648239
   0.45585391  0.33888200  0.47351761
   0.38463560  0.41111800  0.61697091
   0.73233630  0.70585391  0.61697091
   0.08888200  0.11536440  0.38302909
   0.95585391  0.48233630  0.11697091
   0.23233630  0.61536440  0.02648239
   0.58888200  0.20585391  0.97351761
   0.88463560  0.26766370  0.97351761
   0.29414609  0.91111800  0.02648239
   0.36536440  0.83888200  0.88302909
   0.01766370  0.54414609  0.88302909
   0.66111800  0.13463560  0.11697091
   0.58319995  0.70991815  0.24656986
   0.45991815  0.71334730  0.62671821
   0.08663009  0.83319995  0.37328179
   0.78665270  0.04008185  0.37328179
   0.66680005  0.41336991  0.62671821
   0.46334730  0.33663009  0.75343014
   0.79008185  0.91680005  0.75343014
   0.16336991  0.03665270  0.24656986
   0.16680005  0.54008185  0.25343014
   0.29008185  0.53665270  0.87328179
   0.66336991  0.41680005  0.12671821
   0.96334730  0.20991815  0.12671821
   0.08319995  0.83663009  0.87328179
   0.28665270  0.91336991  0.74656986
   0.95991815  0.33319995  0.74656986
   0.58663009  0.21334730  0.25343014
   0.71756552  0.97041927  0.59415227
   0.72041927  0.62626799  0.75285374
   0.87341325  0.96756552  0.24714626
   0.87373201  0.77958073  0.24714626
   0.53243448  0.62658675  0.75285374
   0.37626799  0.12341325  0.40584773
   0.52958073  0.78243448  0.40584773
   0.37658675  0.12373201  0.59415227
   0.03243448  0.27958073  0.90584773
   0.02958073  0.62373201  0.74714626
   0.87658675  0.28243448  0.25285374
   0.87626799  0.47041927  0.25285374
   0.21756552  0.62341325  0.74714626
   0.37373201  0.12658675  0.09415227
   0.22041927  0.46756552  0.09415227
   0.37341325  0.12626799  0.90584773
   0.62500000  0.91511187  0.79011187
   0.66511187  0.37500000  0.79011187
   0.58488813  0.87500000  0.20988813
   0.12500000  0.83488813  0.20988813
   0.12500000  0.33488813  0.70988813
   0.08488813  0.87500000  0.70988813
   0.16511187  0.37500000  0.29011187
   0.62500000  0.41511187  0.29011187
unknown system                          
           1
    -6.811839    6.811839    7.412933
     6.811839   -6.811839    7.412933
     6.811839    6.811839   -7.412933
   Li   P 
     8    56
Direct configuration=     4
   0.11808881  0.11808881  0.73617863
   0.86808881  0.63191119  0.50000000
   0.13191119  0.36808881  0.50000000
   0.38191119  0.38191119  0.26382137
   0.63191119  0.13191119  0.76382137
   0.88191119  0.61808881 -0.00000000
   0.61808881  0.88191119 -0.00000000
   0.36808881  0.86808881  0.23617863
   0.79447178  0.76755823  0.38338629
   0.51755823  0.63417294  0.47308645
   0.16108649  0.04447178  0.52691355
   0.86582706  0.98244177  0.52691355
   0.45552822  0.33891351  0.47308645
   0.38417294  0.41108649  0.61661371
   0.73244177  0.70552822  0.61661371
   0.08891351  0.11582706  0.38338629
   0.95552822  0.48244177  0.11661371
   0.23244177  0.61582706  0.02691355
   0.58891351  0.20552822  0.97308645
   0.88417294  0.26755823  0.97308645
   0.29447178  0.91108649  0.02691355
   0.36582706  0.83891351  0.88338629
   0.01755823  0.54447178  0.88338629
   0.66108649  0.13417294  0.11661371
   0.58358842  0.70989888  0.24678117
   0.45989888  0.71311671  0.62631046
   0.08680725  0.83358842  0.37368954
   0.78688329  0.04010112  0.37368954
   0.66641158  0.41319275  0.62631046
   0.46311671  0.33680725  0.75321883
   0.79010112  0.91641158  0.75321883
   0.16319275  0.03688329  0.24678117
   0.16641158  0.54010112  0.25321883
   0.29010112  0.53688329  0.87368954
   0.66319275  0.41641158  0.12631046
   0.96311671  0.20989888  0.12631046
   0.08358842  0.83680725  0.87368954
   0.28688329  0.91319275  0.74678117
   0.95989888  0.33358842  0.74678117
   0.58680725  0.21311671  0.25321883
   0.71767732  0.97012712  0.59412568
   0.72012712  0.62600244  0.75244980
   0.87355165  0.96767732  0.24755020
   0.87399756  0.77987288  0.24755020
   0.53232268  0.62644835  0.75244980
   0.37600244  0.12355165  0.40587432
   0.52987288  0.78232268  0.40587432
   0.37644835  0.12399756  0.59412568
   0.03232268  0.27987288  0.90587432
   0.02987288  0.62399756  0.74755020
   0.87644835  0.28232268  0.25244980
   0.87600244  0.47012712  0.25244980
   0.21767732  0.62355165  0.74755020
   0.37399756  0.12644835  0.09412568
   0.22012712  0.46767732  0.09412568
   0.37355165  0.12600244  0.90587432
   0.62500000  0.91508466  0.79008466
   0.66508466  0.37500000  0.79008466
   0.58491534  0.87500000  0.20991534
   0.12500000  0.83491534  0.20991534
   0.12500000  0.33491534  0.70991534
   0.08491534  0.87500000  0.70991534
   0.16508466  0.37500000  0.29008466
   0.62500000  0.41508466  0.29008466
unknown system                          
           1
    -6.813121    6.813121    7.414294
     6.813121   -6.813121    7.414294
     6.813121    6.813121   -7.414294
   Li   P 
     8    56
Direct configuration=     5
   0.11836961  0.11836961  0.73674021
   0.86836961  0.63163039  0.50000000
   0.13163039  0.36836961  0.50000000
   0.38163039  0.38163039  0.26325979
   0.63163039  0.13163039  0.76325979
   0.88163039  0.61836961 -0.00000000
   0.61836961  0.88163039 -0.00000000
   0.36836961  0.86836961  0.23674021
   0.79424368  0.76763209  0.38313613
   0.51763209  0.63449696  0.47338841
   0.16110856  0.04424368  0.52661159
   0.86550304  0.98236791  0.52661159
   0.45575632  0.33889144  0.47338841
   0.38449696  0.41110856  0.61686387
   0.73236791  0.70575632  0.61686387
   0.08889144  0.11550304  0.38313613
   0.95575632  0.48236791  0.11686387
   0.23236791  0.61550304  0.02661159
   0.58889144  0.20575632  0.97338841
   0.88449696  0.26763209  0.97338841
   0.29424368  0.91110856  0.02661159
   0.36550304  0.83889144  0.88313613
   0.01763209  0.54424368  0.88313613
   0.66110856  0.13449696  0.11686387
   0.58331635  0.70991238  0.24663318
   0.45991238  0.71327820  0.62659602
   0.08668318  0.83331635  0.37340398
   0.78672180  0.04008762  0.37340398
   0.66668365  0.41331682  0.62659602
   0.46327820  0.33668318  0.75336682
   0.79008762  0.91668365  0.75336682
   0.16331682  0.03672180  0.24663318
   0.16668365  0.54008762  0.25336682
   0.29008762  0.53672180  0.87340398
   0.66331682  0.41668365  0.12659602
   0.96327820  0.20991238  0.12659602
   0.08331635  0.83668318  0.87340398
   0.28672180  0.91331682  0.74663318
   0.95991238  0.33331635  0.74663318
   0.58668318  0.21327820  0.25336682
   0.71759902  0.97033172  0.59414430
   0.72033172  0.62618842  0.75273270
   0.87345472  0.96759902  0.24726730
   0.87381158  0.77966828  0.24726730
   0.53240098  0.62654528  0.75273270
   0.37618842  0.12345472  0.40585570
   0.52966828  0.78240098  0.40585570
   0.37654528  0.12381158  0.59414430
   0.03240098  0.27966828  0.90585570
   0.02966828  0.62381158  0.74726730
   0.87654528  0.28240098  0.25273270
   0.87618842  0.47033172  0.25273270
   0.21759902  0.62345472  0.74726730
   0.37381158  0.12654528  0.09414430
   0.22033172  0.46759902  0.09414430
   0.37345472  0.12618842  0.90585570
   0.62500000  0.91510372  0.79010372
   0.66510372  0.37500000  0.79010372
   0.58489628  0.87500000  0.20989628
   0.12500000  0.83489628  0.20989628
   0.12500000  0.33489628  0.70989628
   0.08489628  0.87500000  0.70989628
   0.16510372  0.37500000  0.29010372
   0.62500000  0.41510372  0.29010372
unknown system                          
           1
    -6.813667    6.813667    7.414840
     6.813667   -6.813667    7.414840
     6.813667    6.813667   -7.414840
   Li   P 
     8    56
Direct configuration=     6
   0.11831565  0.11831565  0.73663231
   0.86831565  0.63168435  0.50000000
   0.13168435  0.36831565  0.50000000
   0.38168435  0.38168435  0.26336769
   0.63168435  0.13168435  0.76336769
   0.88168435  0.61831565 -0.00000000
   0.61831565  0.88168435 -0.00000000
   0.36831565  0.86831565  0.23663231
   0.79431220  0.76766144  0.38319860
   0.51766144  0.63446384  0.47334923
   0.16111461  0.04431220  0.52665077
   0.86553616  0.98233856  0.52665077
   0.45568780  0.33888539  0.47334923
   0.38446384  0.41111461  0.61680140
   0.73233856  0.70568780  0.61680140
   0.08888539  0.11553616  0.38319860
   0.95568780  0.48233856  0.11680140
   0.23233856  0.61553616  0.02665077
   0.58888539  0.20568780  0.97334923
   0.88446384  0.26766144  0.97334923
   0.29431220  0.91111461  0.02665077
   0.36553616  0.83888539  0.88319860
   0.01766144  0.54431220  0.88319860
   0.66111461  0.13446384  0.11680140
   0.58337128  0.70990700  0.24664115
   0.45990700  0.71326485  0.62653572
   0.08673014  0.83337128  0.37346428
   0.78673515  0.04009300  0.37346428
   0.66662872  0.41326986  0.62653572
   0.46326485  0.33673014  0.75335885
   0.79009300  0.91662872  0.75335885
   0.16326986  0.03673515  0.24664115
   0.16662872  0.54009300  0.25335885
   0.29009300  0.53673515  0.87346428
   0.66326986  0.41662872  0.12653572
   0.96326485  0.20990700  0.12653572
   0.08337128  0.83673014  0.87346428
   0.28673515  0.91326986  0.74664115
   0.95990700  0.33337128  0.74664115
   0.58673014  0.21326485  0.25335885
   0.71763762  0.97032860  0.59417306
   0.72032860  0.62615653  0.75269098
   0.87346455  0.96763762  0.24730902
   0.87384347  0.77967140  0.24730902
   0.53236238  0.62653545  0.75269098
   0.37615653  0.12346455  0.40582694
   0.52967140  0.78236238  0.40582694
   0.37653545  0.12384347  0.59417306
   0.03236238  0.27967140  0.90582694
   0.02967140  0.62384347  0.74730902
   0.87653545  0.28236238  0.25269098
   0.87615653  0.47032860  0.25269098
   0.21763762  0.62346455  0.74730902
   0.37384347  0.12653545  0.09417306
   0.22032860  0.46763762  0.09417306
   0.37346455  0.12615653  0.90582694
   0.62500000  0.91505416  0.79005416
   0.66505416  0.37500000  0.79005416
   0.58494584  0.87500000  0.20994584
   0.12500000  0.83494584  0.20994584
   0.12500000  0.33494584  0.70994584
   0.08494584  0.87500000  0.70994584
   0.16505416  0.37500000  0.29005416
   0.62500000  0.41505416  0.29005416
unknown system                          
           1
    -6.815308    6.815308    7.416476
     6.815308   -6.815308    7.416476
     6.815308    6.815308   -7.416476
   Li   P 
     8    56
Direct configuration=     7
   0.11815380  0.11815380  0.73630860
   0.86815380  0.63184620  0.50000000
   0.13184620  0.36815380  0.50000000
   0.38184620  0.38184620  0.26369140
   0.63184620  0.13184620  0.76369140
   0.88184620  0.61815380 -0.00000000
   0.61815380  0.88184620 -0.00000000
   0.36815380  0.86815380  0.23630860
   0.79451775  0.76774947  0.38338599
   0.51774947  0.63436448  0.47323172
   0.16113275  0.04451775  0.52676828
   0.86563552  0.98225053  0.52676828
   0.45548225  0.33886725  0.47323172
   0.38436448  0.41113275  0.61661401
   0.73225053  0.70548225  0.61661401
   0.08886725  0.11563552  0.38338599
   0.95548225  0.48225053  0.11661401
   0.23225053  0.61563552  0.02676828
   0.58886725  0.20548225  0.97323172
   0.88436448  0.26774947  0.97323172
   0.29451775  0.91113275  0.02676828
   0.36563552  0.83886725  0.88338599
   0.01774947  0.54451775  0.88338599
   0.66113275  0.13436448  0.11661401
   0.58353605  0.70989086  0.24666505
   0.45989086  0.71322482  0.62635481
   0.08687101  0.83353605  0.37364519
   0.78677518  0.04010914  0.37364519
   0.66646395  0.41312899  0.62635481
   0.46322482  0.33687101  0.75333495
   0.79010914  0.91646395  0.75333495
   0.16312899  0.03677518  0.24666505
   0.16646395  0.54010914  0.25333495
   0.29010914  0.53677518  0.87364519
   0.66312899  0.41646395  0.12635481
   0.96322482  0.20989086  0.12635481
   0.08353605  0.83687101  0.87364519
   0.28677518  0.91312899  0.74666505
   0.95989086  0.33353605  0.74666505
   0.58687101  0.21322482  0.25333495
   0.71775339  0.97031922  0.59425933
   0.72031922  0.62606089  0.75256583
   0.87349405  0.96775339  0.24743417
   0.87393911  0.77968078  0.24743417
   0.53224661  0.62650595  0.75256583
   0.37606089  0.12349405  0.40574067
   0.52968078  0.78224661  0.40574067
   0.37650595  0.12393911  0.59425933
   0.03224661  0.27968078  0.90574067
   0.02968078  0.62393911  0.74743417
   0.87650595  0.28224661  0.25256583
   0.87606089  0.47031922  0.25256583
   0.21775339  0.62349405  0.74743417
   0.37393911  0.12650595  0.09425933
   0.22031922  0.46775339  0.09425933
   0.37349405  0.12606089  0.90574067
   0.62500000  0.91490549  0.78990549
   0.66490549  0.37500000  0.78990549
   0.58509451  0.87500000  0.21009451
   0.12500000  0.83509451  0.21009451
   0.12500000  0.33509451  0.71009451
   0.08509451  0.87500000  0.71009451
   0.16490549  0.37500000  0.28990549
   0.62500000  0.41490549  0.28990549
unknown system                          
           1
    -6.818588    6.818588    7.419750
     6.818588   -6.818588    7.419750
     6.818588    6.818588   -7.419750
   Li   P 
     8    56
Direct configuration=     8
   0.11783018  0.11783018  0.73566135
   0.86783018  0.63216982  0.50000000
   0.13216982  0.36783018  0.50000000
   0.38216982  0.38216982  0.26433865
   0.63216982  0.13216982  0.76433865
   0.88216982  0.61783018 -0.00000000
   0.61783018  0.88216982 -0.00000000
   0.36783018  0.86783018  0.23566135
   0.79492874  0.76792549  0.38376069
   0.51792549  0.63416580  0.47299675
   0.16116905  0.04492874  0.52700325
   0.86583420  0.98207451  0.52700325
   0.45507126  0.33883095  0.47299675
   0.38416580  0.41116905  0.61623931
   0.73207451  0.70507126  0.61623931
   0.08883095  0.11583420  0.38376069
   0.95507126  0.48207451  0.11623931
   0.23207451  0.61583420  0.02700325
   0.58883095  0.20507126  0.97299675
   0.88416580  0.26792549  0.97299675
   0.29492874  0.91116905  0.02700325
   0.36583420  0.83883095  0.88376069
   0.01792549  0.54492874  0.88376069
   0.66116905  0.13416580  0.11623931
   0.58386552  0.70985860  0.24671284
   0.45985860  0.71314477  0.62599308
   0.08715268  0.83386552  0.37400692
   0.78685523  0.04014140  0.37400692
   0.66613448  0.41284732  0.62599308
   0.46314477  0.33715268  0.75328716
   0.79014140  0.91613448  0.75328716
   0.16284732  0.03685523  0.24671284
   0.16613448  0.54014140  0.25328716
   0.29014140  0.53685523  0.87400692
   0.66284732  0.41613448  0.12599308
   0.96314477  0.20985860  0.12599308
   0.08386552  0.83715268  0.87400692
   0.28685523  0.91284732  0.74671284
   0.95985860  0.33386552  0.74671284
   0.58715268  0.21314477  0.25328716
   0.71798487  0.97030047  0.59443183
   0.72030047  0.62586964  0.75231560
   0.87355304  0.96798487  0.24768440
   0.87413036  0.77969953  0.24768440
   0.53201513  0.62644696  0.75231560
   0.37586964  0.12355304  0.40556817
   0.52969953  0.78201513  0.40556817
   0.37644696  0.12413036  0.59443183
   0.03201513  0.27969953  0.90556817
   0.02969953  0.62413036  0.74768440
   0.87644696  0.28201513  0.25231560
   0.87586964  0.47030047  0.25231560
   0.21798487  0.62355304  0.74768440
   0.37413036  0.12644696  0.09443183
   0.22030047  0.46798487  0.09443183
   0.37355304  0.12586964  0.90556817
   0.62500000  0.91460823  0.78960823
   0.66460823  0.37500000  0.78960823
   0.58539177  0.87500000  0.21039177
   0.12500000  0.83539177  0.21039177
   0.12500000  0.33539177  0.71039177
   0.08539177  0.87500000  0.71039177
   0.16460823  0.37500000  0.28960823
   0.62500000  0.41460823  0.28960823
unknown system                          
           1
    -6.816712    6.816712    7.417878
     6.816712   -6.816712    7.417878
     6.816712    6.816712   -7.417878
   Li   P 
     8    56
Direct configuration=     9
   0.11801514  0.11801514  0.73603129
   0.86801514  0.63198486  0.50000000
   0.13198486  0.36801514  0.50000000
   0.38198486  0.38198486  0.26396871
   0.63198486  0.13198486  0.76396871
   0.88198486  0.61801514  0.00000000
   0.61801514  0.88198486  0.00000000
   0.36801514  0.86801514  0.23603129
   0.79469384  0.76782488  0.38354654
   0.51782488  0.63427935  0.47313105
   0.16114830  0.04469384  0.52686895
   0.86572065  0.98217512  0.52686895
   0.45530616  0.33885170  0.47313105
   0.38427935  0.41114830  0.61645346
   0.73217512  0.70530616  0.61645346
   0.08885170  0.11572065  0.38354654
   0.95530616  0.48217512  0.11645346
   0.23217512  0.61572065  0.02686895
   0.58885170  0.20530616  0.97313105
   0.88427935  0.26782488  0.97313105
   0.29469384  0.91114830  0.02686895
   0.36572065  0.83885170  0.88354654
   0.01782488  0.54469384  0.88354654
   0.66114830  0.13427935  0.11645346
   0.58367721  0.70987704  0.24668552
   0.45987704  0.71319052  0.62619983
   0.08699169  0.83367721  0.37380017
   0.78680948  0.04012296  0.37380017
   0.66632279  0.41300831  0.62619983
   0.46319052  0.33699169  0.75331448
   0.79012296  0.91632279  0.75331448
   0.16300831  0.03680948  0.24668552
   0.16632279  0.54012296  0.25331448
   0.29012296  0.53680948  0.87380017
   0.66300831  0.41632279  0.12619983
   0.96319052  0.20987704  0.12619983
   0.08367721  0.83699169  0.87380017
   0.28680948  0.91300831  0.74668552
   0.95987704  0.33367721  0.74668552
   0.58699169  0.21319052  0.25331448
   0.71785257  0.97031119  0.59433324
   0.72031119  0.62597894  0.75245862
   0.87351932  0.96785257  0.24754138
   0.87402106  0.77968881  0.24754138
   0.53214743  0.62648068  0.75245862
   0.37597894  0.12351932  0.40566676
   0.52968881  0.78214743  0.40566676
   0.37648068  0.12402106  0.59433324
   0.03214743  0.27968881  0.90566676
   0.02968881  0.62402106  0.74754138
   0.87648068  0.28214743  0.25245862
   0.87597894  0.47031119  0.25245862
   0.21785257  0.62351932  0.74754138
   0.37402106  0.12648068  0.09433324
   0.22031119  0.46785257  0.09433324
   0.37351932  0.12597894  0.90566676
   0.62500000  0.91477813  0.78977813
   0.66477813  0.37500000  0.78977813
   0.58522187  0.87500000  0.21022187
   0.12500000  0.83522187  0.21022187
   0.12500000  0.33522187  0.71022187
   0.08522187  0.87500000  0.71022187
   0.16477813  0.37500000  0.28977813
   0.62500000  0.41477813  0.28977813
unknown system                          
           1
    -6.816387    6.816387    7.418828
     6.816387   -6.816387    7.418828
     6.816387    6.816387   -7.418828
   Li   P 
     8    56
Direct configuration=    10
   0.11793579  0.11793579  0.73587257
   0.86793579  0.63206421  0.50000000
   0.13206421  0.36793579  0.50000000
   0.38206421  0.38206421  0.26412743
   0.63206421  0.13206421  0.76412743
   0.88206421  0.61793579  0.00000000
   0.61793579  0.88206421  0.00000000
   0.36793579  0.86793579  0.23587257
   0.79475451  0.76787653  0.38357815
   0.51787653  0.63429938  0.47312201
   0.16117736  0.04475451  0.52687799
   0.86570062  0.98212347  0.52687799
   0.45524549  0.33882264  0.47312201
   0.38429938  0.41117736  0.61642185
   0.73212347  0.70524549  0.61642185
   0.08882264  0.11570062  0.38357815
   0.95524549  0.48212347  0.11642185
   0.23212347  0.61570062  0.02687799
   0.58882264  0.20524549  0.97312201
   0.88429938  0.26787653  0.97312201
   0.29475451  0.91117736  0.02687799
   0.36570062  0.83882264  0.88357815
   0.01787653  0.54475451  0.88357815
   0.66117736  0.13429938  0.11642185
   0.58381501  0.70989459  0.24674772
   0.45989459  0.71314587  0.62607958
   0.08706728  0.83381501  0.37392042
   0.78685413  0.04010541  0.37392042
   0.66618499  0.41293272  0.62607958
   0.46314587  0.33706728  0.75325228
   0.79010541  0.91618499  0.75325228
   0.16293272  0.03685413  0.24674772
   0.16618499  0.54010541  0.25325228
   0.29010541  0.53685413  0.87392042
   0.66293272  0.41618499  0.12607958
   0.96314587  0.20989459  0.12607958
   0.08381501  0.83706728  0.87392042
   0.28685413  0.91293272  0.74674772
   0.95989459  0.33381501  0.74674772
   0.58706728  0.21314587  0.25325228
   0.71790698  0.97026808  0.59438784
   0.72026808  0.62588124  0.75236111
   0.87351913  0.96790698  0.24763889
   0.87411876  0.77973192  0.24763889
   0.53209302  0.62648087  0.75236111
   0.37588124  0.12351913  0.40561216
   0.52973192  0.78209302  0.40561216
   0.37648087  0.12411876  0.59438784
   0.03209302  0.27973192  0.90561216
   0.02973192  0.62411876  0.74763889
   0.87648087  0.28209302  0.25236111
   0.87588124  0.47026808  0.25236111
   0.21790698  0.62351913  0.74763889
   0.37411876  0.12648087  0.09438784
   0.22026808  0.46790698  0.09438784
   0.37351913  0.12588124  0.90561216
   0.62500000  0.91464097  0.78964097
   0.66464097  0.37500000  0.78964097
   0.58535903  0.87500000  0.21035903
   0.12500000  0.83535903  0.21035903
   0.12500000  0.33535903  0.71035903
   0.08535903  0.87500000  0.71035903
   0.16464097  0.37500000  0.28964097
   0.62500000  0.41464097  0.28964097
unknown system                          
           1
    -6.816207    6.816207    7.419354
     6.816207   -6.816207    7.419354
     6.816207    6.816207   -7.419354
   Li   P 
     8    56
Direct configuration=    11
   0.11789191  0.11789191  0.73578483
   0.86789191  0.63210809  0.50000000
   0.13210809  0.36789191  0.50000000
   0.38210809  0.38210809  0.26421517
   0.63210809  0.13210809  0.76421517
   0.88210809  0.61789191  0.00000000
   0.61789191  0.88210809 -0.00000000
   0.36789191  0.86789191  0.23578483
   0.79478805  0.76790507  0.38359563
   0.51790507  0.63431045  0.47311702
   0.16119343  0.04478805  0.52688298
   0.86568955  0.98209493  0.52688298
   0.45521195  0.33880657  0.47311702
   0.38431045  0.41119343  0.61640437
   0.73209493  0.70521195  0.61640437
   0.08880657  0.11568955  0.38359563
   0.95521195  0.48209493  0.11640437
   0.23209493  0.61568955  0.02688298
   0.58880657  0.20521195  0.97311702
   0.88431045  0.26790507  0.97311702
   0.29478805  0.91119343  0.02688298
   0.36568955  0.83880657  0.88359563
   0.01790507  0.54478805  0.88359563
   0.66119343  0.13431045  0.11640437
   0.58389119  0.70990429  0.24678211
   0.45990429  0.71312118  0.62601310
   0.08710907  0.83389119  0.37398690
   0.78687882  0.04009571  0.37398690
   0.66610881  0.41289093  0.62601310
   0.46312118  0.33710907  0.75321789
   0.79009571  0.91610881  0.75321789
   0.16289093  0.03687882  0.24678211
   0.16610881  0.54009571  0.25321789
   0.29009571  0.53687882  0.87398690
   0.66289093  0.41610881  0.12601310
   0.96312118  0.20990429  0.12601310
   0.08389119  0.83710907  0.87398690
   0.28687882  0.91289093  0.74678211
   0.95990429  0.33389119  0.74678211
   0.58710907  0.21312118  0.25321789
   0.71793706  0.97024426  0.59441803
   0.72024426  0.62582723  0.75230720
   0.87351903  0.96793706  0.24769280
   0.87417277  0.77975574  0.24769280
   0.53206294  0.62648097  0.75230720
   0.37582723  0.12351903  0.40558197
   0.52975574  0.78206294  0.40558197
   0.37648097  0.12417277  0.59441803
   0.03206294  0.27975574  0.90558197
   0.02975574  0.62417277  0.74769280
   0.87648097  0.28206294  0.25230720
   0.87582723  0.47024426  0.25230720
   0.21793706  0.62351903  0.74769280
   0.37417277  0.12648097  0.09441803
   0.22024426  0.46793706  0.09441803
   0.37351903  0.12582723  0.90558197
   0.62500000  0.91456515  0.78956515
   0.66456515  0.37500000  0.78956515
   0.58543485  0.87500000  0.21043485
   0.12500000  0.83543485  0.21043485
   0.12500000  0.33543485  0.71043485
   0.08543485  0.87500000  0.71043485
   0.16456515  0.37500000  0.28956515
   0.62500000  0.41456515  0.28956515
unknown system                          
           1
    -6.817006    6.817006    7.421255
     6.817006   -6.817006    7.421255
     6.817006    6.817006   -7.421255
   Li   P 
     8    56
Direct configuration=    12
   0.11789074  0.11789074  0.73578247
   0.86789074  0.63210926  0.50000000
   0.13210926  0.36789074  0.50000000
   0.38210926  0.38210926  0.26421753
   0.63210926  0.13210926  0.76421753
   0.88210926  0.61789074  0.00000000
   0.61789074  0.88210926 -0.00000000
   0.36789074  0.86789074  0.23578247
   0.79477199  0.76788663  0.38354774
   0.51788663  0.63433989  0.47311464
   0.16122524  0.04477199  0.52688536
   0.86566011  0.98211337  0.52688536
   0.45522801  0.33877476  0.47311464
   0.38433989  0.41122524  0.61645226
   0.73211337  0.70522801  0.61645226
   0.08877476  0.11566011  0.38354774