   96   96    1    2
  0.8658484E+01  0.9403248E-09  0.9403248E-09  0.9403248E-09  0.5000000E-15
  1.000000000000000E-004
  CAR 
 unknown system                          
    368      8    264
 
  0.0000000E+00  0.0000000E+00  0.0000000E+00  0.3703704E-01
    1      -40.854441    -40.854444   1.000000   1.000000
    2      -40.851330    -40.851333   1.000000   1.000000
    3      -40.848546    -40.848549   1.000000   1.000000
    4      -40.845972    -40.845974   1.000000   1.000000
    5      -40.842045    -40.842049   1.000000   1.000000
    6      -40.839592    -40.839595   1.000000   1.000000
    7      -40.836429    -40.836433   1.000000   1.000000
    8      -40.834458    -40.834461   1.000000   1.000000
    9      -40.588344    -40.588348   1.000000   1.000000
   10      -40.586937    -40.586940   1.000000   1.000000
   11      -40.570162    -40.570166   1.000000   1.000000
   12      -40.569355    -40.569359   1.000000   1.000000
   13      -40.561145    -40.561148   1.000000   1.000000
   14      -40.557522    -40.557525   1.000000   1.000000
   15      -40.550757    -40.550760   1.000000   1.000000
   16      -40.549734    -40.549738   1.000000   1.000000
   17      -40.549040    -40.549043   1.000000   1.000000
   18      -40.548501    -40.548504   1.000000   1.000000
   19      -40.540467    -40.540470   1.000000   1.000000
   20      -40.536064    -40.536067   1.000000   1.000000
   21      -40.526458    -40.526461   1.000000   1.000000
   22      -40.526251    -40.526254   1.000000   1.000000
   23      -40.515809    -40.515812   1.000000   1.000000
   24      -40.514836    -40.514840   1.000000   1.000000
   25      -40.512463    -40.512466   1.000000   1.000000
   26      -40.507276    -40.507279   1.000000   1.000000
   27      -40.506439    -40.506441   1.000000   1.000000
   28      -40.506332    -40.506334   1.000000   1.000000
   29      -40.503927    -40.503931   1.000000   1.000000
   30      -40.498745    -40.498749   1.000000   1.000000
   31      -40.487513    -40.487516   1.000000   1.000000
   32      -40.486884    -40.486888   1.000000   1.000000
   33      -40.464364    -40.464368   1.000000   1.000000
   34      -40.462548    -40.462551   1.000000   1.000000
   35      -40.447920    -40.447925   1.000000   1.000000
   36      -40.445645    -40.445649   1.000000   1.000000
   37      -40.436541    -40.436544   1.000000   1.000000
   38      -40.436323    -40.436326   1.000000   1.000000
   39      -40.434740    -40.434743   1.000000   1.000000
   40      -40.434014    -40.434018   1.000000   1.000000
   41      -40.429132    -40.429136   1.000000   1.000000
   42      -40.428889    -40.428894   1.000000   1.000000
   43      -40.408337    -40.408341   1.000000   1.000000
   44      -40.407557    -40.407561   1.000000   1.000000
   45      -40.286423    -40.286428   1.000000   1.000000
   46      -40.286186    -40.286190   1.000000   1.000000
   47      -40.286048    -40.286052   1.000000   1.000000
   48      -40.281169    -40.281174   1.000000   1.000000
   49      -40.280901    -40.280905   1.000000   1.000000
   50      -40.280865    -40.280870   1.000000   1.000000
   51      -39.897296    -39.897299   1.000000   1.000000
   52      -39.897189    -39.897191   1.000000   1.000000
   53      -39.896610    -39.896613   1.000000   1.000000
   54      -39.891251    -39.891254   1.000000   1.000000
   55      -39.891128    -39.891130   1.000000   1.000000
   56      -39.890916    -39.890919   1.000000   1.000000
   57      -12.816470    -12.816481   1.000000   1.000000
   58      -12.811672    -12.811684   1.000000   1.000000
   59      -12.683794    -12.683800   1.000000   1.000000
   60      -12.677631    -12.677642   1.000000   1.000000
   61      -12.677628    -12.677639   1.000000   1.000000
   62      -12.677016    -12.677027   1.000000   1.000000
   63      -12.665141    -12.665151   1.000000   1.000000
   64      -12.665037    -12.665047   1.000000   1.000000
   65       -9.586345     -9.586353   1.000000   1.000000
   66       -9.585131     -9.585139   1.000000   1.000000
   67       -9.572545     -9.572553   1.000000   1.000000
   68       -9.561894     -9.561903   1.000000   1.000000
   69       -9.532801     -9.532810   1.000000   1.000000
   70       -9.529090     -9.529099   1.000000   1.000000
   71       -9.511877     -9.511886   1.000000   1.000000
   72       -9.510965     -9.510973   1.000000   1.000000
   73       -9.495305     -9.495314   1.000000   1.000000
   74       -9.487005     -9.487014   1.000000   1.000000
   75       -9.484350     -9.484359   1.000000   1.000000
   76       -9.480235     -9.480243   1.000000   1.000000
   77       -9.463958     -9.463967   1.000000   1.000000
   78       -9.457917     -9.457925   1.000000   1.000000
   79       -9.455287     -9.455295   1.000000   1.000000
   80       -9.442991     -9.443000   1.000000   1.000000
   81       -9.429136     -9.429145   1.000000   1.000000
   82       -9.409736     -9.409744   1.000000   1.000000
   83       -9.386322     -9.386331   1.000000   1.000000
   84       -9.381798     -9.381806   1.000000   1.000000
   85       -9.352350     -9.352358   1.000000   1.000000
   86       -9.329259     -9.329268   1.000000   1.000000
   87       -9.327485     -9.327494   1.000000   1.000000
   88       -9.319815     -9.319824   1.000000   1.000000
   89       -3.004517     -3.004526   1.000000   1.000000
   90       -2.705946     -2.705956   1.000000   1.000000
   91       -2.694287     -2.694297   1.000000   1.000000
   92       -2.685705     -2.685715   1.000000   1.000000
   93       -2.684451     -2.684461   1.000000   1.000000
   94       -2.596975     -2.596986   1.000000   1.000000
   95       -2.596972     -2.596983   1.000000   1.000000
   96       -2.553912     -2.553923   1.000000   1.000000
   97       -1.146409     -1.146412   1.000000   1.000000
   98       -1.142052     -1.142054   1.000000   1.000000
   99       -1.136411     -1.136413   1.000000   1.000000
  100       -1.100805     -1.100808   1.000000   1.000000
  101       -1.095621     -1.095624   1.000000   1.000000
  102       -1.091925     -1.091928   1.000000   1.000000
  103       -0.930502     -0.930505   1.000000   1.000000
  104       -0.819719     -0.819724   1.000000   1.000000
  105       -0.807316     -0.807321   1.000000   1.000000
  106       -0.802172     -0.802176   1.000000   1.000000
  107       -0.798865     -0.798870   1.000000   1.000000
  108       -0.794478     -0.794481   1.000000   1.000000
  109       -0.781949     -0.781953   1.000000   1.000000
  110       -0.685526     -0.685533   1.000000   1.000000
  111       -0.658843     -0.658849   1.000000   1.000000
  112       -0.632765     -0.632771   1.000000   1.000000
  113       -0.428775     -0.428783   1.000000   1.000000
  114       -0.417585     -0.417593   1.000000   1.000000
  115       -0.411915     -0.411923   1.000000   1.000000
  116       -0.398353     -0.398362   1.000000   1.000000
  117       -0.397583     -0.397590   1.000000   1.000000
  118       -0.312036     -0.312045   1.000000   1.000000
  119       -0.310387     -0.310395   1.000000   1.000000
  120       -0.306079     -0.306087   1.000000   1.000000
  121        1.092794      1.092795   1.000000   1.000000
  122        1.093264      1.093265   1.000000   1.000000
  123        1.318228      1.318228   1.000000   1.000000
  124        1.318802      1.318803   1.000000   1.000000
  125        1.321869      1.321869   1.000000   1.000000
  126        1.337868      1.337867   1.000000   1.000000
  127        1.338557      1.338556   1.000000   1.000000
  128        1.397176      1.397175   1.000000   1.000000
  129        1.434501      1.434498   1.000000   1.000000
  130        1.439793      1.439791   1.000000   1.000000
  131        1.461805      1.461809   1.000000   1.000000
  132        1.463448      1.463451   1.000000   1.000000
  133        1.467249      1.467252   1.000000   1.000000
  134        1.654686      1.654685   1.000000   1.000000
  135        1.714765      1.714764   1.000000   1.000000
  136        1.721393      1.721392   1.000000   1.000000
  137        1.724134      1.724134   1.000000   1.000000
  138        1.756315      1.756312   1.000000   1.000000
  139        1.758338      1.758335   1.000000   1.000000
  140        1.895530      1.895528   1.000000   1.000000
  141        1.903657      1.903655   1.000000   1.000000
  142        1.911931      1.911928   1.000000   1.000000
  143        1.955185      1.955183   1.000000   1.000000
  144        1.961413      1.961411   1.000000   1.000000
  145        1.970407      1.970405   1.000000   1.000000
  146        1.988675      1.988673   1.000000   1.000000
  147        1.993249      1.993247   1.000000   1.000000
  148        1.997702      1.997700   1.000000   1.000000
  149        2.021227      2.021223   1.000000   1.000000
  150        2.081044      2.081039   1.000000   1.000000
  151        2.082329      2.082325   1.000000   1.000000
  152        2.300309      2.300306   1.000000   1.000000
  153        2.317260      2.317257   1.000000   1.000000
  154        2.334482      2.334479   1.000000   1.000000
  155        2.382052      2.382049   1.000000   1.000000
  156        2.398108      2.398104   1.000000   1.000000
  157        2.413543      2.413540   1.000000   1.000000
  158        2.534395      2.534394   1.000000   1.000000
  159        2.538593      2.538592   1.000000   1.000000
  160        2.545201      2.545200   1.000000   1.000000
  161        2.632295      2.632292   1.000000   1.000000
  162        2.636102      2.636100   1.000000   1.000000
  163        2.642115      2.642113   1.000000   1.000000
  164        2.679305      2.679306   1.000000   1.000000
  165        2.914910      2.914906   1.000000   1.000000
  166        2.927446      2.927443   1.000000   1.000000
  167        2.929855      2.929851   1.000000   1.000000
  168        2.941613      2.941608   1.000000   1.000000
  169        2.955711      2.955705   1.000000   1.000000
  170        2.983197      2.983192   1.000000   1.000000
  171        3.172723      3.172718   1.000000   1.000000
  172        3.176036      3.176031   1.000000   1.000000
  173        3.181553      3.181548   1.000000   1.000000
  174        3.312950      3.312946   1.000000   1.000000
  175        3.318095      3.318091   1.000000   1.000000
  176        3.319167      3.319163   1.000000   1.000000
  177        3.389662      3.389657   1.000000   1.000000
  178        3.401638      3.401633   1.000000   1.000000
  179        3.452132      3.452127   1.000000   1.000000
  180        3.452356      3.452350   1.000000   1.000000
  181        3.464654      3.464649   1.000000   1.000000
  182        3.604293      3.604287   1.000000   1.000000
  183        3.614019      3.614013   1.000000   1.000000
  184        3.622831      3.622825   1.000000   1.000000
  185        7.104666      7.104706   0.000000   0.000000
  186        7.108589      7.108605   0.000000   0.000000
  187        7.108684      7.108715   0.000000   0.000000
  188        7.830452      7.830484   0.000000   0.000000
  189        8.009853      8.009896   0.000000   0.000000
  190        8.399390      8.399416   0.000000   0.000000
  191        8.410279      8.410306   0.000000   0.000000
  192        8.425578      8.425605   0.000000   0.000000
  193        8.509099      8.509142   0.000000   0.000000
  194        8.515571      8.515603   0.000000   0.000000
  195        8.930635      8.930651   0.000000   0.000000
  196        9.048252      9.048278   0.000000   0.000000
  197        9.096547      9.096573   0.000000   0.000000
  198        9.137852      9.137881   0.000000   0.000000
  199        9.321790      9.321821   0.000000   0.000000
  200        9.329285      9.329323   0.000000   0.000000
  201        9.341568      9.341623   0.000000   0.000000
  202        9.398314      9.398341   0.000000   0.000000
  203        9.401700      9.401736   0.000000   0.000000
  204        9.401940      9.401966   0.000000   0.000000
  205        9.863722      9.863741   0.000000   0.000000
  206        9.877142      9.877069   0.000000   0.000000
  207        9.903700      9.903735   0.000000   0.000000
  208        9.915227      9.915371   0.000000   0.000000
  209        9.931229      9.931260   0.000000   0.000000
  210        9.945170      9.945260   0.000000   0.000000
  211       10.013562     10.013596   0.000000   0.000000
  212       10.122882     10.122906   0.000000   0.000000
  213       10.158253     10.158277   0.000000   0.000000
  214       10.178871     10.178892   0.000000   0.000000
  215       10.209163     10.209208   0.000000   0.000000
  216       10.213575     10.213605   0.000000   0.000000
  217       11.142444     11.142369   0.000000   0.000000
  218       11.284201     11.284287   0.000000   0.000000
  219       11.297065     11.297248   0.000000   0.000000
  220       11.319426     11.319279   0.000000   0.000000
  221       11.320071     11.320054   0.000000   0.000000
  222       11.331275     11.331194   0.000000   0.000000
  223       11.348991     11.348978   0.000000   0.000000
  224       11.369464     11.369292   0.000000   0.000000
  225       11.384327     11.384370   0.000000   0.000000
  226       11.528290     11.528241   0.000000   0.000000
  227       11.545260     11.545220   0.000000   0.000000
  228       11.592769     11.592619   0.000000   0.000000
  229       11.675057     11.675019   0.000000   0.000000
  230       11.681796     11.681864   0.000000   0.000000
  231       11.687225     11.687107   0.000000   0.000000
  232       11.692644     11.692989   0.000000   0.000000
  233       11.695758     11.695732   0.000000   0.000000
  234       11.723904     11.723815   0.000000   0.000000
  235       11.825757     11.825317   0.000000   0.000000
  236       11.896415     11.896448   0.000000   0.000000
  237       11.909435     11.909463   0.000000   0.000000
  238       12.281256     12.284303   0.000000   0.000000
  239       12.291315     12.292738   0.000000   0.000000
  240       12.297267     12.295708   0.000000   0.000000
  241       12.449691     12.460137   0.000000   0.000000
  242       12.509886     12.507578   0.000000   0.000000
  243       12.540066     12.545352   0.000000   0.000000
  244       12.782469     12.786685   0.000000   0.000000
  245       12.817142     12.826045   0.000000   0.000000
  246       12.855157     12.858197   0.000000   0.000000
  247       12.950679     12.954195   0.000000   0.000000
  248       13.039884     13.030122   0.000000   0.000000
  249       13.049363     13.045481   0.000000   0.000000
  250       13.075123     13.066699   0.000000   0.000000
  251       13.092760     13.094902   0.000000   0.000000
  252       13.112671     13.102333   0.000000   0.000000
  253       13.118055     13.133282   0.000000   0.000000
  254       13.132852     13.151233   0.000000   0.000000
  255       13.214302     13.197236   0.000000   0.000000
  256       13.299241     13.396421   0.000000   0.000000
  257       13.408274     13.409233   0.000000   0.000000
  258       13.419607     13.428243   0.000000   0.000000
  259       13.458307     13.469433   0.000000   0.000000
  260       13.501302     13.537353   0.000000   0.000000
  261       13.566386     13.577750   0.000000   0.000000
  262       13.670241     13.645979   0.000000   0.000000
  263       13.743414     13.743219   0.000000   0.000000
  264       13.897259     13.915179   0.000000   0.000000
 
  0.3333333E+00  0.6947298E-18  0.0000000E+00  0.1481481E+00
    1      -40.853300    -40.853303   1.000000   1.000000
    2      -40.851639    -40.851642   1.000000   1.000000
    3      -40.847592    -40.847595   1.000000   1.000000
    4      -40.846222    -40.846225   1.000000   1.000000
    5      -40.841976    -40.841979   1.000000   1.000000
    6      -40.840623    -40.840627   1.000000   1.000000
    7      -40.836371    -40.836375   1.000000   1.000000
    8      -40.835294    -40.835298   1.000000   1.000000
    9      -40.587338    -40.587342   1.000000   1.000000
   10      -40.585633    -40.585637   1.000000   1.000000
   11      -40.573153    -40.573157   1.000000   1.000000
   12      -40.569459    -40.569463   1.000000   1.000000
   13      -40.559385    -40.559388   1.000000   1.000000
   14      -40.557034    -40.557037   1.000000   1.000000
   15      -40.553737    -40.553740   1.000000   1.000000
   16      -40.550439    -40.550442   1.000000   1.000000
   17      -40.548284    -40.548287   1.000000   1.000000
   18      -40.546538    -40.546542   1.000000   1.000000
   19      -40.539854    -40.539857   1.000000   1.000000
   20      -40.537392    -40.537395   1.000000   1.000000
   21      -40.525519    -40.525522   1.000000   1.000000
   22      -40.523773    -40.523776   1.000000   1.000000
   23      -40.518098    -40.518101   1.000000   1.000000
   24      -40.516737    -40.516740   1.000000   1.000000
   25      -40.512570    -40.512573   1.000000   1.000000
   26      -40.509198    -40.509200   1.000000   1.000000
   27      -40.506454    -40.506457   1.000000   1.000000
   28      -40.505266    -40.505268   1.000000   1.000000
   29      -40.501835    -40.501838   1.000000   1.000000
   30      -40.497669    -40.497672   1.000000   1.000000
   31      -40.490173    -40.490177   1.000000   1.000000
   32      -40.486700    -40.486703   1.000000   1.000000
   33      -40.463523    -40.463527   1.000000   1.000000
   34      -40.462576    -40.462580   1.000000   1.000000
   35      -40.446400    -40.446404   1.000000   1.000000
   36      -40.444807    -40.444811   1.000000   1.000000
   37      -40.439740    -40.439744   1.000000   1.000000
   38      -40.436566    -40.436569   1.000000   1.000000
   39      -40.433957    -40.433961   1.000000   1.000000
   40      -40.432221    -40.432225   1.000000   1.000000
   41      -40.431891    -40.431895   1.000000   1.000000
   42      -40.428754    -40.428759   1.000000   1.000000
   43      -40.407748    -40.407752   1.000000   1.000000
   44      -40.406359    -40.406363   1.000000   1.000000
   45      -40.286484    -40.286489   1.000000   1.000000
   46      -40.286203    -40.286207   1.000000   1.000000
   47      -40.284839    -40.284843   1.000000   1.000000
   48      -40.282220    -40.282224   1.000000   1.000000
   49      -40.281260    -40.281265   1.000000   1.000000
   50      -40.280954    -40.280958   1.000000   1.000000
   51      -39.897252    -39.897255   1.000000   1.000000
   52      -39.896633    -39.896636   1.000000   1.000000
   53      -39.895965    -39.895967   1.000000   1.000000
   54      -39.892431    -39.892433   1.000000   1.000000
   55      -39.891181    -39.891183   1.000000   1.000000
   56      -39.890933    -39.890936   1.000000   1.000000
   57      -12.814596    -12.814607   1.000000   1.000000
   58      -12.812212    -12.812223   1.000000   1.000000
   59      -12.682493    -12.682502   1.000000   1.000000
   60      -12.678953    -12.678962   1.000000   1.000000
   61      -12.677635    -12.677646   1.000000   1.000000
   62      -12.677303    -12.677314   1.000000   1.000000
   63      -12.665854    -12.665865   1.000000   1.000000
   64      -12.665599    -12.665610   1.000000   1.000000
   65       -9.586736     -9.586744   1.000000   1.000000
   66       -9.573490     -9.573498   1.000000   1.000000
   67       -9.567348     -9.567357   1.000000   1.000000
   68       -9.557534     -9.557543   1.000000   1.000000
   69       -9.535933     -9.535942   1.000000   1.000000
   70       -9.528921     -9.528929   1.000000   1.000000
   71       -9.515622     -9.515630   1.000000   1.000000
   72       -9.511809     -9.511818   1.000000   1.000000
   73       -9.501974     -9.501983   1.000000   1.000000
   74       -9.496376     -9.496385   1.000000   1.000000
   75       -9.483537     -9.483546   1.000000   1.000000
   76       -9.468591     -9.468599   1.000000   1.000000
   77       -9.462487     -9.462496   1.000000   1.000000
   78       -9.459009     -9.459017   1.000000   1.000000
   79       -9.451869     -9.451877   1.000000   1.000000
   80       -9.448315     -9.448324   1.000000   1.000000
   81       -9.435521     -9.435530   1.000000   1.000000
   82       -9.416272     -9.416281   1.000000   1.000000
   83       -9.380365     -9.380373   1.000000   1.000000
   84       -9.372824     -9.372832   1.000000   1.000000
   85       -9.349465     -9.349474   1.000000   1.000000
   86       -9.336442     -9.336451   1.000000   1.000000
   87       -9.329730     -9.329739   1.000000   1.000000
   88       -9.324358     -9.324367   1.000000   1.000000
   89       -2.945122     -2.945132   1.000000   1.000000
   90       -2.808909     -2.808919   1.000000   1.000000
   91       -2.691879     -2.691889   1.000000   1.000000
   92       -2.691463     -2.691473   1.000000   1.000000
   93       -2.647852     -2.647863   1.000000   1.000000
   94       -2.601068     -2.601079   1.000000   1.000000
   95       -2.583022     -2.583034   1.000000   1.000000
   96       -2.577287     -2.577299   1.000000   1.000000
   97       -1.123030     -1.123032   1.000000   1.000000
   98       -1.121900     -1.121902   1.000000   1.000000
   99       -1.077471     -1.077474   1.000000   1.000000
  100       -1.071194     -1.071197   1.000000   1.000000
  101       -1.062094     -1.062097   1.000000   1.000000
  102       -1.054928     -1.054930   1.000000   1.000000
  103       -0.980943     -0.980945   1.000000   1.000000
  104       -0.864553     -0.864557   1.000000   1.000000
  105       -0.861142     -0.861146   1.000000   1.000000
  106       -0.856336     -0.856340   1.000000   1.000000
  107       -0.711541     -0.711546   1.000000   1.000000
  108       -0.710710     -0.710715   1.000000   1.000000
  109       -0.693313     -0.693318   1.000000   1.000000
  110       -0.683609     -0.683615   1.000000   1.000000
  111       -0.634602     -0.634609   1.000000   1.000000
  112       -0.625638     -0.625645   1.000000   1.000000
  113       -0.505796     -0.505803   1.000000   1.000000
  114       -0.477001     -0.477008   1.000000   1.000000
  115       -0.476297     -0.476304   1.000000   1.000000
  116       -0.444437     -0.444444   1.000000   1.000000
  117       -0.372768     -0.372776   1.000000   1.000000
  118       -0.369256     -0.369264   1.000000   1.000000
  119       -0.328999     -0.329007   1.000000   1.000000
  120       -0.304539     -0.304548   1.000000   1.000000
  121        1.121155      1.121157   1.000000   1.000000
  122        1.160797      1.160798   1.000000   1.000000
  123        1.263046      1.263045   1.000000   1.000000
  124        1.272686      1.272686   1.000000   1.000000
  125        1.323121      1.323123   1.000000   1.000000
  126        1.324338      1.324340   1.000000   1.000000
  127        1.350463      1.350464   1.000000   1.000000
  128        1.359039      1.359039   1.000000   1.000000
  129        1.378460      1.378462   1.000000   1.000000
  130        1.380050      1.380052   1.000000   1.000000
  131        1.409105      1.409103   1.000000   1.000000
  132        1.445864      1.445862   1.000000   1.000000
  133        1.543896      1.543894   1.000000   1.000000
  134        1.551462      1.551461   1.000000   1.000000
  135        1.594821      1.594819   1.000000   1.000000
  136        1.691242      1.691239   1.000000   1.000000
  137        1.746175      1.746174   1.000000   1.000000
  138        1.747438      1.747437   1.000000   1.000000
  139        1.795931      1.795928   1.000000   1.000000
  140        1.902409      1.902407   1.000000   1.000000
  141        1.907343      1.907341   1.000000   1.000000
  142        1.922295      1.922292   1.000000   1.000000
  143        1.928749      1.928747   1.000000   1.000000
  144        1.931071      1.931069   1.000000   1.000000
  145        1.940154      1.940152   1.000000   1.000000
  146        2.000449      2.000446   1.000000   1.000000
  147        2.013688      2.013685   1.000000   1.000000
  148        2.016549      2.016546   1.000000   1.000000
  149        2.098740      2.098738   1.000000   1.000000
  150        2.201339      2.201335   1.000000   1.000000
  151        2.244034      2.244031   1.000000   1.000000
  152        2.246961      2.246958   1.000000   1.000000
  153        2.290150      2.290146   1.000000   1.000000
  154        2.331112      2.331109   1.000000   1.000000
  155        2.336129      2.336126   1.000000   1.000000
  156        2.484756      2.484753   1.000000   1.000000
  157        2.487837      2.487834   1.000000   1.000000
  158        2.592816      2.592813   1.000000   1.000000
  159        2.594037      2.594034   1.000000   1.000000
  160        2.605751      2.605748   1.000000   1.000000
  161        2.697302      2.697299   1.000000   1.000000
  162        2.713517      2.713513   1.000000   1.000000
  163        2.724537      2.724534   1.000000   1.000000
  164        2.757757      2.757753   1.000000   1.000000
  165        2.864670      2.864669   1.000000   1.000000
  166        2.894609      2.894606   1.000000   1.000000
  167        2.898916      2.898913   1.000000   1.000000
  168        2.957230      2.957227   1.000000   1.000000
  169        3.056677      3.056673   1.000000   1.000000
  170        3.063788      3.063784   1.000000   1.000000
  171        3.103035      3.103031   1.000000   1.000000
  172        3.171504      3.171500   1.000000   1.000000
  173        3.196659      3.196655   1.000000   1.000000
  174        3.217295      3.217291   1.000000   1.000000
  175        3.278049      3.278045   1.000000   1.000000
  176        3.286122      3.286117   1.000000   1.000000
  177        3.306761      3.306756   1.000000   1.000000
  178        3.343894      3.343890   1.000000   1.000000
  179        3.382977      3.382972   1.000000   1.000000
  180        3.384905      3.384900   1.000000   1.000000
  181        3.511974      3.511969   1.000000   1.000000
  182        3.535158      3.535152   1.000000   1.000000
  183        3.536857      3.536851   1.000000   1.000000
  184        3.564706      3.564701   1.000000   1.000000
  185        7.226920      7.226938   0.000000   0.000000
  186        7.495559      7.495586   0.000000   0.000000
  187        7.499216      7.499250   0.000000   0.000000
  188        7.666249      7.666272   0.000000   0.000000
  189        8.127305      8.127337   0.000000   0.000000
  190        8.413976      8.414014   0.000000   0.000000
  191        8.473642      8.473671   0.000000   0.000000
  192        8.483756      8.483791   0.000000   0.000000
  193        8.583911      8.583939   0.000000   0.000000
  194        8.584611      8.584638   0.000000   0.000000
  195        8.752308      8.752337   0.000000   0.000000
  196        8.873674      8.873704   0.000000   0.000000
  197        8.911018      8.911054   0.000000   0.000000
  198        9.073984      9.074016   0.000000   0.000000
  199        9.082172      9.082196   0.000000   0.000000
  200        9.089058      9.089096   0.000000   0.000000
  201        9.333975      9.334024   0.000000   0.000000
  202        9.391392      9.391421   0.000000   0.000000
  203        9.449134      9.449158   0.000000   0.000000
  204        9.483999      9.484025   0.000000   0.000000
  205        9.544118      9.544139   0.000000   0.000000
  206        9.578989      9.579038   0.000000   0.000000
  207        9.599835      9.599868   0.000000   0.000000
  208        9.624522      9.624548   0.000000   0.000000
  209        9.817938      9.818008   0.000000   0.000000
  210        9.955139      9.955187   0.000000   0.000000
  211       10.004820     10.004849   0.000000   0.000000
  212       10.009089     10.009123   0.000000   0.000000
  213       10.102573     10.102626   0.000000   0.000000
  214       10.218089     10.218105   0.000000   0.000000
  215       10.287767     10.287792   0.000000   0.000000
  216       10.310740     10.310786   0.000000   0.000000
  217       11.100024     11.100020   0.000000   0.000000
  218       11.144042     11.143949   0.000000   0.000000
  219       11.211813     11.211636   0.000000   0.000000
  220       11.233949     11.233963   0.000000   0.000000
  221       11.313469     11.313483   0.000000   0.000000
  222       11.320508     11.320567   0.000000   0.000000
  223       11.465629     11.465527   0.000000   0.000000
  224       11.527675     11.527488   0.000000   0.000000
  225       11.559128     11.559486   0.000000   0.000000
  226       11.582890     11.583138   0.000000   0.000000
  227       11.632117     11.632004   0.000000   0.000000
  228       11.693550     11.693553   0.000000   0.000000
  229       11.700139     11.700174   0.000000   0.000000
  230       11.767630     11.767188   0.000000   0.000000
  231       11.784388     11.783968   0.000000   0.000000
  232       11.804946     11.804987   0.000000   0.000000
  233       11.892527     11.890751   0.000000   0.000000
  234       11.902391     11.903010   0.000000   0.000000
  235       11.934501     11.934226   0.000000   0.000000
  236       11.943314     11.943694   0.000000   0.000000
  237       12.031968     12.031866   0.000000   0.000000
  238       12.201178     12.201062   0.000000   0.000000
  239       12.219747     12.223142   0.000000   0.000000
  240       12.242759     12.241689   0.000000   0.000000
  241       12.416520     12.415083   0.000000   0.000000
  242       12.422972     12.424752   0.000000   0.000000
  243       12.612889     12.611963   0.000000   0.000000
  244       12.653611     12.656523   0.000000   0.000000
  245       12.803199     12.814549   0.000000   0.000000
  246       12.832072     12.847320   0.000000   0.000000
  247       12.878142     12.889479   0.000000   0.000000