    8    8    1    2
  0.8097562E+01  0.3053147E-09  0.3180362E-09  0.7703522E-09  0.5000000E-15
  1.000000000000000E-004
  CAR 
 unknown system                          
     36    222     26
 
  0.0000000E+00  0.0000000E+00  0.0000000E+00  0.1736111E-02
    1      -41.482612    -41.482451   1.000000   1.000000
    2      -41.475846    -41.475685   1.000000   1.000000
    3      -41.028682    -41.028549   1.000000   1.000000
    4      -41.022708    -41.022573   1.000000   1.000000
    5      -18.020508    -18.020522   1.000000   1.000000
    6      -17.832841    -17.832858   1.000000   1.000000
    7      -13.075917    -13.075923   1.000000   1.000000
    8      -12.349679    -12.349693   1.000000   1.000000
    9       -3.943049     -3.943039   1.000000   1.000000
   10       -2.136245     -2.136247   1.000000   1.000000
   11       -0.832707     -0.832728   1.000000   1.000000
   12       -0.682287     -0.682303   1.000000   1.000000
   13       -0.671331     -0.671353   1.000000   1.000000
   14       -0.530540     -0.530557   1.000000   1.000000
   15        2.272373      2.272351   1.000000   1.000000
   16        2.396351      2.396334   1.000000   1.000000
   17        2.518170      2.518143   1.000000   1.000000
   18        2.624799      2.624778   1.000000   1.000000
   19        4.545775      4.545777   0.000005   0.000005
   20        6.801555      6.801543   0.000000   0.000000
   21        8.928561      8.928524   0.000000   0.000000
   22        9.379828      9.379818   0.000000   0.000000
   23       11.467116     11.467113   0.000000   0.000000
   24       11.495490     11.495450   0.000000   0.000000
   25       14.326064     14.323525   0.000000   0.000000
   26       15.012118     15.006717   0.000000   0.000000
 
  0.8333333E-01  0.4900137E-19  0.0000000E+00  0.3472222E-02
    1      -41.481148    -41.480988   1.000000   1.000000
    2      -41.474820    -41.474659   1.000000   1.000000
    3      -41.026936    -41.026802   1.000000   1.000000
    4      -41.021373    -41.021239   1.000000   1.000000
    5      -18.007433    -18.007448   1.000000   1.000000
    6      -17.823276    -17.823293   1.000000   1.000000
    7      -13.042732    -13.042738   1.000000   1.000000
    8      -12.329006    -12.329020   1.000000   1.000000
    9       -3.924768     -3.924758   1.000000   1.000000
   10       -2.142684     -2.142686   1.000000   1.000000
   11       -0.917310     -0.917329   1.000000   1.000000
   12       -0.858527     -0.858544   1.000000   1.000000
   13       -0.701473     -0.701493   1.000000   1.000000
   14       -0.644198     -0.644215   1.000000   1.000000
   15        2.161128      2.161109   1.000000   1.000000
   16        2.226118      2.226098   1.000000   1.000000
   17        2.457446      2.457425   1.000000   1.000000
   18        2.544310      2.544285   1.000000   1.000000
   19        4.609962      4.609963   0.000001   0.000001
   20        6.794021      6.794008   0.000000   0.000000
   21        9.095041      9.095001   0.000000   0.000000
   22        9.524997      9.524986   0.000000   0.000000
   23       11.596063     11.596059   0.000000   0.000000
   24       11.742474     11.742451   0.000000   0.000000
   25       14.400613     14.401598   0.000000   0.000000
   26       14.621877     14.622495   0.000000   0.000000
 
  0.1666667E+00 -0.1989328E-17  0.0000000E+00  0.3472222E-02
    1      -41.477269    -41.477108   1.000000   1.000000
    2      -41.472089    -41.471928   1.000000   1.000000
    3      -41.022285    -41.022152   1.000000   1.000000
    4      -41.017875    -41.017741   1.000000   1.000000
    5      -17.970812    -17.970828   1.000000   1.000000
    6      -17.797834    -17.797852   1.000000   1.000000
    7      -12.948135    -12.948141   1.000000   1.000000
    8      -12.274769    -12.274783   1.000000   1.000000
    9       -3.871857     -3.871847   1.000000   1.000000
   10       -2.167582     -2.167584   1.000000   1.000000
   11       -1.312590     -1.312605   1.000000   1.000000
   12       -1.084822     -1.084842   1.000000   1.000000
   13       -0.988903     -0.988918   1.000000   1.000000
   14       -0.792259     -0.792281   1.000000   1.000000
   15        1.698465      1.698449   1.000000   1.000000
   16        2.038308      2.038287   1.000000   1.000000
   17        2.056740      2.056724   1.000000   1.000000
   18        2.517729      2.517704   1.000000   1.000000
   19        4.766574      4.766571   0.000000   0.000000
   20        6.759632      6.759619   0.000000   0.000000
   21        9.520260      9.520224   0.000000   0.000000
   22        9.915549      9.915532   0.000000   0.000000
   23       11.926843     11.926846   0.000000   0.000000
   24       12.393729     12.393723   0.000000   0.000000
   25       13.856790     13.856564   0.000000   0.000000
   26       15.066137     15.089996   0.000000   0.000000
 
  0.2500000E+00 -0.2969590E-16  0.0000000E+00  0.3472222E-02
    1      -41.472025    -41.471864   1.000000   1.000000
    2      -41.468369    -41.468208   1.000000   1.000000
    3      -41.015980    -41.015846   1.000000   1.000000
    4      -41.013002    -41.012867   1.000000   1.000000
    5      -17.917240    -17.917257   1.000000   1.000000
    6      -17.764187    -17.764206   1.000000   1.000000
    7      -12.806860    -12.806867   1.000000   1.000000
    8      -12.207275    -12.207289   1.000000   1.000000
    9       -3.791046     -3.791039   1.000000   1.000000
   10       -2.242681     -2.242681   1.000000   1.000000
   11       -1.818218     -1.818231   1.000000   1.000000
   12       -1.431995     -1.432009   1.000000   1.000000
   13       -1.307022     -1.307042   1.000000   1.000000
   14       -0.943799     -0.943822   1.000000   1.000000
   15        1.148260      1.148246   1.000000   1.000000
   16        1.515002      1.514987   1.000000   1.000000
   17        1.839709      1.839688   1.000000   1.000000
   18        2.465285      2.465260   1.000000   1.000000
   19        4.966693      4.966688   0.000000   0.000000
   20        6.681428      6.681416   0.000000   0.000000
   21        9.989817      9.989755   0.000000   0.000000
   22       10.460887     10.460862   0.000000   0.000000
   23       12.315887     12.315857   0.000000   0.000000
   24       13.258491     13.259533   0.000000   0.000000
   25       13.453753     13.453850   0.000000   0.000000
   26       15.584985     15.552133   0.000000   0.000000
 
  0.3333333E+00 -0.1576911E-16  0.0000000E+00  0.3472222E-02
    1      -41.466838    -41.466677   1.000000   1.000000
    2      -41.464613    -41.464451   1.000000   1.000000
    3      -41.009685    -41.009550   1.000000   1.000000
    4      -41.008029    -41.007895   1.000000   1.000000
    5      -17.858111    -17.858129   1.000000   1.000000
    6      -17.733027    -17.733047   1.000000   1.000000
    7      -12.645066    -12.645075   1.000000   1.000000
    8      -12.153435    -12.153448   1.000000   1.000000
    9       -3.697236     -3.697231   1.000000   1.000000
   10       -2.508757     -2.508758   1.000000   1.000000
   11       -2.110049     -2.110059   1.000000   1.000000
   12       -1.840936     -1.840949   1.000000   1.000000
   13       -1.515432     -1.515452   1.000000   1.000000
   14       -1.094819     -1.094842   1.000000   1.000000
   15        0.680303      0.680291   1.000000   1.000000
   16        0.985362      0.985349   1.000000   1.000000
   17        1.660684      1.660664   1.000000   1.000000
   18        2.401378      2.401353   1.000000   1.000000
   19        5.182160      5.182153   0.000000   0.000000
   20        6.559279      6.559266   0.000000   0.000000
   21       10.268272     10.268346   0.000000   0.000000
   22       11.026975     11.026944   0.000000   0.000000
   23       12.627554     12.627346   0.000000   0.000000
   24       13.329107     13.328386   0.000000   0.000000
   25       14.114810     14.110607   0.000000   0.000000
   26       15.135547     15.096262   0.000000   0.000000
 
  0.4166667E+00  0.4260753E-17  0.0000000E+00  0.3472222E-02
    1      -41.463107    -41.462946   1.000000   1.000000
    2      -41.461859    -41.461698   1.000000   1.000000
    3      -41.005132    -41.004998   1.000000   1.000000
    4      -41.004344    -41.004210   1.000000   1.000000
    5      -17.809286    -17.809306   1.000000   1.000000
    6      -17.713895    -17.713915   1.000000   1.000000
    7      -12.503376    -12.503386   1.000000   1.000000
    8      -12.132891    -12.132904   1.000000   1.000000
    9       -3.614411     -3.614409   1.000000   1.000000
   10       -2.833231     -2.833231   1.000000   1.000000
   11       -2.203375     -2.203383   1.000000   1.000000
   12       -2.111637     -2.111647   1.000000   1.000000
   13       -1.658265     -1.658285   1.000000   1.000000
   14       -1.203802     -1.203825   1.000000   1.000000
   15        0.399454      0.399443   1.000000   1.000000
   16        0.578855      0.578842   1.000000   1.000000
   17        1.538121      1.538101   1.000000   1.000000
   18        2.350926      2.350901   1.000000   1.000000
   19        5.374097      5.374089   0.000000   0.000000
   20        6.424130      6.424117   0.000000   0.000000
   21       10.341268     10.341620   0.000000   0.000000
   22       11.405649     11.405639   0.000000   0.000000
   23       12.801608     12.801044   0.000000   0.000000
   24       13.426868     13.425893   0.000000   0.000000
   25       14.711224     14.659424   0.000000   0.000000
   26       14.992155     15.071668   0.000000   0.000000
 
  0.5000000E+00 -0.5939180E-16  0.0000000E+00  0.1736111E-02
    1      -41.461719    -41.461558   1.000000   1.000000
    2      -41.460868    -41.460706   1.000000   1.000000
    3      -41.003522    -41.003388   1.000000   1.000000
    4      -41.002915    -41.002781   1.000000   1.000000
    5      -17.789276    -17.789296   1.000000   1.000000
    6      -17.708545    -17.708565   1.000000   1.000000
    7      -12.441794    -12.441805   1.000000   1.000000
    8      -12.134000    -12.134013   1.000000   1.000000
    9       -3.577509     -3.577510   1.000000   1.000000
   10       -2.963451     -2.963449   1.000000   1.000000
   11       -2.250223     -2.250233   1.000000   1.000000
   12       -2.186863     -2.186872   1.000000   1.000000
   13       -1.708900     -1.708921   1.000000   1.000000
   14       -1.243259     -1.243282   1.000000   1.000000
   15        0.339366      0.339359   1.000000   1.000000
   16        0.394703      0.394687   1.000000   1.000000
   17        1.494699      1.494679   1.000000   1.000000
   18        2.331983      2.331958   1.000000   1.000000
   19        5.460266      5.460257   0.000000   0.000000
   20        6.356887      6.356874   0.000000   0.000000
   21       10.342555     10.342958   0.000000   0.000000
   22       11.522557     11.522506   0.000000   0.000000
   23       12.852418     12.852398   0.000000   0.000000
   24       13.516444     13.514984   0.000000   0.000000
   25       14.850794     14.842481   0.000000   0.000000
   26       14.993925     14.984485   0.000000   0.000000
 
  0.1297874E-17  0.8333333E-01  0.0000000E+00  0.3472222E-02
    1      -41.481370    -41.481210   1.000000   1.000000
    2      -41.475015    -41.474853   1.000000   1.000000
    3      -41.027232    -41.027098   1.000000   1.000000
    4      -41.021643    -41.021509   1.000000   1.000000
    5      -18.010124    -18.010139   1.000000   1.000000
    6      -17.825849    -17.825866   1.000000   1.000000
    7      -13.046816    -13.046822   1.000000   1.000000
    8      -12.332987    -12.333001   1.000000   1.000000
    9       -3.927533     -3.927523   1.000000   1.000000
   10       -2.146277     -2.146279   1.000000   1.000000
   11       -0.997069     -0.997088   1.000000   1.000000
   12       -0.787841     -0.787862   1.000000   1.000000
   13       -0.738445     -0.738462   1.000000   1.000000
   14       -0.556865     -0.556882   1.000000   1.000000
   15        2.077982      2.077961   1.000000   1.000000
   16        2.333723      2.333705   1.000000   1.000000
   17        2.378525      2.378501   1.000000   1.000000
   18        2.629656      2.629635   1.000000   1.000000
   19        4.607229      4.607229   0.000001   0.000001
   20        6.793505      6.793492   0.000000   0.000000
   21        9.114369      9.114329   0.000000   0.000000
   22        9.538344      9.538330   0.000000   0.000000
   23       11.597054     11.597051   0.000000   0.000000
   24       11.733333     11.733290   0.000000   0.000000
   25       14.073293     14.068613   0.000000   0.000000
   26       15.284007     15.146652   0.000000   0.000000
 
  0.8333333E-01  0.8333333E-01  0.0000000E+00  0.3472222E-02
    1      -41.478814    -41.478653   1.000000   1.000000
    2      -41.473260    -41.473099   1.000000   1.000000
    3      -41.024214    -41.024080   1.000000   1.000000
    4      -41.019360    -41.019226   1.000000   1.000000
    5      -17.986668    -17.986683   1.000000   1.000000
    6      -17.809804    -17.809822   1.000000   1.000000
    7      -12.985025    -12.985031   1.000000   1.000000
    8      -12.297329    -12.297343   1.000000   1.000000
    9       -3.893195     -3.893185   1.000000   1.000000
   10       -2.164041     -2.164043   1.000000   1.000000
   11       -1.228764     -1.228782   1.000000   1.000000
   12       -1.052658     -1.052676   1.000000   1.000000
   13       -0.815673     -0.815691   1.000000   1.000000
   14       -0.693824     -0.693842   1.000000   1.000000
   15        1.806286      1.806267   1.000000   1.000000
   16        2.036794      2.036776   1.000000   1.000000
   17        2.294809      2.294790   1.000000   1.000000
   18        2.545214      2.545191   1.000000   1.000000
   19        4.716438      4.716436   0.000000   0.000000
   20        6.772353      6.772340   0.000000   0.000000
   21        9.426931      9.426892   0.000000   0.000000
   22        9.813178      9.813168   0.000000   0.000000
   23       11.832682     11.832673   0.000000   0.000000
   24       12.178548     12.178514   0.000000   0.000000
   25       13.852286     13.852414   0.000000   0.000000
   26       15.168354     15.153300   0.000000   0.000000
 
  0.1666667E+00  0.8333333E-01  0.0000000E+00  0.3472222E-02
    1      -41.474342    -41.474181   1.000000   1.000000
    2      -41.470082    -41.469920   1.000000   1.000000
    3      -41.018831    -41.018697   1.000000   1.000000
    4      -41.015262    -41.015128   1.000000   1.000000
    5      -17.942317    -17.942334   1.000000   1.000000
    6      -17.781029    -17.781048   1.000000   1.000000
    7      -12.868278    -12.868285   1.000000   1.000000
    8      -12.237732    -12.237746   1.000000   1.000000
    9       -3.825190     -3.825182   1.000000   1.000000
   10       -2.212273     -2.212274   1.000000   1.000000
   11       -1.613713     -1.613728   1.000000   1.000000
   12       -1.438204     -1.438221   1.000000   1.000000
   13       -1.011578     -1.011594   1.000000   1.000000
   14       -0.912440     -0.912461   1.000000   1.000000
   15        1.363345      1.363329   1.000000   1.000000
   16        1.647354      1.647338   1.000000   1.000000
   17        2.027123      2.027104   1.000000   1.000000
   18        2.439741      2.439717   1.000000   1.000000
   19        4.896678      4.896673   0.000000   0.000000
   20        6.715102      6.715089   0.000000   0.000000
   21        9.919220      9.919160   0.000000   0.000000
   22       10.292404     10.292377   0.000000   0.000000
   23       12.204104     12.204123   0.000000   0.000000
   24       12.935071     12.934857   0.000000   0.000000
   25       13.521536     13.521469   0.000000   0.000000
   26       15.304269     15.307388   0.000000   0.000000
 
  0.2500000E+00  0.8333333E-01  0.0000000E+00  0.3472222E-02
    1      -41.469146    -41.468984   1.000000   1.000000
    2      -41.466335    -41.466173   1.000000   1.000000
    3      -41.012518    -41.012383   1.000000   1.000000
    4      -41.010349    -41.010214   1.000000   1.000000
    5      -17.885477    -17.885495   1.000000   1.000000
    6      -17.748933    -17.748952   1.000000   1.000000
    7      -12.715325    -12.715333   1.000000   1.000000
    8      -12.178171    -12.178185   1.000000   1.000000
    9       -3.731669     -3.731663   1.000000   1.000000
   10       -2.360297     -2.360297   1.000000   1.000000
   11       -2.020801     -2.020815   1.000000   1.000000
   12       -1.790328     -1.790344   1.000000   1.000000
   13       -1.320519     -1.320536   1.000000   1.000000
   14       -1.065993     -1.066014   1.000000   1.000000
   15        0.890904      0.890890   1.000000   1.000000
   16        1.208121      1.208108   1.000000   1.000000
   17        1.735574      1.735555   1.000000   1.000000
   18        2.346606      2.346581   1.000000   1.000000
   19        5.110558      5.110551   0.000000   0.000000
   20        6.611838      6.611825   0.000000   0.000000
   21       10.339879     10.339887   0.000000   0.000000
   22       10.891032     10.891008   0.000000   0.000000
   23       12.570717     12.570652   0.000000   0.000000
   24       13.318746     13.319011   0.000000   0.000000
   25       13.789056     13.789628   0.000000   0.000000
   26       15.003089     15.003759   0.000000   0.000000
 
  0.3333333E+00  0.8333333E-01  0.0000000E+00  0.3472222E-02
    1      -41.464612    -41.464450   1.000000   1.000000
    2      -41.463033    -41.462872   1.000000   1.000000
    3      -41.006996    -41.006862   1.000000   1.000000
    4      -41.005933    -41.005799   1.000000   1.000000
    5      -17.829218    -17.829237   1.000000   1.000000
    6      -17.723926    -17.723946   1.000000   1.000000
    7      -12.557846    -12.557856   1.000000   1.000000
    8      -12.143792    -12.143805   1.000000   1.000000
    9       -3.630895     -3.630892   1.000000   1.000000
   10       -2.682345     -2.682346   1.000000   1.000000
   11       -2.203425     -2.203435   1.000000   1.000000
   12       -2.081224     -2.081238   1.000000   1.000000
   13       -1.551756     -1.551773   1.000000   1.000000
   14       -1.192556     -1.192576   1.000000   1.000000
   15        0.536778      0.536766   1.000000   1.000000
   16        0.780381      0.780368   1.000000   1.000000
   17        1.535472      1.535454   1.000000   1.000000
   18        2.267372      2.267348   1.000000   1.000000
   19        5.327232      5.327224   0.000000   0.000000
   20        6.473381      6.473367   0.000000   0.000000
   21       10.522686     10.522702   0.000000   0.000000
   22       11.423170     11.423133   0.000000   0.000000
   23       12.827942     12.827791   0.000000   0.000000
   24       13.348780     13.348622   0.000000   0.000000
   25       14.479008     14.470490   0.000000   0.000000
   26       14.812407     14.810987   0.000000   0.000000
 
  0.4166667E+00  0.8333333E-01  0.0000000E+00  0.3472222E-02
    1      -41.461949    -41.461787   1.000000   1.000000
    2      -41.461045    -41.460883   1.000000   1.000000
    3      -41.003761    -41.003626   1.000000   1.000000
    4      -41.003217    -41.003082   1.000000   1.000000
    5      -17.791043    -17.791063   1.000000   1.000000
    6      -17.712090    -17.712110   1.000000   1.000000
    7      -12.444515    -12.444526   1.000000   1.000000
    8      -12.140792    -12.140804   1.000000   1.000000
    9       -3.554605     -3.554605   1.000000   1.000000
   10       -2.926186     -2.926186   1.000000   1.000000
   11       -2.280845     -2.280856   1.000000   1.000000
   12       -2.242425     -2.242437   1.000000   1.000000
   13       -1.665794     -1.665811   1.000000   1.000000
   14       -1.264194     -1.264214   1.000000   1.000000
   15        0.379075      0.379066   1.000000   1.000000
   16        0.484153      0.484138   1.000000   1.000000
   17        1.437529      1.437510   1.000000   1.000000
   18        2.224114      2.224090   1.000000   1.000000
   19        5.487629      5.487620   0.000000   0.000000
   20        6.353210      6.353197   0.000000   0.000000
   21       10.548451     10.548639   0.000000   0.000000
   22       11.692301     11.692261   0.000000   0.000000
   23       12.947486     12.947407   0.000000   0.000000
   24       13.481237     13.480380   0.000000   0.000000
   25       14.757639     14.757355   0.000000   0.000000
   26       14.790203     14.809447   0.000000   0.000000
 
  0.5000000E+00  0.8333333E-01  0.0000000E+00  0.3472222E-02
    1      -41.461833    -41.461672   1.000000   1.000000
    2      -41.460935    -41.460773   1.000000   1.000000
    3      -41.003601    -41.003467   1.000000   1.000000
    4      -41.003071    -41.002936   1.000000   1.000000
    5      -17.789377    -17.789396   1.000000   1.000000
    6      -17.710640    -17.710660   1.000000   1.000000
    7      -12.441614    -12.441624   1.000000   1.000000
    8      -12.138658    -12.138671   1.000000   1.000000
    9       -3.552806     -3.552806   1.000000   1.000000
   10       -2.935689     -2.935688   1.000000   1.000000
   11       -2.273269     -2.273282   1.000000   1.000000
   12       -2.254371     -2.254381   1.000000   1.000000
   13       -1.663432     -1.663450   1.000000   1.000000
   14       -1.265402     -1.265422   1.000000   1.000000
   15        0.366755      0.366746   1.000000   1.000000
   16        0.476121      0.476107   1.000000   1.000000
   17        1.444063      1.444044   1.000000   1.000000
   18        2.229282      2.229258   1.000000   1.000000
   19        5.489211      5.489202   0.000000   0.000000
   20        6.352196      6.352183   0.000000   0.000000
   21       10.543992     10.544308   0.000000   0.000000
   22       11.687687     11.687667   0.000000   0.000000
   23       12.946935     12.946857   0.000000   0.000000
   24       13.433142     13.431930   0.000000   0.000000
   25       14.766485     14.766333   0.000000   0.000000
   26       14.832546     14.821137   0.000000   0.000000
 
 -0.4166667E+00  0.8333333E-01  0.0000000E+00  0.3472222E-02
    1      -41.464285    -41.464123   1.000000   1.000000
    2      -41.462691    -41.462530   1.000000   1.000000
    3      -41.006516    -41.006381   1.000000   1.000000
    4      -41.005511    -41.005377   1.000000   1.000000
    5      -17.824700    -17.824719   1.000000   1.000000
    6      -17.719589    -17.719609   1.000000   1.000000
    7      -12.550110    -12.550120   1.000000   1.000000
    8      -12.137874    -12.137887   1.000000   1.000000
    9       -3.627570     -3.627566   1.000000   1.000000
   10       -2.702470     -2.702471   1.000000   1.000000
   11       -2.185668     -2.185677   1.000000   1.000000
   12       -2.112846     -2.112860   1.000000   1.000000
   13       -1.548813     -1.548831   1.000000   1.000000
   14       -1.196403     -1.196424   1.000000   1.000000
   15        0.509325      0.509313   1.000000   1.000000
   16        0.754525      0.754513   1.000000   1.000000
   17        1.551836      1.551816   1.000000   1.000000
   18        2.279404      2.279379   1.000000   1.000000
   19        5.330475      5.330466   0.000000   0.000000
   20        6.471850      6.471837   0.000000   0.000000
   21       10.507802     10.507887   0.000000   0.000000
   22       11.398423     11.398394   0.000000   0.000000
   23       12.827206     12.826923   0.000000   0.000000
   24       13.251813     13.251520   0.000000   0.000000
   25       14.553714     14.548045   0.000000   0.000000
   26       14.825626     14.824914   0.000000   0.000000
 
 -0.3333333E+00  0.8333333E-01  0.0000000E+00  0.3472222E-02
    1      -41.468678    -41.468516   1.000000   1.000000
    2      -41.465882    -41.465721   1.000000   1.000000
    3      -41.011879    -41.011745   1.000000   1.000000
    4      -41.009758    -41.009623   1.000000   1.000000
    5      -17.879437    -17.879455   1.000000   1.000000
    6      -17.743194    -17.743213   1.000000   1.000000
    7      -12.705637    -12.705645   1.000000   1.000000
    8      -12.169857    -12.169871   1.000000   1.000000
    9       -3.727276     -3.727270   1.000000   1.000000
   10       -2.365027     -2.365028   1.000000   1.000000
   11       -2.030628     -2.030640   1.000000   1.000000
   12       -1.806280     -1.806295   1.000000   1.000000
   13       -1.334670     -1.334689   1.000000   1.000000
   14       -1.073933     -1.073954   1.000000   1.000000
   15        0.861231      0.861217   1.000000   1.000000
   16        1.176899      1.176887   1.000000   1.000000
   17        1.749172      1.749151   1.000000   1.000000
   18        2.355900      2.355875   1.000000   1.000000
   19        5.113749      5.113742   0.000000   0.000000
   20        6.611004      6.610991   0.000000   0.000000
   21       10.310659     10.310634   0.000000   0.000000
   22       10.844107     10.844079   0.000000   0.000000
   23       12.570956     12.570886   0.000000   0.000000
   24       13.234573     13.234762   0.000000   0.000000
   25       13.826978     13.829394   0.000000   0.000000
   26       15.239504     15.050236   0.000000   0.000000
 
 -0.2500000E+00  0.8333333E-01  0.0000000E+00  0.3472222E-02
    1      -41.473860    -41.473699   1.000000   1.000000
    2      -41.469654    -41.469492   1.000000   1.000000
    3      -41.018175    -41.018041   1.000000   1.000000
    4      -41.014697    -41.014562   1.000000   1.000000
    5      -17.936428    -17.936445   1.000000   1.000000
    6      -17.775394    -17.775413   1.000000   1.000000
    7      -12.859083    -12.859090   1.000000   1.000000
    8      -12.229511    -12.229524   1.000000   1.000000
    9       -3.820211     -3.820203   1.000000   1.000000
   10       -2.203151     -2.203152   1.000000   1.000000
   11       -1.628029     -1.628043   1.000000   1.000000
   12       -1.426277     -1.426293   1.000000   1.000000
   13       -1.061640     -1.061658   1.000000   1.000000
   14       -0.929997     -0.930019   1.000000   1.000000
   15        1.352116      1.352100   1.000000   1.000000
   16        1.632975      1.632961   1.000000   1.000000
   17        2.015862      2.015841   1.000000   1.000000
   18        2.431864      2.431838   1.000000   1.000000
   19        4.899644      4.899639   0.000000   0.000000
   20        6.715084      6.715071   0.000000   0.000000
   21        9.878124      9.878099   0.000000   0.000000
   22       10.249412     10.249390   0.000000   0.000000
   23       12.206421     12.206488   0.000000   0.000000
   24       12.944557     12.944547   0.000000   0.000000
   25       13.490956     13.491924   0.000000   0.000000
   26       15.457472     15.461884   0.000000   0.000000
 
 -0.1666667E+00  0.8333333E-01  0.0000000E+00  0.3472222E-02
    1      -41.478498    -41.478337   1.000000   1.000000
    2      -41.472958    -41.472797   1.000000   1.000000
    3      -41.023754    -41.023621   1.000000   1.000000
    4      -41.019014    -41.018879   1.000000   1.000000
    5      -17.982536    -17.982552   1.000000   1.000000
    6      -17.805683    -17.805701   1.000000   1.000000
    7      -12.978748    -12.978754   1.000000   1.000000
    8      -12.291527    -12.291541   1.000000   1.000000
    9       -3.889170     -3.889160   1.000000   1.000000
   10       -2.158027     -2.158029   1.000000   1.000000
   11       -1.186204     -1.186220   1.000000   1.000000
   12       -1.051958     -1.051975   1.000000   1.000000
   13       -0.846800     -0.846818   1.000000   1.000000
   14       -0.763427     -0.763448   1.000000   1.000000
   15        1.843852      1.843835   1.000000   1.000000
   16        2.019324      2.019307   1.000000   1.000000
   17        2.282097      2.282076   1.000000   1.000000
   18        2.498367      2.498342   1.000000   1.000000
   19        4.719618      4.719616   0.000000   0.000000
   20        6.772675      6.772661   0.000000   0.000000
   21        9.394084      9.394044   0.000000   0.000000
   22        9.787005      9.786991   0.000000   0.000000
   23       11.836210     11.836208   0.000000   0.000000
   24       12.179852     12.179821   0.000000   0.000000
   25       13.940306     13.940913   0.000000   0.000000
   26       14.983831     14.983456   0.000000   0.000000
 
 -0.8333333E-01  0.8333333E-01  0.0000000E+00  0.3472222E-02
    1      -41.481263    -41.481102   1.000000   1.000000
    2      -41.474923    -41.474762   1.000000   1.000000
    3      -41.027081    -41.026948   1.000000   1.000000
    4      -41.021528    -41.021394   1.000000   1.000000
    5      -18.008632    -18.008647   1.000000   1.000000
    6      -17.824422    -17.824439   1.000000   1.000000
    7      -13.044562    -13.044568   1.000000   1.000000
    8      -12.330934    -12.330948   1.000000   1.000000
    9       -3.925957     -3.925946   1.000000   1.000000
   10       -2.144289     -2.144291   1.000000   1.000000
   11       -0.950448     -0.950467   1.000000   1.000000
   12       -0.830499     -0.830517   1.000000   1.000000
   13       -0.712160     -0.712179   1.000000   1.000000
   14       -0.609735     -0.609752   1.000000   1.000000
   15        2.122897      2.122876   1.000000   1.000000
   16        2.273926      2.273907   1.000000   1.000000
   17        2.426389      2.426367   1.000000   1.000000
   18        2.580096      2.580074   1.000000   1.000000
   19        4.609016      4.609016   0.000001   0.000001
   20        6.793738      6.793725   0.000000   0.000000
   21        9.102721      9.102681   0.000000   0.000000
   22        9.529630      9.529618   0.000000   0.000000
   23       11.598846     11.598843   0.000000   0.000000
   24       11.733540     11.733509   0.000000   0.000000
   25       14.182003     14.181589   0.000000   0.000000