 running on   12 total cores
 distrk:  each k-point on   12 cores,    1 groups
 distr:  one band on    6 cores,    2 groups
 using from now: INCAR     
 vasp.6.1.2 22Jul20 (build Mar 20 2021 11:25:07) complex                        
  
 POSCAR found type information on POSCAR LiO 
 POSCAR found :  2 types and       8 ions
 scaLAPACK will be used
 -----------------------------------------------------------------------------
|                                                                             |
|               ----> ADVICE to this user running VASP <----                  |
|                                                                             |
|     You have a (more or less) 'small supercell' and for smaller cells       |
|     it is recommended to use the reciprocal-space projection scheme!        |
|     The real-space optimization is not efficient for small cells and it     |
|     is also less accurate ...                                               |
|     Therefore, set LREAL=.FALSE. in the INCAR file.                         |
|                                                                             |
 -----------------------------------------------------------------------------

 LDA part: xc-table for Pade appr. of Perdew
 generate k-points for:   12   12    4
 POSCAR, INCAR and KPOINTS ok, starting setup
 FFT: planning ...
 WAVECAR not read
 entering main loop
       N       E                     dE             d eps       ncg     rms          rms(c)
DAV:   1     0.260527979705E+03    0.26053E+03   -0.17745E+04 23096   0.148E+03
DAV:   2    -0.146180281974E+02   -0.27515E+03   -0.26600E+03 27622   0.372E+02
DAV:   3    -0.373651423232E+02   -0.22747E+02   -0.22585E+02 37962   0.904E+01
DAV:   4    -0.392345762436E+02   -0.18694E+01   -0.18648E+01 33968   0.228E+01
DAV:   5    -0.392826323449E+02   -0.48056E-01   -0.48052E-01 32722   0.329E+00    0.178E+01
RMM:   6    -0.381449622154E+02    0.11377E+01   -0.49862E+00 25470   0.120E+01    0.789E+00
RMM:   7    -0.387688717718E+02   -0.62391E+00   -0.85085E-01 29082   0.583E+00    0.392E+00
RMM:   8    -0.388499946220E+02   -0.81123E-01   -0.39142E-01 34680   0.361E+00    0.157E+00
RMM:   9    -0.388611477323E+02   -0.11153E-01   -0.13682E-01 36556   0.233E+00    0.398E-01
RMM:  10    -0.388723857401E+02   -0.11238E-01   -0.73075E-02 40802   0.135E+00    0.201E-01
RMM:  11    -0.388767353620E+02   -0.43496E-02   -0.27810E-02 41891   0.798E-01    0.148E-01
RMM:  12    -0.388783716227E+02   -0.16363E-02   -0.12434E-02 43414   0.480E-01    0.112E-01
RMM:  13    -0.388788092717E+02   -0.43765E-03   -0.42511E-03 40823   0.346E-01    0.564E-02
RMM:  14    -0.388791753689E+02   -0.36610E-03   -0.24679E-03 41435   0.245E-01    0.129E-02
RMM:  15    -0.388793134004E+02   -0.13803E-03   -0.12345E-03 39614   0.145E-01    0.108E-02
RMM:  16    -0.388793665223E+02   -0.53122E-04   -0.49136E-04 38225   0.939E-02    0.101E-02
WARNING in EDDRMM: call to ZHEGV failed, returncode =   6  3     10
WARNING in EDDRMM: call to ZHEGV failed, returncode =   6  3      3
RMM:  17    -0.388793828424E+02   -0.16320E-04   -0.18929E-04 37378   0.651E-02    0.452E-03
RMM:  18    -0.388793901173E+02   -0.72748E-05   -0.74870E-05 30343   0.451E-02
   1 F= -.38879390E+02 E0= -.38879390E+02  d E =0.000000E+00  mag=    -0.0000
