Automatically generated mesh
      48
Reciprocal lattice
    0.00000000000000    0.00000000000000    0.00000000000000             1
    0.14285714285715    0.00000000000000    0.00000000000000             2
    0.28571428571428    0.00000000000000    0.00000000000000             2
    0.42857142857143    0.00000000000000    0.00000000000000             2
    0.00000000000000    0.16666666666666    0.00000000000000             2
    0.14285714285715    0.16666666666666    0.00000000000000             4
    0.28571428571428    0.16666666666666    0.00000000000000             4
    0.42857142857143    0.16666666666666    0.00000000000000             4
    0.00000000000000    0.33333333333334    0.00000000000000             2
    0.14285714285715    0.33333333333334    0.00000000000000             4
    0.28571428571428    0.33333333333334    0.00000000000000             4
    0.42857142857143    0.33333333333334    0.00000000000000             4
    0.00000000000000    0.50000000000000    0.00000000000000             1
    0.14285714285715    0.50000000000000    0.00000000000000             2
    0.28571428571428    0.50000000000000    0.00000000000000             2
    0.42857142857143    0.50000000000000    0.00000000000000             2
    0.00000000000000    0.00000000000000    0.20000000000000             2
    0.14285714285715    0.00000000000000    0.20000000000000             4
    0.28571428571428    0.00000000000000    0.20000000000000             4
    0.42857142857143    0.00000000000000    0.20000000000000             4
    0.00000000000000    0.16666666666666    0.20000000000000             4
    0.14285714285715    0.16666666666666    0.20000000000000             8
    0.28571428571428    0.16666666666666    0.20000000000000             8
    0.42857142857143    0.16666666666666    0.20000000000000             8
    0.00000000000000    0.33333333333334    0.20000000000000             4
    0.14285714285715    0.33333333333334    0.20000000000000             8
    0.28571428571428    0.33333333333334    0.20000000000000             8
    0.42857142857143    0.33333333333334    0.20000000000000             8
    0.00000000000000    0.50000000000000    0.20000000000000             2
    0.14285714285715    0.50000000000000    0.20000000000000             4
    0.28571428571428    0.50000000000000    0.20000000000000             4
    0.42857142857143    0.50000000000000    0.20000000000000             4
    0.00000000000000    0.00000000000000    0.40000000000000             2
    0.14285714285715    0.00000000000000    0.40000000000000             4
    0.28571428571428    0.00000000000000    0.40000000000000             4
    0.42857142857143    0.00000000000000    0.40000000000000             4
    0.00000000000000    0.16666666666666    0.40000000000000             4
    0.14285714285715    0.16666666666666    0.40000000000000             8
    0.28571428571428    0.16666666666666    0.40000000000000             8
    0.42857142857143    0.16666666666666    0.40000000000000             8
    0.00000000000000    0.33333333333334    0.40000000000000             4
    0.14285714285715    0.33333333333334    0.40000000000000             8
    0.28571428571428    0.33333333333334    0.40000000000000             8
    0.42857142857143    0.33333333333334    0.40000000000000             8
    0.00000000000000    0.50000000000000    0.40000000000000             2
    0.14285714285715    0.50000000000000    0.40000000000000             4
    0.28571428571428    0.50000000000000    0.40000000000000             4
    0.42857142857143    0.50000000000000    0.40000000000000             4
Tetrahedra
       621    0.00079365079365
         2         1         2         6        17
         2         1         5         6        17
         2         5         6        17        21
         2         2         6        17        18
         2         6        17        18        22
         2         6        17        21        22
         2         2         3         7        18
         2         2         6         7        18
         2         6         7        18        22
         2         3         7        18        19
         2         7        18        19        23
         2         7        18        22        23
         2         3         4         8        19
         2         3         7         8        19
         2         7         8        19        23
         2         4         8        19        20
         2         8        19        20        24
         2         8        19        23        24
         2         4         4         8        20
         2         4         8         8        20
         2         8         8        20        24
         2         4         8        20        20
         2         8        20        20        24
         2         8        20        24        24
         2         3         4         7        20
         2         4         7         8        20
         2         7         8        20        24
         2         3         7        19        20
         2         7        19        20        23
         2         7        20        23        24
         2         2         3         6        19
         2         3         6         7        19
         2         6         7        19        23
         2         2         6        18        19
         2         6        18        19        22
         2         6        19        22        23
         2         1         2         5        18
         2         2         5         6        18
         2         5         6        18        22
         2         1         5        17        18
         2         5        17        18        21
         2         5        18        21        22
         2         5         6        10        21
         2         5         9        10        21
         2         9        10        21        25
         2         6        10        21        22
         2        10        21        22        26
         2        10        21        25        26
         2         6         7        11        22
         2         6        10        11        22
         2        10        11        22        26
         2         7        11        22        23
         2        11        22        23        27
         2        11        22        26        27
         2         7         8        12        23
         2         7        11        12        23
         2        11        12        23        27
         2         8        12        23        24
         2        12        23        24        28
         2        12        23        27        28
         2         8         8        12        24
         2         8        12        12        24
         2        12        12        24        28
         2         8        12        24        24
         2        12        24        24        28
         2        12        24        28        28
         2         7         8        11        24
         2         8        11        12        24
         2        11        12        24        28
         2         7        11        23        24
         2        11        23        24        27
         2        11        24        27        28
         2         6         7        10        23
         2         7        10        11        23
         2        10        11        23        27
         2         6        10        22        23
         2        10        22        23        26
         2        10        23        26        27
         2         5         6         9        22
         2         6         9        10        22
         2         9        10        22        26
         2         5         9        21        22
         2         9        21        22        25
         2         9        22        25        26
         2         9        10        14        25
         2         9        13        14        25
         2        13        14        25        29
         2        10        14        25        26
         2        14        25        26        30
         2        14        25        29        30
         2        10        11        15        26
         2        10        14        15        26
         2        14        15        26        30
         2        11        15        26        27
         2        15        26        27        31
         2        15        26        30        31
         2        11        12        16        27
         2        11        15        16        27
         2        15        16        27        31
         2        12        16        27        28
         2        16        27        28        32
         2        16        27        31        32
         2        12        12        16        28
         2        12        16        16        28
         2        16        16        28        32
         2        12        16        28        28
         2        16        28        28        32
         2        16        28        32        32
         2        11        12        15        28
         2        12        15        16        28
         2        15        16        28        32
         2        11        15        27        28
         2        15        27        28        31
         2        15        28        31        32
         2        10        11        14        27
         2        11        14        15        27
         2        14        15        27        31
         2        10        14        26        27
         2        14        26        27        30
         2        14        27        30        31
         2         9        10        13        26
         2        10        13        14        26
         2        13        14        26        30
         2         9        13        25        26
         2        13        25        26        29
         2        13        26        29        30
         2        10        13        14        29
         2         9        10        13        29
         2         9        10        25        29
         2        10        14        29        30
         2        10        26        29        30
         2        10        25        26        29
         2        11        14        15        30
         2        10        11        14        30
         2        10        11        26        30
         2        11        15        30        31
         2        11        27        30        31
         2        11        26        27        30
         2        12        15        16        31
         2        11        12        15        31
         2        11        12        27        31
         2        12        16        31        32
         2        12        28        31        32
         2        12        27        28        31
         2        12        16        16        32
         2        12        12        16        32
         2        12        12        28        32
         2        12        16        32        32
         2        12        28        32        32
         2        12        28        28        32
         2        11        15        16        32
         2        11        12        16        32
         2        11        12        28        32
         2        11        15        31        32
         2        11        27        31        32
         2        11        27        28        32
         2        10        14        15        31
         2        10        11        15        31
         2        10        11        27        31
         2        10        14        30        31
         2        10        26        30        31
         2        10        26        27        31
         2         9        13        14        30
         2         9        10        14        30
         2         9        10        26        30
         2         9        13        29        30
         2         9        25        29        30
         2         9        25        26        30
         2         6         9        10        25
         2         5         6         9        25
         2         5         6        21        25
         2         6        10        25        26
         2         6        22        25        26
         2         6        21        22        25
         2         7        10        11        26
         2         6         7        10        26
         2         6         7        22        26
         2         7        11        26        27
         2         7        23        26        27
         2         7        22        23        26
         2         8        11        12        27
         2         7         8        11        27
         2         7         8        23        27
         2         8        12        27        28
         2         8        24        27        28
         2         8        23        24        27
         2         8        12        12        28
         2         8         8        12        28
         2         8         8        24        28
         2         8        12        28        28
         2         8        24        28        28
         2         8        24        24        28
         2         7        11        12        28
         2         7         8        12        28
         2         7         8        24        28
         2         7        11        27        28
         2         7        23        27        28
         2         7        23        24        28
         2         6        10        11        27
         2         6         7        11        27
         2         6         7        23        27
         2         6        10        26        27
         2         6        22        26        27
         2         6        22        23        27
         2         5         9        10        26
         2         5         6        10        26
         2         5         6        22        26
         2         5         9        25        26
         2         5        21        25        26
         2         5        21        22        26
         2         2         5         6        21
         2         1         2         5        21
         2         1         2        17        21
         2         2         6        21        22
         2         2        18        21        22
         2         2        17        18        21
         2         3         6         7        22
         2         2         3         6        22
         2         2         3        18        22
         2         3         7        22        23
         2         3        19        22        23
         2         3        18        19        22
         2         4         7         8        23
         2         3         4         7        23
         2         3         4        19        23
         2         4         8        23        24
         2         4        20        23        24
         2         4        19        20        23
         2         4         8         8        24
         2         4         4         8        24
         2         4         4        20        24
         2         4         8        24        24
         2         4        20        24        24
         2         4        20        20        24
         2         3         7         8        24
         2         3         4         8        24
         2         3         4        20        24
         2         3         7        23        24
         2         3        19        23        24
         2         3        19        20        24
         2         2         6         7        23
         2         2         3         7        23
         2         2         3        19        23
         2         2         6        22        23
         2         2        18        22        23
         2         2        18        19        23
         2         1         5         6        22
         2         1         2         6        22
         2         1         2        18        22
         2         1         5        21        22
         2         1        17        21        22
         2         1        17        18        22
         2        17        18        22        33
         2        17        21        22        33
         2        21        22        33        37
         2        18        22        33        34
         2        22        33        34        38
         2        22        33        37        38
         2        18        19        23        34
         2        18        22        23        34
         2        22        23        34        38
         2        19        23        34        35
         2        23        34        35        39
         2        23        34        38        39
         2        19        20        24        35
         2        19        23        24        35
         2        23        24        35        39
         2        20        24        35        36
         2        24        35        36        40
         2        24        35        39        40
         2        20        20        24        36
         2        20        24        24        36
         2        24        24        36        40
         2        20        24        36        36
         2        24        36        36        40
         2        24        36        40        40
         2        19        20        23        36
         2        20        23        24        36
         2        23        24        36        40
         2        19        23        35        36
         2        23        35        36        39
         2        23        36        39        40
         2        18        19        22        35
         2        19        22        23        35
         2        22        23        35        39
         2        18        22        34        35
         2        22        34        35        38
         2        22        35        38        39
         2        17        18        21        34
         2        18        21        22        34
         2        21        22        34        38
         2        17        21        33        34
         2        21        33        34        37
         2        21        34        37        38
         2        21        22        26        37
         2        21        25        26        37
         2        25        26        37        41
         2        22        26        37        38
         2        26        37        38        42
         2        26        37        41        42
         2        22        23        27        38
         2        22        26        27        38
         2        26        27        38        42
         2        23        27        38        39
         2        27        38        39        43
         2        27        38        42        43
         2        23        24        28        39
         2        23        27        28        39
         2        27        28        39        43
         2        24        28        39        40
         2        28        39        40        44
         2        28        39        43        44
         2        24        24        28        40
         2        24        28        28        40
         2        28        28        40        44
         2        24        28        40        40
         2        28        40        40        44
         2        28        40        44        44
         2        23        24        27        40
         2        24        27        28        40
         2        27        28        40        44
         2        23        27        39        40
         2        27        39        40        43
         2        27        40        43        44
         2        22        23        26        39
         2        23        26        27        39
         2        26        27        39        43
         2        22        26        38        39
         2        26        38        39        42
         2        26        39        42        43
         2        21        22        25        38
         2        22        25        26        38
         2        25        26        38        42
         2        21        25        37        38
         2        25        37        38        41
         2        25        38        41        42
         2        25        26        30        41
         2        25        29        30        41
         2        29        30        41        45
         2        26        30        41        42
         2        30        41        42        46
         2        30        41        45        46
         2        26        27        31        42
         2        26        30        31        42
         2        30        31        42        46
         2        27        31        42        43
         2        31        42        43        47
         2        31        42        46        47
         2        27        28        32        43
         2        27        31        32        43
         2        31        32        43        47
         2        28        32        43        44
         2        32        43        44        48
         2        32        43        47        48
         2        28        28        32        44
         2        28        32        32        44
         2        32        32        44        48
         2        28        32        44        44
         2        32        44        44        48
         2        32        44        48        48
         2        27        28        31        44
         2        28        31        32        44
         2        31        32        44        48
         2        27        31        43        44
         2        31        43        44        47
         2        31        44        47        48
         2        26        27        30        43
         2        27        30        31        43
         2        30        31        43        47
         2        26        30        42        43
         2        30        42        43        46
         2        30        43        46        47
         2        25        26        29        42
         2        26        29        30        42
         2        29        30        42        46
         2        25        29        41        42
         2        29        41        42        45
         2        29        42        45        46
         2        26        29        30        45
         2        25        26        29        45
         2        25        26        41        45
         2        26        30        45        46
         2        26        42        45        46
         2        26        41        42        45
         2        27        30        31        46
         2        26        27        30        46
         2        26        27        42        46
         2        27        31        46        47
         2        27        43        46        47
         2        27        42        43        46
         2        28        31        32        47
         2        27        28        31        47
         2        27        28        43        47
         2        28        32        47        48
         2        28        44        47        48
         2        28        43        44        47
         2        28        32        32        48
         2        28        28        32        48
         2        28        28        44        48
         2        28        32        48        48
         2        28        44        48        48
         2        28        44        44        48
         2        27        31        32        48
         2        27        28        32        48
         2        27        28        44        48
         2        27        31        47        48
         2        27        43        47        48
         2        27        43        44        48
         2        26        30        31        47
         2        26        27        31        47
         2        26        27        43        47
         2        26        30        46        47
         2        26        42        46        47
         2        26        42        43        47
         2        25        29        30        46
         2        25        26        30        46
         2        25        26        42        46
         2        25        29        45        46
         2        25        41        45        46
         2        25        41        42        46
         2        22        25        26        41
         2        21        22        25        41
         2        21        22        37        41
         2        22        26        41        42
         2        22        38        41        42
         2        22        37        38        41
         2        23        26        27        42
         2        22        23        26        42
         2        22        23        38        42
         2        23        27        42        43
         2        23        39        42        43
         2        23        38        39        42
         2        24        27        28        43
         2        23        24        27        43
         2        23        24        39        43
         2        24        28        43        44
         2        24        40        43        44
         2        24        39        40        43
         2        24        28        28        44
         2        24        24        28        44
         2        24        24        40        44
         2        24        28        44        44
         2        24        40        44        44
         2        24        40        40        44
         2        23        27        28        44
         2        23        24        28        44
         2        23        24        40        44
         2        23        27        43        44
         2        23        39        43        44
         2        23        39        40        44
         2        22        26        27        43
         2        22        23        27        43
         2        22        23        39        43
         2        22        26        42        43
         2        22        38        42        43
         2        22        38        39        43
         2        21        25        26        42
         2        21        22        26        42
         2        21        22        38        42
         2        21        25        41        42
         2        21        37        41        42
         2        21        37        38        42
         2        18        21        22        37
         2        17        18        21        37
         2        17        18        33        37
         2        18        22        37        38
         2        18        34        37        38
         2        18        33        34        37
         2        19        22        23        38
         2        18        19        22        38
         2        18        19        34        38
         2        19        23        38        39
         2        19        35        38        39
         2        19        34        35        38
         2        20        23        24        39
         2        19        20        23        39
         2        19        20        35        39
         2        20        24        39        40
         2        20        36        39        40
         2        20        35        36        39
         2        20        24        24        40
         2        20        20        24        40
         2        20        20        36        40
         2        20        24        40        40
         2        20        36        40        40
         2        20        36        36        40
         2        19        23        24        40
         2        19        20        24        40
         2        19        20        36        40
         2        19        23        39        40
         2        19        35        39        40
         2        19        35        36        40
         2        18        22        23        39
         2        18        19        23        39
         2        18        19        35        39
         2        18        22        38        39
         2        18        34        38        39
         2        18        34        35        39
         2        17        21        22        38
         2        17        18        22        38
         2        17        18        34        38
         2        17        21        37        38
         2        17        33        37        38
         2        17        33        34        38
         2        33        33        34        38
         2        33        33        37        38
         2        33        37        37        38
         2        33        34        34        38
         2        33        34        38        38
         2        33        37        38        38
         2        34        34        35        39
         2        34        34        38        39
         2        34        38        38        39
         2        34        35        35        39
         2        34        35        39        39