 running on    8 total cores
 distrk:  each k-point on    8 cores,    1 groups
 distr:  one band on    1 cores,    8 groups
 using from now: INCAR     
 vasp.6.1.2 22Jul20 (build Mar 20 2021 11:25:07) complex                        
  
 POSCAR found type information on POSCAR LiP O 
 POSCAR found :  3 types and      16 ions
 scaLAPACK will be used
 -----------------------------------------------------------------------------
|                                                                             |
|           W    W    AA    RRRRR   N    N  II  N    N   GGGG   !!!           |
|           W    W   A  A   R    R  NN   N  II  NN   N  G    G  !!!           |
|           W    W  A    A  R    R  N N  N  II  N N  N  G       !!!           |
|           W WW W  AAAAAA  RRRRR   N  N N  II  N  N N  G  GGG   !            |
|           WW  WW  A    A  R   R   N   NN  II  N   NN  G    G                |
|           W    W  A    A  R    R  N    N  II  N    N   GGGG   !!!           |
|                                                                             |
|     The value NCORE = 6 specified in the INCAR file was overwritten,        |
|     because it was not compatible with the 8 processes available:           |
|     NCORE = 1                                                               |
|     was used instead, please check that this makes sense for your           |
|     machine.                                                                |
|                                                                             |
 -----------------------------------------------------------------------------

 -----------------------------------------------------------------------------
|                                                                             |
|           W    W    AA    RRRRR   N    N  II  N    N   GGGG   !!!           |
|           W    W   A  A   R    R  NN   N  II  NN   N  G    G  !!!           |
|           W    W  A    A  R    R  N N  N  II  N N  N  G       !!!           |
|           W WW W  AAAAAA  RRRRR   N  N N  II  N  N N  G  GGG   !            |
|           WW  WW  A    A  R   R   N   NN  II  N   NN  G    G                |
|           W    W  A    A  R    R  N    N  II  N    N   GGGG   !!!           |
|                                                                             |
|     For optimal performance we recommend to set                             |
|       NCORE = 4 - approx SQRT(number of cores).                             |
|     NCORE specifies how many cores store one orbital (NPAR=cpu/NCORE).      |
|     This setting can greatly improve the performance of VASP for DFT.       |
|     The default, NCORE=1 might be grossly inefficient on modern             |
|     multi-core architectures or massively parallel machines. Do your        |
|     own testing!!!!                                                         |
|     Unfortunately you need to use the default for GW and RPA                |
|     calculations (for HF NCORE is supported but not extensively tested      |
|     yet).                                                                   |
|                                                                             |
 -----------------------------------------------------------------------------

 LDA part: xc-table for Pade appr. of Perdew
 -----------------------------------------------------------------------------
|                                                                             |
|           W    W    AA    RRRRR   N    N  II  N    N   GGGG   !!!           |
|           W    W   A  A   R    R  NN   N  II  NN   N  G    G  !!!           |
|           W    W  A    A  R    R  N N  N  II  N N  N  G       !!!           |
|           W WW W  AAAAAA  RRRRR   N  N N  II  N  N N  G  GGG   !            |
|           WW  WW  A    A  R   R   N   NN  II  N   NN  G    G                |
|           W    W  A    A  R    R  N    N  II  N    N   GGGG   !!!           |
|                                                                             |
|     The determination of the symmetry of your systems shows a strong        |
|     dependence on the tolerance parameter SYMPREC. This is often the        |
|     result of "noise" in the structural parameters (lattice vectors         |
|     and/or ionic positions). Set NWRITE=3 for more details.                 |
|                                                                             |
 -----------------------------------------------------------------------------

 generate k-points for:    7    6    5
 POSCAR, INCAR and KPOINTS ok, starting setup
 FFT: planning ...
 WAVECAR not read
 entering main loop
       N       E                     dE             d eps       ncg     rms          rms(c)
DAV:   1     0.603787635615E+03    0.60379E+03   -0.36807E+04 10752   0.143E+03
DAV:   2    -0.470710811694E+02   -0.65086E+03   -0.61569E+03 12384   0.379E+02
DAV:   3    -0.103312810659E+03   -0.56242E+02   -0.55933E+02 14944   0.103E+02
DAV:   4    -0.108730743497E+03   -0.54179E+01   -0.53864E+01 17768   0.264E+01
DAV:   5    -0.109196565522E+03   -0.46582E+00   -0.46570E+00 15192   0.558E+00    0.388E+01
RMM:   6    -0.992009433643E+02    0.99956E+01   -0.37667E+01 11707   0.219E+01    0.156E+01
RMM:   7    -0.100207892543E+03   -0.10069E+01   -0.40894E+00 15358   0.772E+00    0.832E+00
RMM:   8    -0.100427526612E+03   -0.21963E+00   -0.87478E-01 17332   0.394E+00    0.412E+00
RMM:   9    -0.100497991515E+03   -0.70465E-01   -0.32731E-01 17361   0.282E+00    0.807E-01
RMM:  10    -0.100527410771E+03   -0.29419E-01   -0.22899E-01 19954   0.165E+00    0.361E-01
RMM:  11    -0.100541116314E+03   -0.13706E-01   -0.99894E-02 20592   0.994E-01    0.295E-01
RMM:  12    -0.100546965025E+03   -0.58487E-02   -0.38963E-02 20844   0.609E-01    0.187E-01
RMM:  13    -0.100549009481E+03   -0.20445E-02   -0.14143E-02 20102   0.413E-01    0.870E-02
RMM:  14    -0.100549904871E+03   -0.89539E-03   -0.75149E-03 20645   0.289E-01    0.284E-02
RMM:  15    -0.100550273638E+03   -0.36877E-03   -0.33176E-03 20326   0.177E-01    0.287E-02
RMM:  16    -0.100550419113E+03   -0.14547E-03   -0.13773E-03 19985   0.114E-01    0.201E-02
RMM:  17    -0.100550480302E+03   -0.61189E-04   -0.54741E-04 19513   0.781E-02    0.127E-02
RMM:  18    -0.100550507500E+03   -0.27199E-04   -0.26476E-04 18938   0.510E-02    0.130E-02
RMM:  19    -0.100550517639E+03   -0.10139E-04   -0.82567E-05 15919   0.347E-02    0.175E-02
RMM:  20    -0.100550517998E+03   -0.35881E-06   -0.25436E-05 14116   0.280E-02
   1 F= -.10055052E+03 E0= -.10055052E+03  d E =0.000000E+00  mag=    -0.0000
