 running on    8 total cores
 distrk:  each k-point on    8 cores,    1 groups
 distr:  one band on    1 cores,    8 groups
 using from now: INCAR     
 vasp.6.1.2 22Jul20 (build Mar 20 2021 11:25:07) complex                        
  
 POSCAR found type information on POSCAR LiP 
 POSCAR found :  2 types and      16 ions
 scaLAPACK will be used
 -----------------------------------------------------------------------------
|                                                                             |
|           W    W    AA    RRRRR   N    N  II  N    N   GGGG   !!!           |
|           W    W   A  A   R    R  NN   N  II  NN   N  G    G  !!!           |
|           W    W  A    A  R    R  N N  N  II  N N  N  G       !!!           |
|           W WW W  AAAAAA  RRRRR   N  N N  II  N  N N  G  GGG   !            |
|           WW  WW  A    A  R   R   N   NN  II  N   NN  G    G                |
|           W    W  A    A  R    R  N    N  II  N    N   GGGG   !!!           |
|                                                                             |
|     The value NCORE = 6 specified in the INCAR file was overwritten,        |
|     because it was not compatible with the 8 processes available:           |
|     NCORE = 1                                                               |
|     was used instead, please check that this makes sense for your           |
|     machine.                                                                |
|                                                                             |
 -----------------------------------------------------------------------------

 -----------------------------------------------------------------------------
|                                                                             |
|           W    W    AA    RRRRR   N    N  II  N    N   GGGG   !!!           |
|           W    W   A  A   R    R  NN   N  II  NN   N  G    G  !!!           |
|           W    W  A    A  R    R  N N  N  II  N N  N  G       !!!           |
|           W WW W  AAAAAA  RRRRR   N  N N  II  N  N N  G  GGG   !            |
|           WW  WW  A    A  R   R   N   NN  II  N   NN  G    G                |
|           W    W  A    A  R    R  N    N  II  N    N   GGGG   !!!           |
|                                                                             |
|     For optimal performance we recommend to set                             |
|       NCORE = 4 - approx SQRT(number of cores).                             |
|     NCORE specifies how many cores store one orbital (NPAR=cpu/NCORE).      |
|     This setting can greatly improve the performance of VASP for DFT.       |
|     The default, NCORE=1 might be grossly inefficient on modern             |
|     multi-core architectures or massively parallel machines. Do your        |
|     own testing!!!!                                                         |
|     Unfortunately you need to use the default for GW and RPA                |
|     calculations (for HF NCORE is supported but not extensively tested      |
|     yet).                                                                   |
|                                                                             |
 -----------------------------------------------------------------------------

 LDA part: xc-table for Pade appr. of Perdew
 generate k-points for:    6    6    4
 POSCAR, INCAR and KPOINTS ok, starting setup
 FFT: planning ...
 WAVECAR not read
 entering main loop
       N       E                     dE             d eps       ncg     rms          rms(c)
DAV:   1     0.393948720099E+03    0.39395E+03   -0.25716E+04 14592   0.131E+03
DAV:   2    -0.416765221327E+01   -0.39812E+03   -0.36392E+03 16168   0.314E+02
DAV:   3    -0.559454585698E+02   -0.51778E+02   -0.51103E+02 20792   0.878E+01
DAV:   4    -0.633693957274E+02   -0.74239E+01   -0.73471E+01 25912   0.325E+01
DAV:   5    -0.640712442326E+02   -0.70185E+00   -0.70153E+00 20280   0.735E+00    0.210E+01
DAV:   6    -0.654031193225E+02   -0.13319E+01   -0.27956E+00 19560   0.645E+00    0.112E+01
DAV:   7    -0.666795592996E+02   -0.12764E+01   -0.71994E-01 17848   0.406E+00    0.588E+00
DAV:   8    -0.669143556165E+02   -0.23480E+00   -0.61166E-01 19096   0.287E+00    0.126E+00
DAV:   9    -0.669451241913E+02   -0.30769E-01   -0.80244E-02 21800   0.110E+00    0.497E-01
DAV:  10    -0.669489475106E+02   -0.38233E-02   -0.64976E-03 19016   0.370E-01    0.210E-01
DAV:  11    -0.669504105552E+02   -0.14630E-02   -0.18598E-03 18176   0.201E-01    0.970E-02
DAV:  12    -0.669506891579E+02   -0.27860E-03   -0.60092E-04 18544   0.999E-02    0.407E-02
DAV:  13    -0.669507345351E+02   -0.45377E-04   -0.92402E-05 17176   0.495E-02    0.206E-02
DAV:  14    -0.669507480295E+02   -0.13494E-04   -0.28607E-05 14880   0.272E-02    0.605E-03
DAV:  15    -0.669507496115E+02   -0.15819E-05   -0.40941E-06 10816   0.124E-02
   1 F= -.66950750E+02 E0= -.66950750E+02  d E =0.000000E+00  mag=    -0.0003
