    8    8    1    2
  0.8569194E+01  0.3193403E-09  0.3193403E-09  0.7762324E-09  0.5000000E-15
  1.000000000000000E-004
  CAR 
 unknown system                          
     36     57     26
 
  0.0000000E+00  0.0000000E+00  0.0000000E+00  0.1736111E-02
    1      -41.981335    -41.981163   1.000000   1.000000
    2      -41.976719    -41.976546   1.000000   1.000000
    3      -41.519572    -41.519429   1.000000   1.000000
    4      -41.515718    -41.515575   1.000000   1.000000
    5      -18.130875    -18.130894   1.000000   1.000000
    6      -17.947226    -17.947248   1.000000   1.000000
    7      -13.312274    -13.312288   1.000000   1.000000
    8      -12.635156    -12.635179   1.000000   1.000000
    9       -4.084155     -4.084149   1.000000   1.000000
   10       -2.376092     -2.376102   1.000000   1.000000
   11       -1.067755     -1.067777   1.000000   1.000000
   12       -1.067742     -1.067765   1.000000   1.000000
   13       -0.911715     -0.911739   1.000000   1.000000
   14       -0.911709     -0.911734   1.000000   1.000000
   15        1.938453      1.938426   1.000000   1.000000
   16        1.938460      1.938433   1.000000   1.000000
   17        2.175556      2.175525   1.000000   1.000000
   18        2.175560      2.175528   1.000000   1.000000
   19        4.092845      4.092844   0.000003   0.000003
   20        6.292566      6.292543   0.000000   0.000000
   21        8.207982      8.207964   0.000000   0.000000
   22        8.507520      8.507526   0.000000   0.000000
   23       10.679051     10.679054   0.000000   0.000000
   24       10.828732     10.828708   0.000000   0.000000
   25       13.804690     13.804646   0.000000   0.000000
   26       13.810559     13.810789   0.000000   0.000000
 
  0.8333333E-01 -0.7401283E-17  0.0000000E+00  0.1041667E-01
    1      -41.980434    -41.980262   1.000000   1.000000
    2      -41.976038    -41.975865   1.000000   1.000000
    3      -41.518484    -41.518341   1.000000   1.000000
    4      -41.514851    -41.514707   1.000000   1.000000
    5      -18.119807    -18.119827   1.000000   1.000000
    6      -17.940022    -17.940044   1.000000   1.000000
    7      -13.284864    -13.284878   1.000000   1.000000
    8      -12.620581    -12.620604   1.000000   1.000000
    9       -4.067874     -4.067869   1.000000   1.000000
   10       -2.385683     -2.385693   1.000000   1.000000
   11       -1.227417     -1.227438   1.000000   1.000000
   12       -1.129569     -1.129591   1.000000   1.000000
   13       -1.019396     -1.019420   1.000000   1.000000
   14       -0.935549     -0.935574   1.000000   1.000000
   15        1.756926      1.756900   1.000000   1.000000
   16        1.876484      1.876458   1.000000   1.000000
   17        2.040049      2.040021   1.000000   1.000000
   18        2.182932      2.182901   1.000000   1.000000
   19        4.160068      4.160064   0.000000   0.000000
   20        6.283567      6.283544   0.000000   0.000000
   21        8.380005      8.379982   0.000000   0.000000
   22        8.659220      8.659224   0.000000   0.000000
   23       10.805117     10.805120   0.000000   0.000000
   24       11.053293     11.053268   0.000000   0.000000
   25       13.490157     13.488260   0.000000   0.000000
   26       13.976981     13.977084   0.000000   0.000000
 
  0.1666667E+00 -0.7479536E-17  0.0000000E+00  0.1041667E-01
    1      -41.977929    -41.977756   1.000000   1.000000
    2      -41.974268    -41.974095   1.000000   1.000000
    3      -41.515539    -41.515396   1.000000   1.000000
    4      -41.512523    -41.512380   1.000000   1.000000
    5      -18.088669    -18.088689   1.000000   1.000000
    6      -17.920598    -17.920621   1.000000   1.000000
    7      -13.207079    -13.207094   1.000000   1.000000
    8      -12.582977    -12.583001   1.000000   1.000000
    9       -4.020883     -4.020879   1.000000   1.000000
   10       -2.421093     -2.421103   1.000000   1.000000
   11       -1.615753     -1.615771   1.000000   1.000000
   12       -1.318981     -1.319002   1.000000   1.000000
   13       -1.281244     -1.281266   1.000000   1.000000
   14       -1.012539     -1.012563   1.000000   1.000000
   15        1.330193      1.330171   1.000000   1.000000
   16        1.669066      1.669042   1.000000   1.000000
   17        1.735111      1.735085   1.000000   1.000000
   18        2.177168      2.177138   1.000000   1.000000
   19        4.320548      4.320540   0.000000   0.000000
   20        6.247388      6.247364   0.000000   0.000000
   21        8.824726      8.824698   0.000000   0.000000
   22        9.069771      9.069769   0.000000   0.000000
   23       11.132561     11.132559   0.000000   0.000000
   24       11.655774     11.655721   0.000000   0.000000
   25       12.991011     12.990666   0.000000   0.000000
   26       14.474068     14.455642   0.000000   0.000000
 
  0.2500000E+00 -0.2181971E-16  0.0000000E+00  0.1041667E-01
    1      -41.974505    -41.974332   1.000000   1.000000
    2      -41.971836    -41.971663   1.000000   1.000000
    3      -41.511451    -41.511308   1.000000   1.000000
    4      -41.509356    -41.509213   1.000000   1.000000
    5      -18.043796    -18.043817   1.000000   1.000000
    6      -17.895173    -17.895196   1.000000   1.000000
    7      -13.091326    -13.091343   1.000000   1.000000
    8      -12.537314    -12.537338   1.000000   1.000000
    9       -3.949429     -3.949427   1.000000   1.000000
   10       -2.519190     -2.519198   1.000000   1.000000
   11       -2.049776     -2.049792   1.000000   1.000000
   12       -1.711839     -1.711857   1.000000   1.000000
   13       -1.467209     -1.467231   1.000000   1.000000
   14       -1.127110     -1.127134   1.000000   1.000000
   15        0.840659      0.840641   1.000000   1.000000
   16        1.182615      1.182595   1.000000   1.000000
   17        1.570491      1.570466   1.000000   1.000000
   18        2.145528      2.145498   1.000000   1.000000
   19        4.517917      4.517905   0.000000   0.000000
   20        6.172018      6.171996   0.000000   0.000000
   21        9.333015      9.332997   0.000000   0.000000
   22        9.657348      9.657344   0.000000   0.000000
   23       11.541905     11.541930   0.000000   0.000000
   24       12.471745     12.470389   0.000000   0.000000
   25       12.614654     12.615235   0.000000   0.000000
   26       14.463337     14.456619   0.000000   0.000000
 
  0.3333333E+00 -0.2228210E-16  0.0000000E+00  0.1041667E-01
    1      -41.971120    -41.970947   1.000000   1.000000
    2      -41.969407    -41.969234   1.000000   1.000000
    3      -41.507385    -41.507242   1.000000   1.000000
    4      -41.506147    -41.506004   1.000000   1.000000
    5      -17.994661    -17.994684   1.000000   1.000000
    6      -17.872042    -17.872066   1.000000   1.000000
    7      -12.960171    -12.960190   1.000000   1.000000
    8      -12.503260    -12.503283   1.000000   1.000000
    9       -3.866021     -3.866021   1.000000   1.000000
   10       -2.772783     -2.772790   1.000000   1.000000
   11       -2.304645     -2.304660   1.000000   1.000000
   12       -2.075890     -2.075905   1.000000   1.000000
   13       -1.638309     -1.638331   1.000000   1.000000
   14       -1.244114     -1.244138   1.000000   1.000000
   15        0.425559      0.425544   1.000000   1.000000
   16        0.710509      0.710491   1.000000   1.000000
   17        1.422549      1.422525   1.000000   1.000000
   18        2.102319      2.102289   1.000000   1.000000
   19        4.720110      4.720094   0.000000   0.000000
   20        6.060794      6.060772   0.000000   0.000000
   21        9.679070      9.679074   0.000000   0.000000
   22       10.295565     10.295561   0.000000   0.000000
   23       11.908085     11.907987   0.000000   0.000000
   24       12.442790     12.442637   0.000000   0.000000
   25       13.305959     13.299880   0.000000   0.000000
   26       14.125036     14.108057   0.000000   0.000000
 
  0.4166667E+00 -0.1542146E-16  0.0000000E+00  0.1041667E-01
    1      -41.968594    -41.968421   1.000000   1.000000
    2      -41.967633    -41.967460   1.000000   1.000000
    3      -41.504405    -41.504261   1.000000   1.000000
    4      -41.503755    -41.503611   1.000000   1.000000
    5      -17.954486    -17.954510   1.000000   1.000000
    6      -17.858133    -17.858157   1.000000   1.000000
    7      -12.847189    -12.847209   1.000000   1.000000
    8      -12.492256    -12.492278   1.000000   1.000000
    9       -3.789797     -3.789799   1.000000   1.000000
   10       -3.055474     -3.055478   1.000000   1.000000
   11       -2.405966     -2.405980   1.000000   1.000000
   12       -2.312427     -2.312441   1.000000   1.000000
   13       -1.756613     -1.756634   1.000000   1.000000
   14       -1.329520     -1.329544   1.000000   1.000000
   15        0.172651      0.172640   1.000000   1.000000
   16        0.355001      0.354985   1.000000   1.000000
   17        1.321183      1.321159   1.000000   1.000000
   18        2.066821      2.066792   1.000000   1.000000
   19        4.891102      4.891084   0.000000   0.000000
   20        5.943998      5.943977   0.000000   0.000000
   21        9.819554      9.819960   0.000000   0.000000
   22       10.769675     10.769674   0.000000   0.000000
   23       12.147252     12.147072   0.000000   0.000000
   24       12.448170     12.447267   0.000000   0.000000
   25       13.912633     13.917836   0.000000   0.000000
   26       13.958209     13.957130   0.000000   0.000000
 
  0.5000000E+00 -0.4363943E-16  0.0000000E+00  0.5208333E-02
    1      -41.967740    -41.967567   1.000000   1.000000
    2      -41.967032    -41.966859   1.000000   1.000000
    3      -41.503466    -41.503322   1.000000   1.000000
    4      -41.502869    -41.502725   1.000000   1.000000
    5      -17.938585    -17.938610   1.000000   1.000000
    6      -17.854511    -17.854535   1.000000   1.000000
    7      -12.799340    -12.799360   1.000000   1.000000
    8      -12.494372    -12.494395   1.000000   1.000000
    9       -3.754320     -3.754324   1.000000   1.000000
   10       -3.172074     -3.172076   1.000000   1.000000
   11       -2.452581     -2.452596   1.000000   1.000000
   12       -2.377980     -2.377993   1.000000   1.000000
   13       -1.798667     -1.798688   1.000000   1.000000
   14       -1.360609     -1.360633   1.000000   1.000000
   15        0.103383      0.103375   1.000000   1.000000
   16        0.208624      0.208606   1.000000   1.000000
   17        1.285250      1.285227   1.000000   1.000000
   18        2.053280      2.053251   1.000000   1.000000
   19        4.964439      4.964420   0.000000   0.000000
   20        5.888324      5.888303   0.000000   0.000000
   21        9.846781      9.847046   0.000000   0.000000
   22       10.934417     10.934390   0.000000   0.000000
   23       12.227951     12.227932   0.000000   0.000000
   24       12.485824     12.484994   0.000000   0.000000
   25       13.927460     13.926468   0.000000   0.000000
   26       14.104760     14.091777   0.000000   0.000000
 
  0.8333333E-01  0.8333333E-01  0.0000000E+00  0.1041667E-01
    1      -41.978696    -41.978524   1.000000   1.000000
    2      -41.974856    -41.974683   1.000000   1.000000
    3      -41.516482    -41.516339   1.000000   1.000000
    4      -41.513254    -41.513111   1.000000   1.000000
    5      -18.098712    -18.098732   1.000000   1.000000
    6      -17.926692    -17.926715   1.000000   1.000000
    7      -13.232307    -13.232322   1.000000   1.000000
    8      -12.594587    -12.594611   1.000000   1.000000
    9       -4.036001     -4.035997   1.000000   1.000000
   10       -2.407911     -2.407921   1.000000   1.000000
   11       -1.471662     -1.471681   1.000000   1.000000
   12       -1.342790     -1.342812   1.000000   1.000000
   13       -1.105720     -1.105742   1.000000   1.000000
   14       -1.026681     -1.026706   1.000000   1.000000
   15        1.481417      1.481394   1.000000   1.000000
   16        1.664989      1.664965   1.000000   1.000000
   17        1.908742      1.908715   1.000000   1.000000
   18        2.143731      2.143700   1.000000   1.000000
   19        4.273767      4.273760   0.000000   0.000000
   20        6.260642      6.260619   0.000000   0.000000
   21        8.694278      8.694255   0.000000   0.000000
   22        8.940155      8.940155   0.000000   0.000000
   23       11.033470     11.033469   0.000000   0.000000
   24       11.465889     11.465866   0.000000   0.000000
   25       13.119746     13.119639   0.000000   0.000000
   26       14.373131     14.283564   0.000000   0.000000
 
  0.1666667E+00  0.8333333E-01  0.0000000E+00  0.2083333E-01
    1      -41.975778    -41.975606   1.000000   1.000000
    2      -41.972746    -41.972573   1.000000   1.000000
    3      -41.512971    -41.512828   1.000000   1.000000
    4      -41.510536    -41.510392   1.000000   1.000000
    5      -18.060546    -18.060567   1.000000   1.000000
    6      -17.904416    -17.904439   1.000000   1.000000
    7      -13.135041    -13.135057   1.000000   1.000000
    8      -12.553364    -12.553387   1.000000   1.000000
    9       -3.975052     -3.975049   1.000000   1.000000
   10       -2.469745     -2.469755   1.000000   1.000000
   11       -1.868739     -1.868756   1.000000   1.000000
   12       -1.667612     -1.667631   1.000000   1.000000
   13       -1.298607     -1.298629   1.000000   1.000000
   14       -1.139108     -1.139132   1.000000   1.000000
   15        1.046073      1.046053   1.000000   1.000000
   16        1.315485      1.315466   1.000000   1.000000
   17        1.688375      1.688349   1.000000   1.000000
   18        2.092142      2.092112   1.000000   1.000000
   19        4.454183      4.454171   0.000000   0.000000
   20        6.203365      6.203342   0.000000   0.000000
   21        9.212439      9.212408   0.000000   0.000000
   22        9.433976      9.433968   0.000000   0.000000
   23       11.409132     11.409151   0.000000   0.000000
   24       12.174125     12.174017   0.000000   0.000000
   25       12.722835     12.723210   0.000000   0.000000
   26       14.555891     14.502832   0.000000   0.000000
 
  0.2500000E+00  0.8333333E-01  0.0000000E+00  0.2083333E-01
    1      -41.972360    -41.972187   1.000000   1.000000
    2      -41.970305    -41.970132   1.000000   1.000000
    3      -41.508866    -41.508723   1.000000   1.000000
    4      -41.507345    -41.507202   1.000000   1.000000
    5      -18.012924    -18.012947   1.000000   1.000000
    6      -17.880323    -17.880347   1.000000   1.000000
    7      -13.009878    -13.009896   1.000000   1.000000
    8      -12.514692    -12.514715   1.000000   1.000000
    9       -3.892419     -3.892417   1.000000   1.000000
   10       -2.638712     -2.638720   1.000000   1.000000
   11       -2.219791     -2.219806   1.000000   1.000000
   12       -2.007395     -2.007412   1.000000   1.000000
   13       -1.523665     -1.523685   1.000000   1.000000
   14       -1.250738     -1.250760   1.000000   1.000000
   15        0.610121      0.610105   1.000000   1.000000
   16        0.902342      0.902325   1.000000   1.000000
   17        1.468370      1.468346   1.000000   1.000000
   18        2.035541      2.035511   1.000000   1.000000
   19        4.659494      4.659480   0.000000   0.000000
   20        6.106172      6.106150   0.000000   0.000000
   21        9.692372      9.692325   0.000000   0.000000
   22       10.078227     10.078215   0.000000   0.000000
   23       11.810397     11.810353   0.000000   0.000000
   24       12.464725     12.464707   0.000000   0.000000
   25       13.001812     13.000164   0.000000   0.000000
   26       14.128150     14.123511   0.000000   0.000000
 
  0.3333333E+00  0.8333333E-01  0.0000000E+00  0.2083333E-01
    1      -41.969423    -41.969251   1.000000   1.000000
    2      -41.968199    -41.968026   1.000000   1.000000
    3      -41.505340    -41.505196   1.000000   1.000000
    4      -41.504557    -41.504414   1.000000   1.000000
    5      -17.967029    -17.967052   1.000000   1.000000
    6      -17.862727    -17.862752   1.000000   1.000000
    7      -12.883572    -12.883591   1.000000   1.000000
    8      -12.495791    -12.495814   1.000000   1.000000
    9       -3.802446     -3.802447   1.000000   1.000000
   10       -2.929989     -2.929994   1.000000   1.000000
   11       -2.382061     -2.382075   1.000000   1.000000
   12       -2.285906     -2.285923   1.000000   1.000000
   13       -1.696500     -1.696520   1.000000   1.000000
   14       -1.347339     -1.347362   1.000000   1.000000
   15        0.290739      0.290726   1.000000   1.000000
   16        0.521635      0.521620   1.000000   1.000000
   17        1.308519      1.308497   1.000000   1.000000
   18        1.981038      1.981009   1.000000   1.000000
   19        4.857675      4.857658   0.000000   0.000000
   20        5.982590      5.982568   0.000000   0.000000
   21        9.959850      9.959970   0.000000   0.000000
   22       10.705005     10.705005   0.000000   0.000000
   23       12.130306     12.130192   0.000000   0.000000
   24       12.398612     12.398409   0.000000   0.000000
   25       13.715495     13.704901   0.000000   0.000000
   26       13.882208     13.951575   0.000000   0.000000
 
  0.4166667E+00  0.8333333E-01  0.0000000E+00  0.2083333E-01
    1      -41.967722    -41.967549   1.000000   1.000000
    2      -41.966991    -41.966818   1.000000   1.000000
    3      -41.503381    -41.503237   1.000000   1.000000
    4      -41.502867    -41.502723   1.000000   1.000000
    5      -17.937003    -17.937027   1.000000   1.000000
    6      -17.855450    -17.855475   1.000000   1.000000
    7      -12.796190    -12.796210   1.000000   1.000000
    8      -12.497801    -12.497824   1.000000   1.000000
    9       -3.732071     -3.732074   1.000000   1.000000
   10       -3.142515     -3.142518   1.000000   1.000000
   11       -2.458509     -2.458524   1.000000   1.000000
   12       -2.427684     -2.427699   1.000000   1.000000
   13       -1.787615     -1.787634   1.000000   1.000000
   14       -1.402662     -1.402685   1.000000   1.000000
   15        0.144582      0.144572   1.000000   1.000000
   16        0.277543      0.277526   1.000000   1.000000
   17        1.224588      1.224566   1.000000   1.000000
   18        1.947688      1.947660   1.000000   1.000000
   19        4.996194      4.996175   0.000000   0.000000
   20        5.881381      5.881360   0.000000   0.000000
   21       10.043812     10.044123   0.000000   0.000000
   22       11.075746     11.075739   0.000000   0.000000
   23       12.303633     12.303560   0.000000   0.000000
   24       12.450839     12.449894   0.000000   0.000000
   25       13.799531     13.795535   0.000000   0.000000
   26       14.025035     14.016252   0.000000   0.000000
 
  0.1666667E+00  0.1666667E+00  0.0000000E+00  0.1041667E-01
    1      -41.972836    -41.972663   1.000000   1.000000
    2      -41.970627    -41.970454   1.000000   1.000000
    3      -41.509408    -41.509265   1.000000   1.000000
    4      -41.507801    -41.507658   1.000000   1.000000
    5      -18.019261    -18.019283   1.000000   1.000000
    6      -17.883629    -17.883652   1.000000   1.000000
    7      -13.026967    -13.026985   1.000000   1.000000
    8      -12.519955    -12.519978   1.000000   1.000000
    9       -3.898766     -3.898764   1.000000   1.000000
   10       -2.588023     -2.588031   1.000000   1.000000
   11       -2.132595     -2.132611   1.000000   1.000000
   12       -2.058579     -2.058597   1.000000   1.000000
   13       -1.366678     -1.366701   1.000000   1.000000
   14       -1.360070     -1.360089   1.000000   1.000000
   15        0.719449      0.719430   1.000000   1.000000
   16        0.957568      0.957553   1.000000   1.000000
   17        1.519503      1.519479   1.000000   1.000000
   18        1.935821      1.935792   1.000000   1.000000
   19        4.646848      4.646834   0.000000   0.000000
   20        6.121212      6.121190   0.000000   0.000000
   21        9.800974      9.800929   0.000000   0.000000
   22        9.963654      9.963644   0.000000   0.000000
   23       11.789918     11.790087   0.000000   0.000000
   24       12.468866     12.469481   0.000000   0.000000
   25       12.894830     12.894796   0.000000   0.000000
   26       14.094857     14.080491   0.000000   0.000000
 
  0.2500000E+00  0.1666667E+00  0.0000000E+00  0.2083333E-01
    1      -41.969902    -41.969729   1.000000   1.000000
    2      -41.968530    -41.968357   1.000000   1.000000
    3      -41.505859    -41.505716   1.000000   1.000000
    4      -41.505032    -41.504889   1.000000   1.000000
    5      -17.973310    -17.973333   1.000000   1.000000
    6      -17.865965    -17.865989   1.000000   1.000000
    7      -12.902160    -12.902179   1.000000   1.000000
    8      -12.500418    -12.500442   1.000000   1.000000
    9       -3.796907     -3.796907   1.000000   1.000000
   10       -2.813155     -2.813162   1.000000   1.000000
   11       -2.385337     -2.385353   1.000000   1.000000
   12       -2.321471     -2.321489   1.000000   1.000000
   13       -1.591461     -1.591480   1.000000   1.000000
   14       -1.442543     -1.442562   1.000000   1.000000
   15        0.431065      0.431048   1.000000   1.000000
   16        0.654904      0.654890   1.000000   1.000000
   17        1.281700      1.281677   1.000000   1.000000
   18        1.799701      1.799673   1.000000   1.000000
   19        4.862162      4.862145   0.000000   0.000000
   20        6.000791      6.000769   0.000000   0.000000
   21       10.315084     10.315068   0.000000   0.000000
   22       10.650552     10.650544   0.000000   0.000000
   23       12.173835     12.173799   0.000000   0.000000
   24       12.334508     12.335394   0.000000   0.000000
   25       13.590012     13.594826   0.000000   0.000000
   26       13.727387     13.729462   0.000000   0.000000
 
  0.3333333E+00  0.1666667E+00  0.0000000E+00  0.2083333E-01
    1      -41.967777    -41.967604   1.000000   1.000000
    2      -41.966990    -41.966817   1.000000   1.000000
    3      -41.503358    -41.503214   1.000000   1.000000
    4      -41.502922    -41.502778   1.000000   1.000000
    5      -17.934209    -17.934233   1.000000   1.000000
    6      -17.857639    -17.857664   1.000000   1.000000
    7      -12.789856    -12.789876   1.000000   1.000000
    8      -12.505165    -12.505187   1.000000   1.000000
    9       -3.686078     -3.686080   1.000000   1.000000
   10       -3.061763     -3.061767   1.000000   1.000000
   11       -2.557695     -2.557711   1.000000   1.000000
   12       -2.467086     -2.467104   1.000000   1.000000
   13       -1.742715     -1.742731   1.000000   1.000000
   14       -1.504705     -1.504723   1.000000   1.000000
   15        0.256767      0.256753   1.000000   1.000000
   16        0.424747      0.424732   1.000000   1.000000
   17        1.097728      1.097708   1.000000   1.000000
   18        1.706571      1.706543   1.000000   1.000000
   19        5.058127      5.058108   0.000000   0.000000
   20        5.865700      5.865678   0.000000   0.000000
   21       10.554905     10.554918   0.000000   0.000000
   22       11.324539     11.324537   0.000000   0.000000
   23       12.349377     12.349159   0.000000   0.000000
   24       12.467687     12.467568   0.000000   0.000000
   25       13.521661     13.522347   0.000000   0.000000
   26       13.875707     13.877558   0.000000   0.000000
 
  0.4166667E+00  0.1666667E+00  0.0000000E+00  0.1041667E-01
    1      -41.967005    -41.966832   1.000000   1.000000
    2      -41.966398    -41.966225   1.000000   1.000000
    3      -41.502455    -41.502312   1.000000   1.000000
    4      -41.502103    -41.501960   1.000000   1.000000
    5      -17.917444    -17.917469   1.000000   1.000000
    6      -17.856734    -17.856759   1.000000   1.000000
    7      -12.738548    -12.738569   1.000000   1.000000
    8      -12.516601    -12.516623   1.000000   1.000000
    9       -3.624097     -3.624101   1.000000   1.000000
   10       -3.178715     -3.178718   1.000000   1.000000
   11       -2.608102     -2.608118   1.000000   1.000000
   12       -2.528730     -2.528749   1.000000   1.000000
   13       -1.793041     -1.793057   1.000000   1.000000
   14       -1.527584     -1.527602   1.000000   1.000000
   15        0.210226      0.210216   1.000000   1.000000
   16        0.326341      0.326323   1.000000   1.000000
   17        1.031690      1.031671   1.000000   1.000000
   18        1.672841      1.672814   1.000000   1.000000
   19        5.150341      5.150320   0.000000   0.000000
   20        5.794135      5.794115   0.000000   0.000000
   21       10.609016     10.609067   0.000000   0.000000
   22       11.609854     11.609921   0.000000   0.000000
   23       12.403966     12.403433   0.000000   0.000000
   24       12.583246     12.583221   0.000000   0.000000
   25       13.437700     13.437976   0.000000   0.000000
   26       13.873108     13.874076   0.000000   0.000000
 
  0.2500000E+00  0.2500000E+00  0.0000000E+00  0.1041667E-01
    1      -41.967792    -41.967619   1.000000   1.000000
    2      -41.967001    -41.966828   1.000000   1.000000
    3      -41.503306    -41.503163   1.000000   1.000000
    4      -41.502977    -41.502834   1.000000   1.000000
    5      -17.932624    -17.932648   1.000000   1.000000
    6      -17.858731    -17.858756   1.000000   1.000000
    7      -12.786637    -12.786657   1.000000   1.000000
    8      -12.509010    -12.509033   1.000000   1.000000
    9       -3.662397     -3.662398   1.000000   1.000000
   10       -2.996913     -2.996919   1.000000   1.000000
   11       -2.648284     -2.648301   1.000000   1.000000
   12       -2.472484     -2.472503   1.000000   1.000000
   13       -1.686533     -1.686550   1.000000   1.000000
   14       -1.587569     -1.587583   1.000000   1.000000
   15        0.341697      0.341680   1.000000   1.000000
   16        0.494101      0.494088   1.000000   1.000000
   17        1.042183      1.042163   1.000000   1.000000
   18        1.555279      1.555253   1.000000   1.000000
   19        5.088607      5.088588   0.000000   0.000000
   20        5.856865      5.856844   0.000000   0.000000
   21       11.040460     11.040442   0.000000   0.000000
   22       11.247419     11.247415   0.000000   0.000000
   23       12.300441     12.301554   0.000000   0.000000
   24       12.558511     12.558493   0.000000   0.000000
   25       13.380189     13.380631   0.000000   0.000000
   26       13.807542     13.806934   0.000000   0.000000
 
  0.3333333E+00  0.2500000E+00  0.0000000E+00  0.2083333E-01
    1      -41.966572    -41.966399   1.000000   1.000000
    2      -41.966116    -41.965943   1.000000   1.000000
    3      -41.501867    -41.501724   1.000000   1.000000
    4      -41.501750    -41.501606   1.000000   1.000000
    5      -17.902015    -17.902040   1.000000   1.000000
    6      -17.861303    -17.861328   1.000000   1.000000
    7      -12.692229    -12.692250   1.000000   1.000000
    8      -12.540909    -12.540932   1.000000   1.000000
    9       -3.515063     -3.515066   1.000000   1.000000
   10       -3.168969     -3.168973   1.000000   1.000000
   11       -2.785056     -2.785072   1.000000   1.000000
   12       -2.581885     -2.581907   1.000000   1.000000
   13       -1.761299     -1.761313   1.000000   1.000000
   14       -1.644205     -1.644219   1.000000   1.000000
   15        0.329506      0.329491   1.000000   1.000000
   16        0.428020      0.428004   1.000000   1.000000
   17        0.849712      0.849696   1.000000   1.000000
   18        1.405071      1.405045   1.000000   1.000000
   19        5.284831      5.284810   0.000000   0.000000
   20        5.705958      5.705937   0.000000   0.000000
   21       11.325052     11.324994   0.000000   0.000000
   22       11.964301     11.964212   0.000000   0.000000
   23       12.343505     12.343571   0.000000   0.000000
   24       12.865700     12.865674   0.000000   0.000000
   25       13.071749     13.071862   0.000000   0.000000
   26       13.643702     13.643732   0.000000   0.000000
 
  0.3333333E+00  0.3333333E+00  0.0000000E+00  0.3472222E-02
    1      -41.966144    -41.965971   1.000000   1.000000
    2      -41.965702    -41.965529   1.000000   1.000000
    3      -41.501271    -41.501128   1.000000   1.000000
    4      -41.501271    -41.501128   1.000000   1.000000
    5      -17.876302    -17.876327   1.000000   1.000000
    6      -17.876300    -17.876326   1.000000   1.000000
    7      -12.604980    -12.605002   1.000000   1.000000
    8      -12.604973    -12.604995   1.000000   1.000000
    9       -3.318584     -3.318587   1.000000   1.000000
   10       -3.318563     -3.318567   1.000000   1.000000
   11       -2.883568     -2.883584   1.000000   1.000000
   12       -2.635887     -2.635912   1.000000   1.000000
   13       -1.730946     -1.730959   1.000000   1.000000
   14       -1.730929     -1.730942   1.000000   1.000000
   15        0.437467      0.437450   1.000000   1.000000
   16        0.437485      0.437468   1.000000   1.000000
   17        0.701460      0.701448   1.000000   1.000000
   18        1.259527      1.259501   1.000000   1.000000
   19        5.507822      5.507802   0.000000   0.000000
   20        5.507850      5.507829   0.000000   0.000000
   21       11.772502     11.772434   0.000000   0.000000
   22       12.385308     12.386037   0.000000   0.000000
   23       12.500566     12.499387   0.000000   0.000000
   24       12.501276     12.499619   0.000000   0.000000
   25       13.270930     13.271018   0.000000   0.000000