 running on   12 total cores
 distrk:  each k-point on   12 cores,    1 groups
 distr:  one band on    6 cores,    2 groups
 using from now: INCAR     
 vasp.6.1.2 22Jul20 (build Mar 20 2021 11:25:07) complex                        
  
 POSCAR found type information on POSCAR Li
 POSCAR found :  1 types and       1 ions
 scaLAPACK will be used
 -----------------------------------------------------------------------------
|                                                                             |
|               ----> ADVICE to this user running VASP <----                  |
|                                                                             |
|     You have a (more or less) 'small supercell' and for smaller cells       |
|     it is recommended to use the reciprocal-space projection scheme!        |
|     The real-space optimization is not efficient for small cells and it     |
|     is also less accurate ...                                               |
|     Therefore, set LREAL=.FALSE. in the INCAR file.                         |
|                                                                             |
 -----------------------------------------------------------------------------

 LDA part: xc-table for Pade appr. of Perdew
 generate k-points for:   13   13   13
 POSCAR, INCAR and KPOINTS ok, starting setup
 FFT: planning ...
 WAVECAR not read
 entering main loop
       N       E                     dE             d eps       ncg     rms          rms(c)
DAV:   1     0.556177268226E+00    0.55618E+00   -0.69621E+02  2016   0.343E+02
DAV:   2    -0.152861094087E+01   -0.20848E+01   -0.20541E+01  2868   0.486E+01
DAV:   3    -0.159981132387E+01   -0.71200E-01   -0.71212E-01  2532   0.624E+00
DAV:   4    -0.160103865706E+01   -0.12273E-02   -0.12276E-02  2952   0.744E-01
DAV:   5    -0.160104551316E+01   -0.68561E-05   -0.68669E-05  2694   0.407E-02    0.545E+00
RMM:   6    -0.182650387489E+01   -0.22546E+00   -0.64112E-02  2338   0.242E+00    0.260E+00
RMM:   7    -0.190108900514E+01   -0.74585E-01   -0.21452E-02  2222   0.153E+00    0.169E-01
RMM:   8    -0.190255214512E+01   -0.14631E-02   -0.89789E-03  2487   0.857E-01    0.897E-02
RMM:   9    -0.190277277400E+01   -0.22063E-03   -0.23649E-03  2835   0.453E-01    0.322E-02
RMM:  10    -0.190314236587E+01   -0.36959E-03   -0.13874E-03  2681   0.349E-01    0.272E-02
RMM:  11    -0.190319072065E+01   -0.48355E-04   -0.27828E-04  2921   0.142E-01    0.211E-02
RMM:  12    -0.190320907917E+01   -0.18359E-04   -0.12884E-04  2765   0.102E-01    0.756E-03
RMM:  13    -0.190321891755E+01   -0.98384E-05   -0.34801E-05  2434   0.580E-02
   1 F= -.19032189E+01 E0= -.19032189E+01  d E =0.000000E+00  mag=    -0.0001
 -----------------------------------------------------------------------------
|                                                                             |
|           W    W    AA    RRRRR   N    N  II  N    N   GGGG   !!!           |
|           W    W   A  A   R    R  NN   N  II  NN   N  G    G  !!!           |
|           W    W  A    A  R    R  N N  N  II  N N  N  G       !!!           |
|           W WW W  AAAAAA  RRRRR   N  N N  II  N  N N  G  GGG   !            |
|           WW  WW  A    A  R   R   N   NN  II  N   NN  G    G                |
|           W    W  A    A  R    R  N    N  II  N    N   GGGG   !!!           |
|                                                                             |
|     Tetrahedron method does not include variations of the Fermi             |
|     occupations, so forces and stress will be inaccurate. We suggest        |
|     using a different smearing scheme ISMEAR = 1 or 2 for metals in         |
|     relaxations.                                                            |
|                                                                             |
 -----------------------------------------------------------------------------

