    8    8    1    2
  0.8266261E+01  0.3116755E-09  0.3180362E-09  0.7703522E-09  0.5000000E-15
  1.000000000000000E-004
  CAR 
 unknown system                          
     36    222     26
 
  0.0000000E+00  0.0000000E+00  0.0000000E+00  0.1736111E-02
    1      -41.660321    -41.660162   1.000000   1.000000
    2      -41.654126    -41.653966   1.000000   1.000000
    3      -41.220810    -41.220676   1.000000   1.000000
    4      -41.215438    -41.215303   1.000000   1.000000
    5      -18.100680    -18.100696   1.000000   1.000000
    6      -17.914522    -17.914541   1.000000   1.000000
    7      -13.133586    -13.133595   1.000000   1.000000
    8      -12.415729    -12.415747   1.000000   1.000000
    9       -4.004593     -4.004584   1.000000   1.000000
   10       -2.222923     -2.222929   1.000000   1.000000
   11       -0.935804     -0.935823   1.000000   1.000000
   12       -0.864695     -0.864714   1.000000   1.000000
   13       -0.775397     -0.775418   1.000000   1.000000
   14       -0.708934     -0.708955   1.000000   1.000000
   15        2.170917      2.170895   1.000000   1.000000
   16        2.229410      2.229387   1.000000   1.000000
   17        2.416938      2.416911   1.000000   1.000000
   18        2.466607      2.466580   1.000000   1.000000
   19        4.451763      4.451767   0.000000   0.000000
   20        6.692725      6.692709   0.000000   0.000000
   21        8.642767      8.642738   0.000000   0.000000
   22        9.049016      9.049015   0.000000   0.000000
   23       11.194288     11.194287   0.000000   0.000000
   24       11.266968     11.266939   0.000000   0.000000
   25       14.123204     14.123405   0.000000   0.000000
   26       14.452389     14.452397   0.000000   0.000000
 
  0.8333333E-01  0.2456990E-17  0.0000000E+00  0.3472222E-02
    1      -41.659086    -41.658927   1.000000   1.000000
    2      -41.653260    -41.653100   1.000000   1.000000
    3      -41.219368    -41.219233   1.000000   1.000000
    4      -41.214351    -41.214217   1.000000   1.000000
    5      -18.088832    -18.088849   1.000000   1.000000
    6      -17.906284    -17.906302   1.000000   1.000000
    7      -13.103003    -13.103013   1.000000   1.000000
    8      -12.398138    -12.398156   1.000000   1.000000
    9       -3.987338     -3.987329   1.000000   1.000000
   10       -2.231077     -2.231082   1.000000   1.000000
   11       -1.043945     -1.043963   1.000000   1.000000
   12       -0.996339     -0.996358   1.000000   1.000000
   13       -0.830148     -0.830168   1.000000   1.000000
   14       -0.793699     -0.793721   1.000000   1.000000
   15        2.027668      2.027647   1.000000   1.000000
   16        2.108520      2.108497   1.000000   1.000000
   17        2.320036      2.320011   1.000000   1.000000
   18        2.429070      2.429043   1.000000   1.000000
   19        4.516664      4.516665   0.000000   0.000000
   20        6.684775      6.684759   0.000000   0.000000
   21        8.811715      8.811684   0.000000   0.000000
   22        9.196944      9.196941   0.000000   0.000000
   23       11.323029     11.323031   0.000000   0.000000
   24       11.502081     11.502053   0.000000   0.000000
   25       14.037775     14.038458   0.000000   0.000000
   26       14.336976     14.336894   0.000000   0.000000
 
  0.1666667E+00  0.7832701E-17  0.0000000E+00  0.3472222E-02
    1      -41.655748    -41.655589   1.000000   1.000000
    2      -41.650978    -41.650818   1.000000   1.000000
    3      -41.215467    -41.215333   1.000000   1.000000
    4      -41.211442    -41.211307   1.000000   1.000000
    5      -18.055385    -18.055403   1.000000   1.000000
    6      -17.884172    -17.884191   1.000000   1.000000
    7      -13.015745    -13.015755   1.000000   1.000000
    8      -12.352264    -12.352282   1.000000   1.000000
    9       -3.937320     -3.937312   1.000000   1.000000
   10       -2.261646     -2.261651   1.000000   1.000000
   11       -1.453900     -1.453916   1.000000   1.000000
   12       -1.171434     -1.171453   1.000000   1.000000
   13       -1.138962     -1.138980   1.000000   1.000000
   14       -0.888032     -0.888053   1.000000   1.000000
   15        1.573260      1.573240   1.000000   1.000000
   16        1.929866      1.929845   1.000000   1.000000
   17        1.949493      1.949470   1.000000   1.000000
   18        2.416765      2.416739   1.000000   1.000000
   19        4.674403      4.674400   0.000000   0.000000
   20        6.649899      6.649883   0.000000   0.000000
   21        9.246821      9.246806   0.000000   0.000000
   22        9.594845      9.594832   0.000000   0.000000
   23       11.652946     11.652953   0.000000   0.000000
   24       12.130209     12.130235   0.000000   0.000000
   25       13.500887     13.503040   0.000000   0.000000
   26       14.823983     14.825563   0.000000   0.000000
 
  0.2500000E+00  0.1296305E-16  0.0000000E+00  0.3472222E-02
    1      -41.651283    -41.651123   1.000000   1.000000
    2      -41.647867    -41.647707   1.000000   1.000000
    3      -41.210223    -41.210089   1.000000   1.000000
    4      -41.207449    -41.207314   1.000000   1.000000
    5      -18.006560    -18.006579   1.000000   1.000000
    6      -17.855250    -17.855271   1.000000   1.000000
    7      -12.886106    -12.886118   1.000000   1.000000
    8      -12.296037    -12.296055   1.000000   1.000000
    9       -3.861199     -3.861192   1.000000   1.000000
   10       -2.351281     -2.351285   1.000000   1.000000
   11       -1.923662     -1.923677   1.000000   1.000000
   12       -1.556687     -1.556703   1.000000   1.000000
   13       -1.375856     -1.375875   1.000000   1.000000
   14       -1.020660     -1.020681   1.000000   1.000000
   15        1.049834      1.049818   1.000000   1.000000
   16        1.413433      1.413415   1.000000   1.000000
   17        1.766029      1.766008   1.000000   1.000000
   18        2.375581      2.375555   1.000000   1.000000
   19        4.873210      4.873204   0.000000   0.000000
   20        6.572740      6.572724   0.000000   0.000000
   21        9.739965      9.739946   0.000000   0.000000
   22       10.153687     10.153675   0.000000   0.000000
   23       12.052976     12.052966   0.000000   0.000000
   24       12.973267     12.972935   0.000000   0.000000
   25       13.117156     13.117243   0.000000   0.000000
   26       15.150027     15.054741   0.000000   0.000000
 
  0.3333333E+00  0.7644824E-16  0.0000000E+00  0.3472222E-02
    1      -41.646899    -41.646739   1.000000   1.000000
    2      -41.644784    -41.644624   1.000000   1.000000
    3      -41.205035    -41.204901   1.000000   1.000000
    4      -41.203456    -41.203321   1.000000   1.000000
    5      -17.953190    -17.953210   1.000000   1.000000
    6      -17.828893    -17.828914   1.000000   1.000000
    7      -12.738160    -12.738173   1.000000   1.000000
    8      -12.252695    -12.252713   1.000000   1.000000
    9       -3.772519     -3.772515   1.000000   1.000000
   10       -2.623088     -2.623091   1.000000   1.000000
   11       -2.188232     -2.188244   1.000000   1.000000
   12       -1.942313     -1.942327   1.000000   1.000000
   13       -1.566205     -1.566224   1.000000   1.000000
   14       -1.154770     -1.154792   1.000000   1.000000
   15        0.606370      0.606356   1.000000   1.000000
   16        0.908580      0.908564   1.000000   1.000000
   17        1.601372      1.601351   1.000000   1.000000
   18        2.322411      2.322385   1.000000   1.000000
   19        5.082667      5.082658   0.000000   0.000000
   20        6.454873      6.454857   0.000000   0.000000
   21       10.055596     10.055676   0.000000   0.000000
   22       10.747386     10.747359   0.000000   0.000000
   23       12.391710     12.391614   0.000000   0.000000
   24       12.974297     12.974274   0.000000   0.000000
   25       13.823290     13.817675   0.000000   0.000000
   26       14.691808     14.691403   0.000000   0.000000
 
  0.4166667E+00 -0.4116135E-17  0.0000000E+00  0.3472222E-02
    1      -41.643706    -41.643546   1.000000   1.000000
    2      -41.642538    -41.642378   1.000000   1.000000
    3      -41.201305    -41.201170   1.000000   1.000000
    4      -41.200442    -41.200307   1.000000   1.000000
    5      -17.909251    -17.909271   1.000000   1.000000
    6      -17.812924    -17.812946   1.000000   1.000000
    7      -12.609591    -12.609605   1.000000   1.000000
    8      -12.237706    -12.237724   1.000000   1.000000
    9       -3.692690     -3.692690   1.000000   1.000000
   10       -2.931727     -2.931729   1.000000   1.000000
   11       -2.286596     -2.286607   1.000000   1.000000
   12       -2.191546     -2.191558   1.000000   1.000000
   13       -1.697457     -1.697475   1.000000   1.000000
   14       -1.252127     -1.252148   1.000000   1.000000
   15        0.339547      0.339535   1.000000   1.000000
   16        0.523417      0.523401   1.000000   1.000000
   17        1.488615      1.488595   1.000000   1.000000
   18        2.279578      2.279552   1.000000   1.000000
   19        5.264805      5.264795   0.000000   0.000000
   20        6.327573      6.327558   0.000000   0.000000
   21       10.162408     10.162620   0.000000   0.000000
   22       11.166643     11.166906   0.000000   0.000000
   23       12.597392     12.597070   0.000000   0.000000
   24       13.031993     13.031472   0.000000   0.000000
   25       14.419211     14.403544   0.000000   0.000000
   26       14.576857     15.825329   0.000000   0.000000
 
  0.5000000E+00  0.2592610E-16  0.0000000E+00  0.1736111E-02
    1      -41.642534    -41.642374   1.000000   1.000000
    2      -41.641639    -41.641479   1.000000   1.000000
    3      -41.199900    -41.199765   1.000000   1.000000
    4      -41.199266    -41.199131   1.000000   1.000000
    5      -17.891239    -17.891260   1.000000   1.000000
    6      -17.808326    -17.808347   1.000000   1.000000
    7      -12.554246    -12.554261   1.000000   1.000000
    8      -12.239586    -12.239603   1.000000   1.000000
    9       -3.656069     -3.656071   1.000000   1.000000
   10       -3.056500     -3.056500   1.000000   1.000000
   11       -2.337360     -2.337373   1.000000   1.000000
   12       -2.257205     -2.257215   1.000000   1.000000
   13       -1.744056     -1.744075   1.000000   1.000000
   14       -1.287458     -1.287480   1.000000   1.000000
   15        0.274833      0.274825   1.000000   1.000000
   16        0.356829      0.356811   1.000000   1.000000
   17        1.448661      1.448641   1.000000   1.000000
   18        2.263358      2.263333   1.000000   1.000000
   19        5.344846      5.344834   0.000000   0.000000
   20        6.265803      6.265788   0.000000   0.000000
   21       10.176200     10.176698   0.000000   0.000000
   22       11.303991     11.303866   0.000000   0.000000
   23       12.662665     12.662649   0.000000   0.000000
   24       13.100213     13.098846   0.000000   0.000000
   25       14.566515     14.555615   0.000000   0.000000
   26       14.665538     14.592993   0.000000   0.000000
 
 -0.6164931E-17  0.8333333E-01  0.0000000E+00  0.3472222E-02
    1      -41.659157    -41.658997   1.000000   1.000000
    2      -41.653354    -41.653194   1.000000   1.000000
    3      -41.219486    -41.219352   1.000000   1.000000
    4      -41.214444    -41.214309   1.000000   1.000000
    5      -18.090000    -18.090016   1.000000   1.000000
    6      -17.907469    -17.907487   1.000000   1.000000
    7      -13.104867    -13.104876   1.000000   1.000000
    8      -12.399929    -12.399947   1.000000   1.000000
    9       -3.988620     -3.988611   1.000000   1.000000
   10       -2.232850     -2.232855   1.000000   1.000000
   11       -1.097555     -1.097573   1.000000   1.000000
   12       -0.930286     -0.930305   1.000000   1.000000
   13       -0.881370     -0.881390   1.000000   1.000000
   14       -0.735102     -0.735123   1.000000   1.000000
   15        1.982026      1.982005   1.000000   1.000000
   16        2.165610      2.165588   1.000000   1.000000
   17        2.280239      2.280214   1.000000   1.000000
   18        2.472198      2.472172   1.000000   1.000000
   19        4.515314      4.515315   0.000000   0.000000
   20        6.684595      6.684578   0.000000   0.000000
   21        8.820878      8.820847   0.000000   0.000000
   22        9.203294      9.203292   0.000000   0.000000
   23       11.323135     11.323136   0.000000   0.000000
   24       11.497908     11.497876   0.000000   0.000000
   25       13.848695     13.847795   0.000000   0.000000
   26       14.607360     14.612741   0.000000   0.000000
 
  0.8333333E-01  0.8333333E-01  0.0000000E+00  0.3472222E-02
    1      -41.656967    -41.656808   1.000000   1.000000
    2      -41.651834    -41.651674   1.000000   1.000000
    3      -41.216926    -41.216792   1.000000   1.000000
    4      -41.212535    -41.212400   1.000000   1.000000
    5      -18.068037    -18.068054   1.000000   1.000000
    6      -17.892955    -17.892974   1.000000   1.000000
    7      -13.047002    -13.047012   1.000000   1.000000
    8      -12.369063    -12.369081   1.000000   1.000000
    9       -3.955412     -3.955404   1.000000   1.000000
   10       -2.253066     -2.253071   1.000000   1.000000
   11       -1.331871     -1.331888   1.000000   1.000000
   12       -1.185681     -1.185700   1.000000   1.000000
   13       -0.946467     -0.946486   1.000000   1.000000
   14       -0.854844     -0.854866   1.000000   1.000000
   15        1.708380      1.708359   1.000000   1.000000
   16        1.915141      1.915120   1.000000   1.000000
   17        2.166676      2.166653   1.000000   1.000000
   18        2.409148      2.409121   1.000000   1.000000
   19        4.626163      4.626161   0.000000   0.000000
   20        6.662861      6.662844   0.000000   0.000000
   21        9.133403      9.133367   0.000000   0.000000
   22        9.478735      9.478727   0.000000   0.000000
   23       11.555887     11.555883   0.000000   0.000000
   24       11.926716     11.926682   0.000000   0.000000
   25       13.562983     13.562618   0.000000   0.000000
   26       14.779599     14.783643   0.000000   0.000000
 
  0.1666667E+00  0.8333333E-01  0.0000000E+00  0.3472222E-02
    1      -41.653124    -41.652964   1.000000   1.000000
    2      -41.649154    -41.648994   1.000000   1.000000
    3      -41.212405    -41.212271   1.000000   1.000000
    4      -41.209124    -41.208989   1.000000   1.000000
    5      -18.027100    -18.027118   1.000000   1.000000
    6      -17.867934    -17.867954   1.000000   1.000000
    7      -12.938713    -12.938724   1.000000   1.000000
    8      -12.318770    -12.318787   1.000000   1.000000
    9       -3.890863     -3.890856   1.000000   1.000000
   10       -2.308907     -2.308912   1.000000   1.000000
   11       -1.729307     -1.729323   1.000000   1.000000
   12       -1.538759     -1.538776   1.000000   1.000000
   13       -1.145247     -1.145266   1.000000   1.000000
   14       -1.013307     -1.013328   1.000000   1.000000
   15        1.263171      1.263153   1.000000   1.000000
   16        1.546620      1.546603   1.000000   1.000000
   17        1.918877      1.918855   1.000000   1.000000
   18        2.333511      2.333485   1.000000   1.000000
   19        4.806377      4.806372   0.000000   0.000000
   20        6.605593      6.605577   0.000000   0.000000
   21        9.639457      9.639414   0.000000   0.000000
   22        9.962235      9.962219   0.000000   0.000000
   23       11.930420     11.930434   0.000000   0.000000
   24       12.660617     12.660646   0.000000   0.000000
   25       13.200142     13.200410   0.000000   0.000000
   26       15.034167     15.028836   0.000000   0.000000
 
  0.2500000E+00  0.8333333E-01  0.0000000E+00  0.3472222E-02
    1      -41.648680    -41.648520   1.000000   1.000000
    2      -41.646084    -41.645924   1.000000   1.000000
    3      -41.207167    -41.207033   1.000000   1.000000
    4      -41.205142    -41.205008   1.000000   1.000000
    5      -17.975458    -17.975477   1.000000   1.000000
    6      -17.840494    -17.840514   1.000000   1.000000
    7      -12.798342    -12.798354   1.000000   1.000000
    8      -12.270267    -12.270285   1.000000   1.000000
    9       -3.802764     -3.802759   1.000000   1.000000
   10       -2.475210     -2.475214   1.000000   1.000000
   11       -2.106021     -2.106036   1.000000   1.000000
   12       -1.884420     -1.884436   1.000000   1.000000
   13       -1.411608     -1.411626   1.000000   1.000000
   14       -1.143995     -1.144016   1.000000   1.000000
   15        0.804713      0.804697   1.000000   1.000000
   16        1.117410      1.117394   1.000000   1.000000
   17        1.661900      1.661879   1.000000   1.000000
   18        2.260309      2.260283   1.000000   1.000000
   19        5.016542      5.016534   0.000000   0.000000
   20        6.504348      6.504331   0.000000   0.000000
   21       10.096067     10.096020   0.000000   0.000000
   22       10.575403     10.575377   0.000000   0.000000
   23       12.314788     12.314761   0.000000   0.000000
   24       12.973666     12.973405   0.000000   0.000000
   25       13.505661     13.504589   0.000000   0.000000
   26       14.657016     14.658135   0.000000   0.000000
 
  0.3333333E+00  0.8333333E-01  0.0000000E+00  0.3472222E-02
    1      -41.644854    -41.644694   1.000000   1.000000
    2      -41.643375    -41.643215   1.000000   1.000000
    3      -41.202610    -41.202476   1.000000   1.000000
    4      -41.201616    -41.201481   1.000000   1.000000
    5      -17.925104    -17.925124   1.000000   1.000000
    6      -17.819797    -17.819818   1.000000   1.000000
    7      -12.654861    -12.654875   1.000000   1.000000
    8      -12.244484    -12.244502   1.000000   1.000000
    9       -3.707176     -3.707174   1.000000   1.000000
   10       -2.791630     -2.791633   1.000000   1.000000
   11       -2.271928     -2.271940   1.000000   1.000000
   12       -2.170391     -2.170406   1.000000   1.000000
   13       -1.612101     -1.612118   1.000000   1.000000
   14       -1.254976     -1.254996   1.000000   1.000000
   15        0.466580      0.466567   1.000000   1.000000
   16        0.709115      0.709100   1.000000   1.000000
   17        1.481158      1.481138   1.000000   1.000000
   18        2.194087      2.194061   1.000000   1.000000
   19        5.224928      5.224917   0.000000   0.000000
   20        6.371961      6.371945   0.000000   0.000000
   21       10.323743     10.323731   0.000000   0.000000
   22       11.149054     11.149041   0.000000   0.000000
   23       12.603286     12.603100   0.000000   0.000000
   24       12.960871     12.960669   0.000000   0.000000
   25       14.217605     14.208350   0.000000   0.000000
   26       14.445402     14.444117   0.000000   0.000000
 
  0.4166667E+00  0.8333333E-01  0.0000000E+00  0.3472222E-02
    1      -41.642652    -41.642491   1.000000   1.000000
    2      -41.641747    -41.641586   1.000000   1.000000
    3      -41.200016    -41.199882   1.000000   1.000000
    4      -41.199432    -41.199297   1.000000   1.000000
    5      -17.891386    -17.891407   1.000000   1.000000
    6      -17.810650    -17.810671   1.000000   1.000000
    7      -12.553730    -12.553745   1.000000   1.000000
    8      -12.244776    -12.244793   1.000000   1.000000
    9       -3.633286     -3.633287   1.000000   1.000000
   10       -3.022821     -3.022821   1.000000   1.000000
   11       -2.350789     -2.350803   1.000000   1.000000
   12       -2.319059     -2.319072   1.000000   1.000000
   13       -1.714330     -1.714347   1.000000   1.000000
   14       -1.318241     -1.318261   1.000000   1.000000
   15        0.315460      0.315451   1.000000   1.000000
   16        0.435881      0.435865   1.000000   1.000000
   17        1.389523      1.389504   1.000000   1.000000
   18        2.155792      2.155767   1.000000   1.000000
   19        5.374877      5.374865   0.000000   0.000000
   20        6.260246      6.260231   0.000000   0.000000
   21       10.378438     10.378685   0.000000   0.000000
   22       11.462719     11.462705   0.000000   0.000000
   23       12.748866     12.748741   0.000000   0.000000
   24       13.061777     13.060960   0.000000   0.000000
   25       14.380872     14.380120   0.000000   0.000000
   26       14.509202     14.512125   0.000000   0.000000
 
  0.5000000E+00  0.8333333E-01  0.0000000E+00  0.3472222E-02
    1      -41.642612    -41.642451   1.000000   1.000000
    2      -41.641679    -41.641519   1.000000   1.000000
    3      -41.199957    -41.199822   1.000000   1.000000
    4      -41.199346    -41.199211   1.000000   1.000000
    5      -17.890685    -17.890706   1.000000   1.000000
    6      -17.809943    -17.809964   1.000000   1.000000
    7      -12.552396    -12.552411   1.000000   1.000000
    8      -12.243862    -12.243879   1.000000   1.000000
    9       -3.632420     -3.632421   1.000000   1.000000
   10       -3.027106     -3.027107   1.000000   1.000000
   11       -2.347979     -2.347993   1.000000   1.000000
   12       -2.323966     -2.323978   1.000000   1.000000
   13       -1.713390     -1.713406   1.000000   1.000000
   14       -1.318746     -1.318766   1.000000   1.000000
   15        0.310033      0.310024   1.000000   1.000000
   16        0.431965      0.431949   1.000000   1.000000
   17        1.392564      1.392544   1.000000   1.000000
   18        2.158109      2.158083   1.000000   1.000000
   19        5.375531      5.375520   0.000000   0.000000
   20        6.259872      6.259857   0.000000   0.000000
   21       10.376569     10.376821   0.000000   0.000000
   22       11.460505     11.460478   0.000000   0.000000
   23       12.748628     12.748578   0.000000   0.000000
   24       13.040294     13.039326   0.000000   0.000000
   25       14.381965     14.387466   0.000000   0.000000
   26       14.565717     14.531090   0.000000   0.000000
 
 -0.4166667E+00  0.8333333E-01  0.0000000E+00  0.3472222E-02
    1      -41.644720    -41.644560   1.000000   1.000000
    2      -41.643210    -41.643050   1.000000   1.000000
    3      -41.202419    -41.202285   1.000000   1.000000
    4      -41.201413    -41.201278   1.000000   1.000000
    5      -17.923007    -17.923027   1.000000   1.000000
    6      -17.817944    -17.817965   1.000000   1.000000
    7      -12.651595    -12.651608   1.000000   1.000000
    8      -12.241739    -12.241756   1.000000   1.000000
    9       -3.705573     -3.705571   1.000000   1.000000
   10       -2.800738     -2.800741   1.000000   1.000000
   11       -2.264667     -2.264679   1.000000   1.000000
   12       -2.184370     -2.184386   1.000000   1.000000
   13       -1.610917     -1.610935   1.000000   1.000000
   14       -1.256586     -1.256606   1.000000   1.000000
   15        0.453896      0.453883   1.000000   1.000000
   16        0.697056      0.697041   1.000000   1.000000
   17        1.488894      1.488874   1.000000   1.000000
   18        2.199563      2.199537   1.000000   1.000000
   19        5.226222      5.226211   0.000000   0.000000
   20        6.371337      6.371321   0.000000   0.000000
   21       10.317063     10.317103   0.000000   0.000000
   22       11.137013     11.136991   0.000000   0.000000
   23       12.602985     12.602819   0.000000   0.000000
   24       12.918304     12.918048   0.000000   0.000000
   25       14.246323     14.244376   0.000000   0.000000
   26       14.447546     14.447021   0.000000   0.000000
 
 -0.3333333E+00  0.8333333E-01  0.0000000E+00  0.3472222E-02
    1      -41.648480    -41.648320   1.000000   1.000000
    2      -41.645899    -41.645739   1.000000   1.000000
    3      -41.206903    -41.206769   1.000000   1.000000
    4      -41.204907    -41.204772   1.000000   1.000000
    5      -17.972799    -17.972818   1.000000   1.000000
    6      -17.838029    -17.838050   1.000000   1.000000
    7      -12.793974    -12.793987   1.000000   1.000000
    8      -12.266603    -12.266621   1.000000   1.000000
    9       -3.800751     -3.800746   1.000000   1.000000
   10       -2.478422     -2.478426   1.000000   1.000000
   11       -2.110177     -2.110192   1.000000   1.000000
   12       -1.892621     -1.892637   1.000000   1.000000
   13       -1.417177     -1.417195   1.000000   1.000000
   14       -1.147197     -1.147218   1.000000   1.000000
   15        0.790340      0.790324   1.000000   1.000000
   16        1.102283      1.102268   1.000000   1.000000
   17        1.669078      1.669057   1.000000   1.000000
   18        2.264934      2.264909   1.000000   1.000000
   19        5.017823      5.017814   0.000000   0.000000
   20        6.503965      6.503949   0.000000   0.000000
   21       10.082750     10.082705   0.000000   0.000000
   22       10.553670     10.553657   0.000000   0.000000
   23       12.315237     12.315226   0.000000   0.000000
   24       12.937494     12.937598   0.000000   0.000000
   25       13.525543     13.526135   0.000000   0.000000
   26       14.676307     14.675558   0.000000   0.000000
 
 -0.2500000E+00  0.8333333E-01  0.0000000E+00  0.3472222E-02
    1      -41.652925    -41.652765   1.000000   1.000000
    2      -41.648991    -41.648831   1.000000   1.000000
    3      -41.212143    -41.212008   1.000000   1.000000
    4      -41.208903    -41.208769   1.000000   1.000000
    5      -18.024621    -18.024638   1.000000   1.000000
    6      -17.865410    -17.865431   1.000000   1.000000
    7      -12.934775    -12.934786   1.000000   1.000000
    8      -12.315132    -12.315150   1.000000   1.000000
    9       -3.888640     -3.888633   1.000000   1.000000
   10       -2.305062     -2.305066   1.000000   1.000000
   11       -1.738075     -1.738091   1.000000   1.000000
   12       -1.533939     -1.533957   1.000000   1.000000
   13       -1.166700     -1.166719   1.000000   1.000000
   14       -1.019795     -1.019816   1.000000   1.000000
   15        1.255770      1.255752   1.000000   1.000000
   16        1.538501      1.538483   1.000000   1.000000
   17        1.915737      1.915715   1.000000   1.000000
   18        2.331374      2.331348   1.000000   1.000000
   19        4.807561      4.807556   0.000000   0.000000
   20        6.605485      6.605469   0.000000   0.000000
   21        9.620841      9.620797   0.000000   0.000000
   22        9.943372      9.943357   0.000000   0.000000
   23       11.931437     11.931477   0.000000   0.000000
   24       12.667501     12.667489   0.000000   0.000000
   25       13.189828     13.189954   0.000000   0.000000
   26       15.078307     15.063178   0.000000   0.000000
 
 -0.1666667E+00  0.8333333E-01  0.0000000E+00  0.3472222E-02
    1      -41.656816    -41.656656   1.000000   1.000000
    2      -41.651710    -41.651550   1.000000   1.000000
    3      -41.216720    -41.216585   1.000000   1.000000
    4      -41.212378    -41.212243   1.000000   1.000000
    5      -18.066168    -18.066185   1.000000   1.000000
    6      -17.891133    -17.891153   1.000000   1.000000
    7      -13.044139    -13.044149   1.000000   1.000000
    8      -12.366554    -12.366572   1.000000   1.000000
    9       -3.953632     -3.953623   1.000000   1.000000
   10       -2.250267     -2.250272   1.000000   1.000000
   11       -1.316627     -1.316644   1.000000   1.000000
   12       -1.185692     -1.185710   1.000000   1.000000
   13       -0.959886     -0.959905   1.000000   1.000000
   14       -0.883047     -0.883068   1.000000   1.000000
   15        1.721867      1.721847   1.000000   1.000000
   16        1.906008      1.905988   1.000000   1.000000
   17        2.162113      2.162090   1.000000   1.000000
   18        2.391120      2.391093   1.000000   1.000000
   19        4.627537      4.627534   0.000000   0.000000
   20        6.663043      6.663026   0.000000   0.000000
   21        9.119000      9.118967   0.000000   0.000000
   22        9.467702      9.467696   0.000000   0.000000
   23       11.557142     11.557147   0.000000   0.000000
   24       11.929499     11.929468   0.000000   0.000000
   25       13.610112     13.609730   0.000000   0.000000
   26       14.692093     14.692847   0.000000   0.000000
 
 -0.8333333E-01  0.8333333E-01  0.0000000E+00  0.3472222E-02
    1      -41.659132    -41.658972   1.000000   1.000000
    2      -41.653313    -41.653153   1.000000   1.000000
    3      -41.219429    -41.219294   1.000000   1.000000
    4      -41.214418    -41.214283   1.000000   1.000000
    5      -18.089413    -18.089429   1.000000   1.000000
    6      -17.906840    -17.906858   1.000000   1.000000
    7      -13.103904    -13.103913   1.000000   1.000000
    8      -12.399086    -12.399104   1.000000   1.000000
    9       -3.987933     -3.987924   1.000000   1.000000
   10       -2.231914     -2.231920   1.000000   1.000000
   11       -1.072177     -1.072196   1.000000   1.000000
   12       -0.965737     -0.965756   1.000000   1.000000
   13       -0.853494     -0.853515   1.000000   1.000000
   14       -0.763297     -0.763318   1.000000   1.000000
   15        2.004658      2.004636   1.000000   1.000000
   16        2.136664      2.136642   1.000000   1.000000
   17        2.301836      2.301812   1.000000   1.000000
   18        2.449222      2.449195   1.000000   1.000000
   19        4.516028      4.516029   0.000000   0.000000
   20        6.684623      6.684608   0.000000   0.000000
   21        8.815838      8.815807   0.000000   0.000000
   22        9.199426      9.199421   0.000000   0.000000
   23       11.323351     11.323354   0.000000   0.000000
   24       11.499132     11.499103   0.000000   0.000000
   25       13.922488     13.925506   0.000000   0.000000