 running on   12 total cores
 distrk:  each k-point on   12 cores,    1 groups
 distr:  one band on    6 cores,    2 groups
 using from now: INCAR     
 vasp.6.1.2 22Jul20 (build Mar 20 2021 11:25:07) complex                        
  
 POSCAR found type information on POSCAR LiO 
 POSCAR found :  2 types and       8 ions
 scaLAPACK will be used
 -----------------------------------------------------------------------------
|                                                                             |
|               ----> ADVICE to this user running VASP <----                  |
|                                                                             |
|     You have a (more or less) 'small supercell' and for smaller cells       |
|     it is recommended to use the reciprocal-space projection scheme!        |
|     The real-space optimization is not efficient for small cells and it     |
|     is also less accurate ...                                               |
|     Therefore, set LREAL=.FALSE. in the INCAR file.                         |
|                                                                             |
 -----------------------------------------------------------------------------

 LDA part: xc-table for Pade appr. of Perdew
 generate k-points for:   12   12    4
 POSCAR, INCAR and KPOINTS ok, starting setup
 FFT: planning ...
 WAVECAR not read
 entering main loop
       N       E                     dE             d eps       ncg     rms          rms(c)
DAV:   1     0.259438173371E+03    0.25944E+03   -0.17668E+04 23096   0.148E+03
DAV:   2    -0.146101795137E+02   -0.27405E+03   -0.26511E+03 27652   0.370E+02
DAV:   3    -0.374814698190E+02   -0.22871E+02   -0.22713E+02 37734   0.903E+01
DAV:   4    -0.392669478162E+02   -0.17855E+01   -0.17802E+01 34144   0.229E+01
DAV:   5    -0.393184436109E+02   -0.51496E-01   -0.51491E-01 32568   0.333E+00    0.178E+01
RMM:   6    -0.381890708673E+02    0.11294E+01   -0.50233E+00 25479   0.120E+01    0.787E+00
RMM:   7    -0.388093272110E+02   -0.62026E+00   -0.84090E-01 29080   0.578E+00    0.391E+00
RMM:   8    -0.388915675081E+02   -0.82240E-01   -0.38762E-01 34617   0.359E+00    0.157E+00
RMM:   9    -0.389033425465E+02   -0.11775E-01   -0.13530E-01 36276   0.233E+00    0.394E-01
RMM:  10    -0.389146317508E+02   -0.11289E-01   -0.72544E-02 40569   0.134E+00    0.199E-01
RMM:  11    -0.389189959188E+02   -0.43642E-02   -0.27655E-02 41642   0.792E-01    0.144E-01
WARNING in EDDRMM: call to ZHEGV failed, returncode =   8  4     12
RMM:  12    -0.389206432161E+02   -0.16473E-02   -0.12396E-02 43204   0.477E-01    0.109E-01
RMM:  13    -0.389210898704E+02   -0.44665E-03   -0.42616E-03 40618   0.345E-01    0.556E-02
RMM:  14    -0.389214586023E+02   -0.36873E-03   -0.24642E-03 41302   0.244E-01    0.135E-02
RMM:  15    -0.389215977441E+02   -0.13914E-03   -0.12363E-03 39231   0.144E-01    0.108E-02
RMM:  16    -0.389216511956E+02   -0.53451E-04   -0.49126E-04 37788   0.935E-02    0.101E-02
RMM:  17    -0.389216678774E+02   -0.16682E-04   -0.19097E-04 37103   0.650E-02    0.449E-03
RMM:  18    -0.389216752798E+02   -0.74024E-05   -0.76196E-05 30263   0.450E-02
   1 F= -.38921675E+02 E0= -.38921675E+02  d E =0.000000E+00  mag=    -0.0000
