 running on   12 total cores
 distrk:  each k-point on   12 cores,    1 groups
 distr:  one band on    6 cores,    2 groups
 using from now: INCAR     
 vasp.6.1.2 22Jul20 (build Mar 20 2021 11:25:07) complex                        
  
 POSCAR found type information on POSCAR LiP O 
 POSCAR found :  3 types and      26 ions
 scaLAPACK will be used
 LDA part: xc-table for Pade appr. of Perdew
 generate k-points for:    7    5    4
 POSCAR, INCAR and KPOINTS ok, starting setup
 FFT: planning ...
 WAVECAR not read
 entering main loop
       N       E                     dE             d eps       ncg     rms          rms(c)
DAV:   1     0.111602752932E+04    0.11160E+04   -0.61947E+04 24432   0.152E+03
DAV:   2    -0.623430580000E+02   -0.11784E+04   -0.11088E+04 29400   0.394E+02
DAV:   3    -0.173716192224E+03   -0.11137E+03   -0.11066E+03 31512   0.124E+02
DAV:   4    -0.183432823499E+03   -0.97166E+01   -0.96753E+01 45840   0.296E+01
DAV:   5    -0.184998954127E+03   -0.15661E+01   -0.15656E+01 34400   0.688E+00    0.506E+01
DAV:   6    -0.164849975358E+03    0.20149E+02   -0.89562E+01 30436   0.320E+01    0.255E+01
DAV:   7    -0.166899198471E+03   -0.20492E+01   -0.73590E+00 31792   0.915E+00    0.891E+00
DAV:   8    -0.167181585552E+03   -0.28239E+00   -0.80265E-01 32832   0.362E+00    0.447E+00
DAV:   9    -0.167316435314E+03   -0.13485E+00   -0.14223E-01 33328   0.167E+00    0.179E+00
DAV:  10    -0.167343581112E+03   -0.27146E-01   -0.56146E-02 29720   0.115E+00    0.537E-01
DAV:  11    -0.167354040802E+03   -0.10460E-01   -0.11660E-02 30488   0.452E-01    0.300E-01
DAV:  12    -0.167356761209E+03   -0.27204E-02   -0.21424E-03 31520   0.209E-01    0.156E-01
DAV:  13    -0.167358019894E+03   -0.12587E-02   -0.10348E-03 28184   0.128E-01    0.492E-02
DAV:  14    -0.167358210599E+03   -0.19071E-03   -0.16132E-04 32544   0.595E-02    0.266E-02
DAV:  15    -0.167358269415E+03   -0.58815E-04   -0.55499E-05 25368   0.328E-02    0.167E-02
DAV:  16    -0.167358280580E+03   -0.11166E-04   -0.83886E-06 20624   0.133E-02    0.918E-03
DAV:  17    -0.167358284615E+03   -0.40347E-05   -0.57945E-06 17240   0.976E-03
   1 F= -.16735828E+03 E0= -.16735828E+03  d E =0.000000E+00  mag=    -0.0009
