       N       E                     dE             d eps       ncg     rms          rms(c)
DAV:   1     0.396630267525E+03    0.39663E+03   -0.25847E+04 10304   0.136E+03
DAV:   2    -0.415459207385E+01   -0.40078E+03   -0.36902E+03 11720   0.324E+02
DAV:   3    -0.558616097058E+02   -0.51707E+02   -0.51057E+02 14820   0.898E+01
DAV:   4    -0.633231463002E+02   -0.74615E+01   -0.73952E+01 18660   0.339E+01
DAV:   5    -0.641196620813E+02   -0.79652E+00   -0.79624E+00 15000   0.772E+00    0.206E+01
DAV:   6    -0.654449953837E+02   -0.13253E+01   -0.27997E+00 13708   0.643E+00    0.109E+01
DAV:   7    -0.667219260878E+02   -0.12769E+01   -0.71232E-01 12688   0.410E+00    0.567E+00
DAV:   8    -0.669697893702E+02   -0.24786E+00   -0.63456E-01 13224   0.299E+00    0.122E+00
DAV:   9    -0.669985417454E+02   -0.28752E-01   -0.81171E-02 15424   0.112E+00    0.471E-01
DAV:  10    -0.670020991367E+02   -0.35574E-02   -0.66147E-03 13266   0.386E-01    0.199E-01
DAV:  11    -0.670034777181E+02   -0.13786E-02   -0.18106E-03 12730   0.208E-01    0.941E-02
DAV:  12    -0.670037679046E+02   -0.29019E-03   -0.63028E-04 13042   0.103E-01    0.399E-02
DAV:  13    -0.670038139693E+02   -0.46065E-04   -0.91971E-05 11762   0.520E-02    0.204E-02
DAV:  14    -0.670038275800E+02   -0.13611E-04   -0.30030E-05 10298   0.286E-02    0.582E-03
DAV:  15    -0.670038291874E+02   -0.16074E-05   -0.43669E-06  7138   0.133E-02
   1 F= -.67003829E+02 E0= -.67003829E+02  d E =0.000000E+00  mag=    -0.0003
