 running on   12 total cores
 distrk:  each k-point on   12 cores,    1 groups
 distr:  one band on    6 cores,    2 groups
 using from now: INCAR     
 vasp.6.1.2 22Jul20 (build Mar 20 2021 11:25:07) complex                        
  
 POSCAR found type information on POSCAR LiO 
 POSCAR found :  2 types and       3 ions
 scaLAPACK will be used
 -----------------------------------------------------------------------------
|                                                                             |
|               ----> ADVICE to this user running VASP <----                  |
|                                                                             |
|     You have a (more or less) 'small supercell' and for smaller cells       |
|     it is recommended to use the reciprocal-space projection scheme!        |
|     The real-space optimization is not efficient for small cells and it     |
|     is also less accurate ...                                               |
|     Therefore, set LREAL=.FALSE. in the INCAR file.                         |
|                                                                             |
 -----------------------------------------------------------------------------

 LDA part: xc-table for Pade appr. of Perdew
 generate k-points for:   11   12   12
 POSCAR, INCAR and KPOINTS ok, starting setup
 FFT: planning ...
 WAVECAR not read
 entering main loop
       N       E                     dE             d eps       ncg     rms          rms(c)
DAV:   1     0.450368678890E+02    0.45037E+02   -0.55973E+03 20824   0.102E+03
DAV:   2    -0.950288486928E+01   -0.54540E+02   -0.52430E+02 24968   0.224E+02
DAV:   3    -0.152361236679E+02   -0.57332E+01   -0.56920E+01 39332   0.532E+01
DAV:   4    -0.152869177941E+02   -0.50794E-01   -0.50784E-01 24120   0.646E+00
DAV:   5    -0.152872996726E+02   -0.38188E-03   -0.38187E-03 29232   0.461E-01    0.116E+01
RMM:   6    -0.141803930742E+02    0.11069E+01   -0.36458E+00 22743   0.125E+01    0.505E+00
RMM:   7    -0.142744384695E+02   -0.94045E-01   -0.13942E-01 25288   0.305E+00    0.202E+00
RMM:   8    -0.142734668584E+02    0.97161E-03   -0.56675E-02 29004   0.235E+00    0.116E+00
RMM:   9    -0.142864492610E+02   -0.12982E-01   -0.30737E-02 29483   0.199E+00    0.255E-01
RMM:  10    -0.142873043259E+02   -0.85506E-03   -0.90885E-03 34231   0.712E-01    0.149E-01
RMM:  11    -0.142884609672E+02   -0.11566E-02   -0.62574E-03 32297   0.612E-01    0.197E-01
RMM:  12    -0.142881358393E+02    0.32513E-03   -0.16924E-03 33372   0.327E-01    0.861E-02
RMM:  13    -0.142881240910E+02    0.11748E-04   -0.82785E-04 33381   0.227E-01    0.205E-02
WARNING in EDDRMM: call to ZHEGV failed, returncode =   6  3      6
RMM:  14    -0.142881638025E+02   -0.39711E-04   -0.32094E-04 32989   0.121E-01    0.265E-02
WARNING in EDDRMM: call to ZHEGV failed, returncode =   6  3      6
RMM:  15    -0.142881818927E+02   -0.18090E-04   -0.11896E-04 30009   0.779E-02    0.329E-02
WARNING in EDDRMM: call to ZHEGV failed, returncode =   6  3      3
RMM:  16    -0.142881824591E+02   -0.56633E-06   -0.55908E-05 27743   0.572E-02
   1 F= -.14288182E+02 E0= -.14288182E+02  d E =0.000000E+00  mag=    -0.0000
