 running on    8 total cores
 distrk:  each k-point on    8 cores,    1 groups
 distr:  one band on    1 cores,    8 groups
 using from now: INCAR     
 vasp.6.1.2 22Jul20 (build Mar 20 2021 11:25:07) complex                        
  
 POSCAR found type information on POSCAR LiO 
 POSCAR found :  2 types and       8 ions
 scaLAPACK will be used
 -----------------------------------------------------------------------------
|                                                                             |
|           W    W    AA    RRRRR   N    N  II  N    N   GGGG   !!!           |
|           W    W   A  A   R    R  NN   N  II  NN   N  G    G  !!!           |
|           W    W  A    A  R    R  N N  N  II  N N  N  G       !!!           |
|           W WW W  AAAAAA  RRRRR   N  N N  II  N  N N  G  GGG   !            |
|           WW  WW  A    A  R   R   N   NN  II  N   NN  G    G                |
|           W    W  A    A  R    R  N    N  II  N    N   GGGG   !!!           |
|                                                                             |
|     The value NCORE = 6 specified in the INCAR file was overwritten,        |
|     because it was not compatible with the 8 processes available:           |
|     NCORE = 1                                                               |
|     was used instead, please check that this makes sense for your           |
|     machine.                                                                |
|                                                                             |
 -----------------------------------------------------------------------------

 -----------------------------------------------------------------------------
|                                                                             |
|           W    W    AA    RRRRR   N    N  II  N    N   GGGG   !!!           |
|           W    W   A  A   R    R  NN   N  II  NN   N  G    G  !!!           |
|           W    W  A    A  R    R  N N  N  II  N N  N  G       !!!           |
|           W WW W  AAAAAA  RRRRR   N  N N  II  N  N N  G  GGG   !            |
|           WW  WW  A    A  R   R   N   NN  II  N   NN  G    G                |
|           W    W  A    A  R    R  N    N  II  N    N   GGGG   !!!           |
|                                                                             |
|     For optimal performance we recommend to set                             |
|       NCORE = 4 - approx SQRT(number of cores).                             |
|     NCORE specifies how many cores store one orbital (NPAR=cpu/NCORE).      |
|     This setting can greatly improve the performance of VASP for DFT.       |
|     The default, NCORE=1 might be grossly inefficient on modern             |
|     multi-core architectures or massively parallel machines. Do your        |
|     own testing!!!!                                                         |
|     Unfortunately you need to use the default for GW and RPA                |
|     calculations (for HF NCORE is supported but not extensively tested      |
|     yet).                                                                   |
|                                                                             |
 -----------------------------------------------------------------------------

 -----------------------------------------------------------------------------
|                                                                             |
|               ----> ADVICE to this user running VASP <----                  |
|                                                                             |
|     You have a (more or less) 'small supercell' and for smaller cells       |
|     it is recommended to use the reciprocal-space projection scheme!        |
|     The real-space optimization is not efficient for small cells and it     |
|     is also less accurate ...                                               |
|     Therefore, set LREAL=.FALSE. in the INCAR file.                         |
|                                                                             |
 -----------------------------------------------------------------------------

 LDA part: xc-table for Pade appr. of Perdew
 -----------------------------------------------------------------------------
|                                                                             |
|           W    W    AA    RRRRR   N    N  II  N    N   GGGG   !!!           |
|           W    W   A  A   R    R  NN   N  II  NN   N  G    G  !!!           |
|           W    W  A    A  R    R  N N  N  II  N N  N  G       !!!           |
|           W WW W  AAAAAA  RRRRR   N  N N  II  N  N N  G  GGG   !            |
|           WW  WW  A    A  R   R   N   NN  II  N   NN  G    G                |
|           W    W  A    A  R    R  N    N  II  N    N   GGGG   !!!           |
|                                                                             |
|     The determination of the symmetry of your systems shows a strong        |
|     dependence on the tolerance parameter SYMPREC. This is often the        |
|     result of "noise" in the structural parameters (lattice vectors         |
|     and/or ionic positions). Set NWRITE=3 for more details.                 |
|                                                                             |
 -----------------------------------------------------------------------------

 generate k-points for:   12   12    4
 POSCAR, INCAR and KPOINTS ok, starting setup
 FFT: planning ...
 WAVECAR not read
 entering main loop
       N       E                     dE             d eps       ncg     rms          rms(c)
DAV:   1     0.243758712803E+03    0.24376E+03   -0.17032E+04  7296   0.121E+03
DAV:   2    -0.157843243514E+02   -0.25954E+03   -0.24787E+03  8608   0.319E+02
DAV:   3    -0.380964051341E+02   -0.22312E+02   -0.22024E+02 12360   0.746E+01
DAV:   4    -0.392686369662E+02   -0.11722E+01   -0.11690E+01 10096   0.165E+01
DAV:   5    -0.392867661339E+02   -0.18129E-01   -0.18128E-01 10448   0.195E+00    0.179E+01
RMM:   6    -0.381760455186E+02    0.11107E+01   -0.35818E+00  8113   0.921E+00    0.778E+00
RMM:   7    -0.387667344245E+02   -0.59069E+00   -0.50750E-01  8580   0.418E+00    0.387E+00
RMM:   8    -0.388347952339E+02   -0.68061E-01   -0.20022E-01  9961   0.252E+00    0.155E+00
RMM:   9    -0.388418074173E+02   -0.70122E-02   -0.66637E-02 10629   0.159E+00    0.398E-01
RMM:  10    -0.388484917686E+02   -0.66844E-02   -0.28752E-02 11636   0.874E-01    0.181E-01
RMM:  11    -0.388512716488E+02   -0.27799E-02   -0.11040E-02 12128   0.476E-01    0.111E-01
WARNING in EDDRMM: call to ZHEGV failed, returncode =   8  4      4
RMM:  12    -0.388520367364E+02   -0.76509E-03   -0.41807E-03 12574   0.277E-01    0.744E-02
RMM:  13    -0.388522685890E+02   -0.23185E-03   -0.15852E-03 12037   0.187E-01    0.250E-02
RMM:  14    -0.388524084545E+02   -0.13987E-03   -0.72206E-04 12099   0.125E-01    0.818E-03
RMM:  15    -0.388524468459E+02   -0.38391E-04   -0.29810E-04 11703   0.732E-02    0.726E-03
RMM:  16    -0.388524606564E+02   -0.13811E-04   -0.11733E-04 10911   0.470E-02    0.329E-03
RMM:  17    -0.388524661176E+02   -0.54612E-05   -0.46419E-05  9696   0.328E-02
   1 F= -.38852466E+02 E0= -.38852466E+02  d E =0.000000E+00  mag=    -0.0000
