Automatically generated mesh
     644
Reciprocal lattice
    0.00000000000000    0.00000000000000    0.00000000000000             1
    0.07142857142857    0.00000000000000   -0.00000000000000             2
    0.14285714285715    0.00000000000000   -0.00000000000000             2
    0.21428571428572   -0.00000000000000    0.00000000000000             2
    0.28571428571428   -0.00000000000000    0.00000000000000             2
    0.35714285714285   -0.00000000000000    0.00000000000000             2
    0.42857142857143   -0.00000000000000    0.00000000000000             2
    0.50000000000000    0.00000000000000   -0.00000000000000             1
    0.00000000000000    0.07692307692308    0.00000000000000             4
    0.07142857142857    0.07692307692308    0.00000000000000             4
    0.14285714285715    0.07692307692308    0.00000000000000             4
    0.21428571428572    0.07692307692308    0.00000000000000             4
    0.28571428571428    0.07692307692308    0.00000000000000             4
    0.35714285714285    0.07692307692308    0.00000000000000             4
    0.42857142857143    0.07692307692308    0.00000000000000             4
    0.50000000000000    0.07692307692308    0.00000000000000             4
   -0.42857142857143    0.07692307692308    0.00000000000000             4
   -0.35714285714285    0.07692307692308    0.00000000000000             4
   -0.28571428571428    0.07692307692308    0.00000000000000             4
   -0.21428571428572    0.07692307692308    0.00000000000000             4
   -0.14285714285715    0.07692307692308    0.00000000000000             4
   -0.07142857142857    0.07692307692308    0.00000000000000             4
    0.00000000000000    0.15384615384615    0.00000000000001             4
    0.07142857142857    0.15384615384615    0.00000000000001             4
    0.14285714285715    0.15384615384615    0.00000000000001             4
    0.21428571428572    0.15384615384615    0.00000000000001             4
    0.28571428571428    0.15384615384615    0.00000000000001             4
    0.35714285714285    0.15384615384615    0.00000000000001             4
    0.42857142857143    0.15384615384615    0.00000000000001             4
    0.50000000000000    0.15384615384615    0.00000000000001             4
   -0.42857142857143    0.15384615384615    0.00000000000001             4
   -0.35714285714285    0.15384615384615    0.00000000000001             4
   -0.28571428571428    0.15384615384615    0.00000000000001             4
   -0.21428571428572    0.15384615384615    0.00000000000001             4
   -0.14285714285715    0.15384615384615    0.00000000000001             4
   -0.07142857142857    0.15384615384615    0.00000000000001             4
   -0.00000000000000    0.23076923076923   -0.00000000000000             4
    0.07142857142857    0.23076923076923   -0.00000000000000             4
    0.14285714285715    0.23076923076923   -0.00000000000000             4
    0.21428571428572    0.23076923076923   -0.00000000000000             4
    0.28571428571428    0.23076923076923   -0.00000000000000             4
    0.35714285714285    0.23076923076923   -0.00000000000000             4
    0.42857142857143    0.23076923076923   -0.00000000000000             4
    0.50000000000000    0.23076923076923   -0.00000000000000             4
   -0.42857142857143    0.23076923076923   -0.00000000000000             4
   -0.35714285714285    0.23076923076923   -0.00000000000000             4
   -0.28571428571428    0.23076923076923   -0.00000000000000             4
   -0.21428571428572    0.23076923076923   -0.00000000000000             4
   -0.14285714285715    0.23076923076923   -0.00000000000000             4
   -0.07142857142857    0.23076923076923   -0.00000000000000             4
   -0.00000000000000    0.30769230769231   -0.00000000000000             4
    0.07142857142857    0.30769230769231   -0.00000000000000             4
    0.14285714285715    0.30769230769231   -0.00000000000000             4
    0.21428571428572    0.30769230769231   -0.00000000000000             4
    0.28571428571428    0.30769230769231   -0.00000000000000             4
    0.35714285714285    0.30769230769231   -0.00000000000000             4
    0.42857142857143    0.30769230769231   -0.00000000000000             4
    0.50000000000000    0.30769230769231   -0.00000000000000             4
   -0.42857142857143    0.30769230769231   -0.00000000000000             4
   -0.35714285714285    0.30769230769231   -0.00000000000000             4
   -0.28571428571428    0.30769230769231   -0.00000000000000             4
   -0.21428571428572    0.30769230769231   -0.00000000000000             4
   -0.14285714285715    0.30769230769231   -0.00000000000000             4
   -0.07142857142857    0.30769230769231   -0.00000000000000             4
    0.00000000000000    0.38461538461539    0.00000000000000             4
    0.07142857142857    0.38461538461539    0.00000000000000             4
    0.14285714285715    0.38461538461539    0.00000000000000             4
    0.21428571428572    0.38461538461539    0.00000000000000             4
    0.28571428571428    0.38461538461539    0.00000000000000             4
    0.35714285714285    0.38461538461539    0.00000000000000             4
    0.42857142857143    0.38461538461539    0.00000000000000             4
    0.50000000000000    0.38461538461539    0.00000000000000             4
   -0.42857142857143    0.38461538461539    0.00000000000000             4
   -0.35714285714285    0.38461538461539    0.00000000000000             4
   -0.28571428571428    0.38461538461539    0.00000000000000             4
   -0.21428571428572    0.38461538461539    0.00000000000000             4
   -0.14285714285715    0.38461538461539    0.00000000000000             4
   -0.07142857142857    0.38461538461539    0.00000000000000             4
   -0.00000000000000    0.46153846153846    0.00000000000000             4
    0.07142857142857    0.46153846153846    0.00000000000000             4
    0.14285714285715    0.46153846153846    0.00000000000000             4
    0.21428571428572    0.46153846153846    0.00000000000000             4
    0.28571428571428    0.46153846153846    0.00000000000000             4
    0.35714285714285    0.46153846153846    0.00000000000000             4
    0.42857142857143    0.46153846153846    0.00000000000000             4
    0.50000000000000    0.46153846153846    0.00000000000001             4
   -0.42857142857143    0.46153846153846    0.00000000000000             4
   -0.35714285714285    0.46153846153846    0.00000000000000             4
   -0.28571428571428    0.46153846153846    0.00000000000000             4
   -0.21428571428572    0.46153846153846    0.00000000000000             4
   -0.14285714285715    0.46153846153846    0.00000000000000             4
   -0.07142857142857    0.46153846153846    0.00000000000000             4
   -0.00000000000000    0.07692307692308    0.07692307692308             2
    0.07142857142857    0.07692307692308    0.07692307692308             2
    0.14285714285715    0.07692307692308    0.07692307692308             2
    0.21428571428572    0.07692307692308    0.07692307692308             2
    0.28571428571428    0.07692307692308    0.07692307692308             2
    0.35714285714285    0.07692307692308    0.07692307692308             2
    0.42857142857143    0.07692307692308    0.07692307692308             2
    0.50000000000000    0.07692307692308    0.07692307692308             2
   -0.42857142857143    0.07692307692308    0.07692307692308             2
   -0.35714285714285    0.07692307692308    0.07692307692308             2
   -0.28571428571428    0.07692307692308    0.07692307692308             2
   -0.21428571428572    0.07692307692308    0.07692307692308             2
   -0.14285714285715    0.07692307692308    0.07692307692308             2
   -0.07142857142857    0.07692307692308    0.07692307692308             2
   -0.00000000000000    0.15384615384615    0.07692307692307             4
    0.07142857142857    0.15384615384615    0.07692307692307             4
    0.14285714285715    0.15384615384615    0.07692307692307             4
    0.21428571428572    0.15384615384615    0.07692307692307             4
    0.28571428571428    0.15384615384615    0.07692307692307             4
    0.35714285714285    0.15384615384615    0.07692307692307             4
    0.42857142857143    0.15384615384615    0.07692307692307             4
    0.50000000000000    0.15384615384615    0.07692307692307             4
   -0.42857142857143    0.15384615384615    0.07692307692307             4
   -0.35714285714285    0.15384615384615    0.07692307692307             4
   -0.28571428571428    0.15384615384615    0.07692307692307             4
   -0.21428571428572    0.15384615384615    0.07692307692307             4
   -0.14285714285715    0.15384615384615    0.07692307692307             4
   -0.07142857142857    0.15384615384615    0.07692307692307             4
   -0.00000000000000    0.23076923076923    0.07692307692307             4
    0.07142857142857    0.23076923076923    0.07692307692307             4
    0.14285714285715    0.23076923076923    0.07692307692307             4
    0.21428571428572    0.23076923076923    0.07692307692307             4
    0.28571428571428    0.23076923076923    0.07692307692307             4
    0.35714285714285    0.23076923076923    0.07692307692307             4
    0.42857142857143    0.23076923076923    0.07692307692307             4
    0.50000000000000    0.23076923076923    0.07692307692307             4
   -0.42857142857143    0.23076923076923    0.07692307692307             4
   -0.35714285714285    0.23076923076923    0.07692307692307             4
   -0.28571428571428    0.23076923076923    0.07692307692307             4
   -0.21428571428572    0.23076923076923    0.07692307692307             4
   -0.14285714285715    0.23076923076923    0.07692307692307             4
   -0.07142857142857    0.23076923076923    0.07692307692307             4
   -0.00000000000000    0.30769230769231    0.07692307692308             4
    0.07142857142857    0.30769230769231    0.07692307692308             4
    0.14285714285715    0.30769230769231    0.07692307692308             4
    0.21428571428572    0.30769230769231    0.07692307692308             4
    0.28571428571428    0.30769230769231    0.07692307692308             4
    0.35714285714285    0.30769230769231    0.07692307692308             4
    0.42857142857143    0.30769230769231    0.07692307692308             4
    0.50000000000000    0.30769230769231    0.07692307692308             4
   -0.42857142857143    0.30769230769231    0.07692307692308             4
   -0.35714285714285    0.30769230769231    0.07692307692308             4
   -0.28571428571428    0.30769230769231    0.07692307692308             4
   -0.21428571428572    0.30769230769231    0.07692307692308             4
   -0.14285714285715    0.30769230769231    0.07692307692308             4
   -0.07142857142857    0.30769230769231    0.07692307692308             4
    0.00000000000000    0.38461538461539    0.07692307692308             4
    0.07142857142857    0.38461538461539    0.07692307692308             4
    0.14285714285715    0.38461538461539    0.07692307692308             4
    0.21428571428572    0.38461538461539    0.07692307692308             4
    0.28571428571428    0.38461538461539    0.07692307692308             4
    0.35714285714285    0.38461538461539    0.07692307692308             4
    0.42857142857143    0.38461538461539    0.07692307692308             4
    0.50000000000000    0.38461538461539    0.07692307692308             4
   -0.42857142857143    0.38461538461539    0.07692307692308             4
   -0.35714285714285    0.38461538461539    0.07692307692308             4
   -0.28571428571428    0.38461538461539    0.07692307692308             4
   -0.21428571428572    0.38461538461539    0.07692307692308             4
   -0.14285714285715    0.38461538461539    0.07692307692308             4
   -0.07142857142857    0.38461538461539    0.07692307692308             4
   -0.00000000000000    0.46153846153846    0.07692307692307             4
    0.07142857142857    0.46153846153846    0.07692307692307             4
    0.14285714285715    0.46153846153846    0.07692307692307             4
    0.21428571428572    0.46153846153846    0.07692307692307             4
    0.28571428571428    0.46153846153846    0.07692307692307             4
    0.35714285714285    0.46153846153846    0.07692307692307             4
    0.42857142857143    0.46153846153846    0.07692307692307             4
    0.50000000000000    0.46153846153846    0.07692307692307             4
   -0.42857142857143    0.46153846153846    0.07692307692307             4
   -0.35714285714285    0.46153846153846    0.07692307692307             4
   -0.28571428571428    0.46153846153846    0.07692307692307             4
   -0.21428571428572    0.46153846153846    0.07692307692307             4
   -0.14285714285715    0.46153846153846    0.07692307692307             4
   -0.07142857142857    0.46153846153846    0.07692307692307             4
    0.00000000000000   -0.46153846153846    0.07692307692307             4
    0.07142857142857   -0.46153846153846    0.07692307692307             4
    0.14285714285715   -0.46153846153846    0.07692307692307             4
    0.21428571428572   -0.46153846153846    0.07692307692307             4
    0.28571428571428   -0.46153846153846    0.07692307692307             4
    0.35714285714285   -0.46153846153846    0.07692307692307             4
    0.42857142857143   -0.46153846153846    0.07692307692307             4
    0.50000000000000   -0.46153846153846    0.07692307692307             4
   -0.42857142857143   -0.46153846153846    0.07692307692307             4
   -0.35714285714285   -0.46153846153846    0.07692307692307             4
   -0.28571428571428   -0.46153846153846    0.07692307692307             4
   -0.21428571428572   -0.46153846153846    0.07692307692307             4
   -0.14285714285715   -0.46153846153846    0.07692307692307             4
   -0.07142857142857   -0.46153846153846    0.07692307692307             4
   -0.00000000000000   -0.38461538461539    0.07692307692308             4
    0.07142857142857   -0.38461538461539    0.07692307692308             4
    0.14285714285715   -0.38461538461539    0.07692307692308             4
    0.21428571428572   -0.38461538461539    0.07692307692308             4
    0.28571428571428   -0.38461538461539    0.07692307692308             4
    0.35714285714285   -0.38461538461539    0.07692307692308             4
    0.42857142857143   -0.38461538461539    0.07692307692308             4
    0.50000000000000   -0.38461538461539    0.07692307692308             4
   -0.42857142857143   -0.38461538461539    0.07692307692308             4
   -0.35714285714285   -0.38461538461539    0.07692307692308             4
   -0.28571428571428   -0.38461538461539    0.07692307692308             4
   -0.21428571428572   -0.38461538461539    0.07692307692308             4
   -0.14285714285715   -0.38461538461539    0.07692307692308             4
   -0.07142857142857   -0.38461538461539    0.07692307692308             4
    0.00000000000000   -0.30769230769231    0.07692307692308             4
    0.07142857142857   -0.30769230769231    0.07692307692308             4
    0.14285714285715   -0.30769230769231    0.07692307692308             4
    0.21428571428572   -0.30769230769231    0.07692307692308             4
    0.28571428571428   -0.30769230769231    0.07692307692308             4
    0.35714285714285   -0.30769230769231    0.07692307692308             4
    0.42857142857143   -0.30769230769231    0.07692307692308             4
    0.50000000000000   -0.30769230769231    0.07692307692308             4
   -0.42857142857143   -0.30769230769231    0.07692307692308             4
   -0.35714285714285   -0.30769230769231    0.07692307692308             4
   -0.28571428571428   -0.30769230769231    0.07692307692308             4
   -0.21428571428572   -0.30769230769231    0.07692307692308             4
   -0.14285714285715   -0.30769230769231    0.07692307692308             4
   -0.07142857142857   -0.30769230769231    0.07692307692308             4
    0.00000000000000   -0.23076923076923    0.07692307692307             4
    0.07142857142857   -0.23076923076923    0.07692307692307             4
    0.14285714285715   -0.23076923076923    0.07692307692307             4
    0.21428571428572   -0.23076923076923    0.07692307692307             4
    0.28571428571428   -0.23076923076923    0.07692307692307             4
    0.35714285714285   -0.23076923076923    0.07692307692307             4
    0.42857142857143   -0.23076923076923    0.07692307692307             4
    0.50000000000000   -0.23076923076923    0.07692307692307             4
   -0.42857142857143   -0.23076923076923    0.07692307692307             4
   -0.35714285714285   -0.23076923076923    0.07692307692307             4
   -0.28571428571428   -0.23076923076923    0.07692307692307             4
   -0.21428571428572   -0.23076923076923    0.07692307692307             4
   -0.14285714285715   -0.23076923076923    0.07692307692307             4
   -0.07142857142857   -0.23076923076923    0.07692307692307             4
    0.00000000000000   -0.15384615384615    0.07692307692307             4
    0.07142857142857   -0.15384615384615    0.07692307692307             4
    0.14285714285715   -0.15384615384615    0.07692307692307             4
    0.21428571428572   -0.15384615384615    0.07692307692307             4
    0.28571428571428   -0.15384615384615    0.07692307692307             4
    0.35714285714285   -0.15384615384615    0.07692307692307             4
    0.42857142857143   -0.15384615384615    0.07692307692307             4
    0.50000000000000   -0.15384615384615    0.07692307692307             4
   -0.42857142857143   -0.15384615384615    0.07692307692307             4
   -0.35714285714285   -0.15384615384615    0.07692307692307             4
   -0.28571428571428   -0.15384615384615    0.07692307692307             4
   -0.21428571428572   -0.15384615384615    0.07692307692307             4
   -0.14285714285715   -0.15384615384615    0.07692307692307             4
   -0.07142857142857   -0.15384615384615    0.07692307692307             4
   -0.00000000000000   -0.07692307692308    0.07692307692308             2
    0.07142857142857   -0.07692307692308    0.07692307692308             4
    0.14285714285715   -0.07692307692308    0.07692307692308             4
    0.21428571428572   -0.07692307692308    0.07692307692308             4
    0.28571428571428   -0.07692307692308    0.07692307692308             4
    0.35714285714285   -0.07692307692308    0.07692307692308             4
    0.42857142857143   -0.07692307692308    0.07692307692308             4
    0.50000000000000   -0.07692307692308    0.07692307692308             2
    0.00000000000000    0.15384615384615    0.15384615384615             2
    0.07142857142857    0.15384615384615    0.15384615384615             2
    0.14285714285715    0.15384615384615    0.15384615384615             2
    0.21428571428572    0.15384615384615    0.15384615384615             2
    0.28571428571428    0.15384615384615    0.15384615384615             2
    0.35714285714285    0.15384615384615    0.15384615384615             2
    0.42857142857143    0.15384615384615    0.15384615384615             2
    0.50000000000000    0.15384615384615    0.15384615384615             2
   -0.42857142857143    0.15384615384615    0.15384615384615             2
   -0.35714285714285    0.15384615384615    0.15384615384615             2
   -0.28571428571428    0.15384615384615    0.15384615384615             2
   -0.21428571428572    0.15384615384615    0.15384615384615             2
   -0.14285714285715    0.15384615384615    0.15384615384615             2
   -0.07142857142857    0.15384615384615    0.15384615384615             2
    0.00000000000000    0.23076923076923    0.15384615384615             4
    0.07142857142857    0.23076923076923    0.15384615384615             4
    0.14285714285715    0.23076923076923    0.15384615384615             4
    0.21428571428572    0.23076923076923    0.15384615384615             4
    0.28571428571428    0.23076923076923    0.15384615384615             4
    0.35714285714285    0.23076923076923    0.15384615384615             4
    0.42857142857143    0.23076923076923    0.15384615384615             4
    0.50000000000000    0.23076923076923    0.15384615384615             4
   -0.42857142857143    0.23076923076923    0.15384615384615             4
   -0.35714285714285    0.23076923076923    0.15384615384615             4
   -0.28571428571428    0.23076923076923    0.15384615384615             4
   -0.21428571428572    0.23076923076923    0.15384615384615             4
   -0.14285714285715    0.23076923076923    0.15384615384615             4
   -0.07142857142857    0.23076923076923    0.15384615384615             4
    0.00000000000000    0.30769230769231    0.15384615384616             4
    0.07142857142857    0.30769230769231    0.15384615384616             4
    0.14285714285715    0.30769230769231    0.15384615384616             4
    0.21428571428572    0.30769230769231    0.15384615384616             4
    0.28571428571428    0.30769230769231    0.15384615384616             4
    0.35714285714285    0.30769230769231    0.15384615384616             4
    0.42857142857143    0.30769230769231    0.15384615384616             4
    0.50000000000000    0.30769230769231    0.15384615384616             4
   -0.42857142857143    0.30769230769231    0.15384615384616             4
   -0.35714285714285    0.30769230769231    0.15384615384616             4
   -0.28571428571428    0.30769230769231    0.15384615384616             4
   -0.21428571428572    0.30769230769231    0.15384615384616             4
   -0.14285714285715    0.30769230769231    0.15384615384616             4
   -0.07142857142857    0.30769230769231    0.15384615384616             4
    0.00000000000000    0.38461538461539    0.15384615384615             4
    0.07142857142857    0.38461538461539    0.15384615384615             4
    0.14285714285715    0.38461538461539    0.15384615384615             4
    0.21428571428572    0.38461538461539    0.15384615384615             4
    0.28571428571428    0.38461538461539    0.15384615384615             4
    0.35714285714285    0.38461538461539    0.15384615384615             4
    0.42857142857143    0.38461538461539    0.15384615384615             4
    0.50000000000000    0.38461538461539    0.15384615384615             4
   -0.42857142857143    0.38461538461539    0.15384615384615             4
   -0.35714285714285    0.38461538461539    0.15384615384615             4
   -0.28571428571428    0.38461538461539    0.15384615384615             4
   -0.21428571428572    0.38461538461539    0.15384615384615             4
   -0.14285714285715    0.38461538461539    0.15384615384615             4
   -0.07142857142857    0.38461538461539    0.15384615384615             4
   -0.00000000000000    0.46153846153846    0.15384615384615             4
    0.07142857142857    0.46153846153846    0.15384615384615             4
    0.14285714285715    0.46153846153846    0.15384615384615             4
    0.21428571428572    0.46153846153846    0.15384615384615             4
    0.28571428571428    0.46153846153846    0.15384615384615             4
    0.35714285714285    0.46153846153846    0.15384615384615             4
    0.42857142857143    0.46153846153846    0.15384615384615             4
    0.50000000000000    0.46153846153846    0.15384615384615             4
   -0.42857142857143    0.46153846153846    0.15384615384615             4
   -0.35714285714285    0.46153846153846    0.15384615384615             4
   -0.28571428571428    0.46153846153846    0.15384615384615             4
   -0.21428571428572    0.46153846153846    0.15384615384615             4
   -0.14285714285715    0.46153846153846    0.15384615384615             4
   -0.07142857142857    0.46153846153846    0.15384615384615             4
    0.00000000000000   -0.46153846153846    0.15384615384615             4
    0.07142857142857   -0.46153846153846    0.15384615384615             4
    0.14285714285715   -0.46153846153846    0.15384615384615             4
    0.21428571428572   -0.46153846153846    0.15384615384615             4
    0.28571428571428   -0.46153846153846    0.15384615384615             4
    0.35714285714285   -0.46153846153846    0.15384615384615             4
    0.42857142857143   -0.46153846153846    0.15384615384615             4
    0.50000000000000   -0.46153846153846    0.15384615384615             4
   -0.42857142857143   -0.46153846153846    0.15384615384615             4
   -0.35714285714285   -0.46153846153846    0.15384615384615             4
   -0.28571428571428   -0.46153846153846    0.15384615384615             4
   -0.21428571428572   -0.46153846153846    0.15384615384615             4
   -0.14285714285715   -0.46153846153846    0.15384615384615             4
   -0.07142857142857   -0.46153846153846    0.15384615384615             4
    0.00000000000000   -0.38461538461539    0.15384615384616             4
    0.07142857142857   -0.38461538461539    0.15384615384616             4
    0.14285714285715   -0.38461538461539    0.15384615384616             4
    0.21428571428572   -0.38461538461539    0.15384615384616             4
    0.28571428571428   -0.38461538461539    0.15384615384616             4
    0.35714285714285   -0.38461538461539    0.15384615384616             4
    0.42857142857143   -0.38461538461539    0.15384615384616             4
    0.50000000000000   -0.38461538461539    0.15384615384616             4
   -0.42857142857143   -0.38461538461539    0.15384615384616             4
   -0.35714285714285   -0.38461538461539    0.15384615384616             4
   -0.28571428571428   -0.38461538461539    0.15384615384616             4
   -0.21428571428572   -0.38461538461539    0.15384615384616             4
   -0.14285714285715   -0.38461538461539    0.15384615384616             4
   -0.07142857142857   -0.38461538461539    0.15384615384616             4
    0.00000000000000   -0.30769230769231    0.15384615384615             4
    0.07142857142857   -0.30769230769231    0.15384615384615             4
    0.14285714285715   -0.30769230769231    0.15384615384615             4
    0.21428571428572   -0.30769230769231    0.15384615384615             4
    0.28571428571428   -0.30769230769231    0.15384615384615             4
    0.35714285714285   -0.30769230769231    0.15384615384615             4
    0.42857142857143   -0.30769230769231    0.15384615384615             4
    0.50000000000000   -0.30769230769231    0.15384615384615             4
   -0.42857142857143   -0.30769230769231    0.15384615384615             4
   -0.35714285714285   -0.30769230769231    0.15384615384615             4
   -0.28571428571428   -0.30769230769231    0.15384615384615             4
   -0.21428571428572   -0.30769230769231    0.15384615384615             4
   -0.14285714285715   -0.30769230769231    0.15384615384615             4
   -0.07142857142857   -0.30769230769231    0.15384615384615             4
   -0.00000000000000   -0.23076923076923    0.15384615384615             4
    0.07142857142857   -0.23076923076923    0.15384615384615             4
    0.14285714285715   -0.23076923076923    0.15384615384615             4
    0.21428571428572   -0.23076923076923    0.15384615384615             4
    0.28571428571428   -0.23076923076923    0.15384615384615             4
    0.35714285714285   -0.23076923076923    0.15384615384615             4
    0.42857142857143   -0.23076923076923    0.15384615384615             4
    0.50000000000000   -0.23076923076923    0.15384615384615             4
   -0.42857142857143   -0.23076923076923    0.15384615384615             4
   -0.35714285714285   -0.23076923076923    0.15384615384615             4
   -0.28571428571428   -0.23076923076923    0.15384615384615             4
   -0.21428571428572   -0.23076923076923    0.15384615384615             4
   -0.14285714285715   -0.23076923076923    0.15384615384615             4
   -0.07142857142857   -0.23076923076923    0.15384615384615             4
   -0.00000000000000   -0.15384615384615    0.15384615384615             2
    0.07142857142857   -0.15384615384615    0.15384615384615             4
    0.14285714285715   -0.15384615384615    0.15384615384615             4
    0.21428571428572   -0.15384615384615    0.15384615384615             4
    0.28571428571428   -0.15384615384615    0.15384615384615             4
    0.35714285714285   -0.15384615384615    0.15384615384615             4
    0.42857142857143   -0.15384615384615    0.15384615384615             4
    0.50000000000000   -0.15384615384615    0.15384615384615             2
    0.00000000000000    0.23076923076923    0.23076923076923             2
    0.07142857142857    0.23076923076923    0.23076923076923             2
    0.14285714285715    0.23076923076923    0.23076923076923             2
    0.21428571428572    0.23076923076923    0.23076923076923             2
    0.28571428571428    0.23076923076923    0.23076923076923             2
    0.35714285714285    0.23076923076923    0.23076923076923             2
    0.42857142857143    0.23076923076923    0.23076923076923             2
    0.50000000000000    0.23076923076923    0.23076923076923             2
   -0.42857142857143    0.23076923076923    0.23076923076923             2
   -0.35714285714285    0.23076923076923    0.23076923076923             2
   -0.28571428571428    0.23076923076923    0.23076923076923             2