       N       E                     dE             d eps       ncg     rms          rms(c)
DAV:   1     0.601445785921E+00    0.60145E+00   -0.71186E+02 15630   0.348E+02
DAV:   2    -0.152105934757E+01   -0.21225E+01   -0.20747E+01 21960   0.485E+01
DAV:   3    -0.159362606578E+01   -0.72567E-01   -0.72377E-01 19362   0.622E+00
DAV:   4    -0.159497472015E+01   -0.13487E-02   -0.13459E-02 23148   0.756E-01
DAV:   5    -0.159498123422E+01   -0.65141E-05   -0.65108E-05 19944   0.388E-02    0.545E+00
RMM:   6    -0.182390239098E+01   -0.22892E+00   -0.59784E-02 18679   0.231E+00    0.260E+00
RMM:   7    -0.189573483905E+01   -0.71832E-01   -0.18249E-02 17537   0.142E+00    0.160E-01
RMM:   8    -0.189715966941E+01   -0.14248E-02   -0.83684E-03 19445   0.844E-01    0.909E-02
RMM:   9    -0.189745624018E+01   -0.29657E-03   -0.23510E-03 23559   0.453E-01    0.345E-02
RMM:  10    -0.189779981131E+01   -0.34357E-03   -0.13272E-03 21094   0.347E-01    0.283E-02
RMM:  11    -0.189785262292E+01   -0.52812E-04   -0.28993E-04 23584   0.143E-01    0.228E-02
RMM:  12    -0.189786536550E+01   -0.12743E-04   -0.13294E-04 22209   0.107E-01    0.800E-03
RMM:  13    -0.189787735934E+01   -0.11994E-04   -0.38772E-05 21242   0.603E-02    0.630E-03
RMM:  14    -0.189787969270E+01   -0.23334E-05   -0.14395E-05 14983   0.374E-02
   1 F= -.18978797E+01 E0= -.18978797E+01  d E =0.000000E+00  mag=    -0.0001
