    9    9    1    2
  0.1066221E+02  0.4941830E-09  0.5021461E-09  0.5021461E-09  0.5000000E-15
  1.000000000000000E-004
  CAR 
 unknown system                          
     51    116     40
 
  0.0000000E+00  0.0000000E+00  0.0000000E+00  0.2551020E-02
    1      -43.695709    -43.695488   1.000000   1.000000
    2      -26.280146    -26.279633   1.000000   1.000000
    3      -25.141925    -25.140284   1.000000   1.000000
    4      -25.132464    -25.134642   1.000000   1.000000
    5      -24.493340    -24.490844   1.000000   1.000000
    6      -14.034755    -14.034564   1.000000   1.000000
    7      -13.276948    -13.280073   1.000000   1.000000
    8      -13.221937    -13.216185   1.000000   1.000000
    9      -12.229839    -12.229345   1.000000   1.000000
   10       -8.223323     -8.223204   1.000000   1.000000
   11       -7.823728     -7.822902   1.000000   1.000000
   12       -7.618913     -7.618781   1.000000   1.000000
   13       -7.192408     -7.192445   1.000000   1.000000
   14       -6.513699     -6.511760   1.000000   1.000000
   15       -5.942514     -5.940235   1.000000   1.000000
   16       -5.815152     -5.816440   1.000000   1.000000
   17       -5.798629     -5.797664   1.000000   1.000000
   18       -3.965706     -3.962163   1.000000   1.000000
   19       -3.937439     -3.937978   1.000000   1.000000
   20       -3.797295     -3.796061   1.000000   1.000000
   21       -3.642349     -3.642358   1.000000   1.000000
   22       -1.143852     -1.143777   1.000000   1.000000
   23       -1.031318     -1.029757   1.000000   1.000000
   24       -0.371945     -0.372165   1.000000   1.000000
   25        0.459190      0.461667   1.000000   1.000000
   26        2.206925      2.211170   0.000000   0.000000
   27        2.289833      2.291274   0.000000   0.000000
   28        2.340213      2.339838   0.000000   0.000000
   29        2.624127      2.623764   0.000000   0.000000
   30        8.646418      8.644879   0.000000   0.000000
   31        8.829160      8.831931   0.000000   0.000000
   32        9.722411      9.723182   0.000000   0.000000
   33       10.648536     10.647169   0.000000   0.000000
   34       10.967067     10.968807   0.000000   0.000000
   35       12.504287     12.504364   0.000000   0.000000
   36       13.100857     13.100476   0.000000   0.000000
   37       13.601225     13.602328   0.000000   0.000000
   38       13.870160     13.870338   0.000000   0.000000
   39       14.301748     14.303682   0.000000   0.000000
   40       14.859216     14.871198   0.000000   0.000000
 
  0.1250000E+00 -0.2129435E-16 -0.4901016E-14  0.5102041E-02
    1      -43.695680    -43.695460   1.000000   1.000000
    2      -26.277272    -26.276757   1.000000   1.000000
    3      -25.142906    -25.141259   1.000000   1.000000
    4      -25.135199    -25.137378   1.000000   1.000000
    5      -24.493474    -24.490987   1.000000   1.000000
    6      -14.108510    -14.108269   1.000000   1.000000
    7      -13.234838    -13.237975   1.000000   1.000000
    8      -13.188519    -13.182836   1.000000   1.000000
    9      -12.229952    -12.229422   1.000000   1.000000
   10       -8.204794     -8.204691   1.000000   1.000000
   11       -7.844861     -7.844031   1.000000   1.000000
   12       -7.496467     -7.496367   1.000000   1.000000
   13       -7.187940     -7.187930   1.000000   1.000000
   14       -6.533370     -6.531630   1.000000   1.000000
   15       -6.080319     -6.078165   1.000000   1.000000
   16       -5.863861     -5.864927   1.000000   1.000000
   17       -5.719913     -5.718854   1.000000   1.000000
   18       -3.965823     -3.962309   1.000000   1.000000
   19       -3.934950     -3.935486   1.000000   1.000000
   20       -3.792846     -3.791601   1.000000   1.000000
   21       -3.639298     -3.639300   1.000000   1.000000
   22       -1.140019     -1.139939   1.000000   1.000000
   23       -0.997287     -0.995764   1.000000   1.000000
   24       -0.377292     -0.377478   1.000000   1.000000
   25        0.412934      0.415371   1.000000   1.000000
   26        2.203433      2.207759   0.000000   0.000000
   27        2.275280      2.276424   0.000000   0.000000
   28        2.347398      2.347264   0.000000   0.000000
   29        2.619416      2.619078   0.000000   0.000000
   30        8.917491      8.915948   0.000000   0.000000
   31        8.921449      8.923870   0.000000   0.000000
   32        9.206644      9.207405   0.000000   0.000000
   33       10.667807     10.667015   0.000000   0.000000
   34       10.967862     10.969379   0.000000   0.000000
   35       12.493757     12.493798   0.000000   0.000000
   36       13.062608     13.062896   0.000000   0.000000
   37       13.166366     13.167638   0.000000   0.000000
   38       13.985847     13.985855   0.000000   0.000000
   39       14.443742     14.455532   0.000000   0.000000
   40       15.021538     15.374134   0.000000   0.000000
 
  0.2500000E+00 -0.2044578E-16  0.4716200E-14  0.5102041E-02
    1      -43.695608    -43.695387   1.000000   1.000000
    2      -26.270347    -26.269827   1.000000   1.000000
    3      -25.145011    -25.143879   1.000000   1.000000
    4      -25.141700    -25.143347   1.000000   1.000000
    5      -24.493771    -24.491303   1.000000   1.000000
    6      -14.276760    -14.276445   1.000000   1.000000
    7      -13.129913    -13.133083   1.000000   1.000000
    8      -13.099815    -13.094203   1.000000   1.000000
    9      -12.238553    -12.237983   1.000000   1.000000
   10       -8.185700     -8.185617   1.000000   1.000000
   11       -7.888835     -7.888001   1.000000   1.000000
   12       -7.288367     -7.288504   1.000000   1.000000
   13       -7.048772     -7.048514   1.000000   1.000000
   14       -6.610447     -6.609328   1.000000   1.000000
   15       -6.281510     -6.279216   1.000000   1.000000
   16       -5.966669     -5.967044   1.000000   1.000000
   17       -5.683922     -5.683070   1.000000   1.000000
   18       -3.965591     -3.962143   1.000000   1.000000
   19       -3.927321     -3.927858   1.000000   1.000000
   20       -3.782506     -3.781226   1.000000   1.000000
   21       -3.632230     -3.632217   1.000000   1.000000
   22       -1.120604     -1.120503   1.000000   1.000000
   23       -0.896648     -0.895246   1.000000   1.000000
   24       -0.386461     -0.386562   1.000000   1.000000
   25        0.303225      0.305605   1.000000   1.000000
   26        2.196920      2.201455   0.000000   0.000000
   27        2.254922      2.255911   0.000000   0.000000
   28        2.350178      2.350052   0.000000   0.000000
   29        2.606747      2.606445   0.000000   0.000000
   30        7.992945      7.993550   0.000000   0.000000
   31        9.457208      9.459298   0.000000   0.000000
   32        9.580289      9.578756   0.000000   0.000000
   33       10.492077     10.492473   0.000000   0.000000
   34       11.141284     11.142044   0.000000   0.000000
   35       12.516641     12.516681   0.000000   0.000000
   36       12.534240     12.535089   0.000000   0.000000
   37       13.116040     13.116361   0.000000   0.000000
   38       13.683580     13.684087   0.000000   0.000000
   39       14.737649     14.793065   0.000000   0.000000
   40       14.860061     14.860782   0.000000   0.000000
 
  0.3750000E+00 -0.3436344E-16 -0.1770282E-15  0.5102041E-02
    1      -43.695514    -43.695294   1.000000   1.000000
    2      -26.263387    -26.262863   1.000000   1.000000
    3      -25.148139    -25.150319   1.000000   1.000000
    4      -25.147077    -25.145399   1.000000   1.000000
    5      -24.494079    -24.491630   1.000000   1.000000
    6      -14.433180    -14.432824   1.000000   1.000000
    7      -13.020156    -13.023363   1.000000   1.000000
    8      -12.995877    -12.990188   1.000000   1.000000
    9      -12.263809    -12.263311   1.000000   1.000000
   10       -8.176434     -8.176363   1.000000   1.000000
   11       -7.920266     -7.919433   1.000000   1.000000
   12       -7.244481     -7.244624   1.000000   1.000000
   13       -6.742637     -6.742196   1.000000   1.000000
   14       -6.707897     -6.707734   1.000000   1.000000
   15       -6.447625     -6.445110   1.000000   1.000000
   16       -6.035843     -6.035459   1.000000   1.000000
   17       -5.714530     -5.713867   1.000000   1.000000
   18       -3.964704     -3.961314   1.000000   1.000000
   19       -3.917817     -3.918365   1.000000   1.000000
   20       -3.772570     -3.771244   1.000000   1.000000
   21       -3.625615     -3.625589   1.000000   1.000000
   22       -1.088817     -1.088691   1.000000   1.000000
   23       -0.773829     -0.772599   1.000000   1.000000
   24       -0.391041     -0.391051   1.000000   1.000000
   25        0.196713      0.199091   1.000000   1.000000
   26        2.193327      2.198107   0.000000   0.000000
   27        2.244483      2.245517   0.000000   0.000000
   28        2.343335      2.343000   0.000000   0.000000
   29        2.591746      2.591440   0.000000   0.000000
   30        7.100475      7.100957   0.000000   0.000000
   31        9.889205      9.890511   0.000000   0.000000
   32       10.167023     10.165706   0.000000   0.000000
   33       10.407310     10.408437   0.000000   0.000000
   34       11.201355     11.202286   0.000000   0.000000
   35       12.396197     12.396631   0.000000   0.000000
   36       12.399330     12.399696   0.000000   0.000000
   37       13.282763     13.282676   0.000000   0.000000
   38       13.523563     13.524201   0.000000   0.000000
   39       14.230346     14.229926   0.000000   0.000000
   40       14.838610     14.811908   0.000000   0.000000
 
  0.5000000E+00 -0.4306047E-16 -0.5066858E-14  0.2551020E-02
    1      -43.695474    -43.695253   1.000000   1.000000
    2      -26.260456    -26.259930   1.000000   1.000000
    3      -25.150871    -25.153051   1.000000   1.000000
    4      -25.147857    -25.146172   1.000000   1.000000
    5      -24.494205    -24.491765   1.000000   1.000000
    6      -14.494964    -14.494597   1.000000   1.000000
    7      -12.973239    -12.976463   1.000000   1.000000
    8      -12.946189    -12.940396   1.000000   1.000000
    9      -12.281526    -12.281124   1.000000   1.000000
   10       -8.171780     -8.171715   1.000000   1.000000
   11       -7.928325     -7.927494   1.000000   1.000000
   12       -7.231415     -7.231554   1.000000   1.000000
   13       -6.815322     -6.815117   1.000000   1.000000
   14       -6.567243     -6.567134   1.000000   1.000000
   15       -6.498405     -6.495796   1.000000   1.000000
   16       -6.053723     -6.053068   1.000000   1.000000
   17       -5.739655     -5.739064   1.000000   1.000000
   18       -3.964152     -3.960785   1.000000   1.000000
   19       -3.913487     -3.914043   1.000000   1.000000
   20       -3.768539     -3.767192   1.000000   1.000000
   21       -3.623013     -3.622982   1.000000   1.000000
   22       -1.072360     -1.072223   1.000000   1.000000
   23       -0.717576     -0.716440   1.000000   1.000000
   24       -0.392167     -0.392135   1.000000   1.000000
   25        0.153820      0.156218   1.000000   1.000000
   26        2.192793      2.197693   0.000000   0.000000
   27        2.242229      2.243330   0.000000   0.000000
   28        2.338437      2.337961   0.000000   0.000000
   29        2.584690      2.584367   0.000000   0.000000
   30        6.762812      6.763266   0.000000   0.000000
   31       10.005539     10.006290   0.000000   0.000000
   32       10.310594     10.309537   0.000000   0.000000
   33       10.562473     10.563766   0.000000   0.000000
   34       11.052206     11.053657   0.000000   0.000000
   35       12.390880     12.391343   0.000000   0.000000
   36       12.755926     12.755881   0.000000   0.000000
   37       13.154334     13.155210   0.000000   0.000000
   38       13.649499     13.649698   0.000000   0.000000
   39       13.788246     13.790366   0.000000   0.000000
   40       14.540355     14.581884   0.000000   0.000000
 
 -0.5397110E-18  0.1428571E+00 -0.2421019E-14  0.1020408E-01
    1      -43.695709    -43.695488   1.000000   1.000000
    2      -26.265519    -26.264990   1.000000   1.000000
    3      -25.185133    -25.185705   1.000000   1.000000
    4      -25.098801    -25.098772   1.000000   1.000000
    5      -24.504639    -24.502156   1.000000   1.000000
    6      -14.027088    -14.026935   1.000000   1.000000
    7      -13.298673    -13.299829   1.000000   1.000000
    8      -13.206887    -13.203042   1.000000   1.000000
    9      -12.243513    -12.243047   1.000000   1.000000
   10       -8.177506     -8.177367   1.000000   1.000000
   11       -7.791535     -7.790796   1.000000   1.000000
   12       -7.543345     -7.543211   1.000000   1.000000
   13       -7.126574     -7.126576   1.000000   1.000000
   14       -6.546250     -6.544356   1.000000   1.000000
   15       -5.987356     -5.985670   1.000000   1.000000
   16       -5.832704     -5.833324   1.000000   1.000000
   17       -5.777021     -5.776140   1.000000   1.000000
   18       -4.098021     -4.095165   1.000000   1.000000
   19       -3.983118     -3.982720   1.000000   1.000000
   20       -3.819984     -3.819160   1.000000   1.000000
   21       -3.666788     -3.666566   1.000000   1.000000
   22       -1.104948     -1.104630   1.000000   1.000000
   23       -0.932453     -0.931246   1.000000   1.000000
   24       -0.300852     -0.301029   1.000000   1.000000
   25        0.406549      0.408883   1.000000   1.000000
   26        2.080003      2.083836   0.000000   0.000000
   27        2.246730      2.248298   0.000000   0.000000
   28        2.343998      2.344037   0.000000   0.000000
   29        2.586166      2.585912   0.000000   0.000000
   30        8.700545      8.699097   0.000000   0.000000
   31        8.812171      8.814922   0.000000   0.000000
   32        9.743346      9.743951   0.000000   0.000000
   33       10.582673     10.581659   0.000000   0.000000
   34       11.030840     11.032298   0.000000   0.000000
   35       12.583793     12.583733   0.000000   0.000000
   36       13.178446     13.178457   0.000000   0.000000
   37       13.398400     13.399254   0.000000   0.000000
   38       13.919926     13.920168   0.000000   0.000000
   39       14.374829     14.374356   0.000000   0.000000
   40       14.943456     14.940476   0.000000   0.000000
 
  0.1250000E+00  0.1428571E+00  0.1121932E-15  0.1020408E-01
    1      -43.695687    -43.695467   1.000000   1.000000
    2      -26.265003    -26.264474   1.000000   1.000000
    3      -25.184862    -25.185404   1.000000   1.000000
    4      -25.099335    -25.099331   1.000000   1.000000
    5      -24.505216    -24.502735   1.000000   1.000000
    6      -14.040484    -14.040279   1.000000   1.000000
    7      -13.315486    -13.316713   1.000000   1.000000
    8      -13.182352    -13.178470   1.000000   1.000000
    9      -12.236043    -12.235587   1.000000   1.000000
   10       -8.170918     -8.170790   1.000000   1.000000
   11       -7.785424     -7.784693   1.000000   1.000000
   12       -7.528025     -7.527867   1.000000   1.000000
   13       -7.146672     -7.146681   1.000000   1.000000
   14       -6.543285     -6.541357   1.000000   1.000000
   15       -6.009259     -6.007490   1.000000   1.000000
   16       -5.836230     -5.837128   1.000000   1.000000
   17       -5.760452     -5.759429   1.000000   1.000000
   18       -4.107725     -4.104927   1.000000   1.000000
   19       -3.971975     -3.971589   1.000000   1.000000
   20       -3.819835     -3.818899   1.000000   1.000000
   21       -3.669365     -3.669170   1.000000   1.000000
   22       -1.088999     -1.088671   1.000000   1.000000
   23       -0.922974     -0.921767   1.000000   1.000000
   24       -0.312395     -0.312534   1.000000   1.000000
   25        0.396662      0.399068   1.000000   1.000000
   26        2.092404      2.096139   0.000000   0.000000
   27        2.219908      2.221282   0.000000   0.000000
   28        2.352271      2.352376   0.000000   0.000000
   29        2.587216      2.587014   0.000000   0.000000
   30        8.583434      8.582841   0.000000   0.000000
   31        8.948405      8.950336   0.000000   0.000000
   32        9.561864      9.562377   0.000000   0.000000
   33       10.744970     10.743965   0.000000   0.000000
   34       11.014640     11.016254   0.000000   0.000000
   35       12.599213     12.599258   0.000000   0.000000
   36       13.127766     13.128126   0.000000   0.000000
   37       13.479563     13.481138   0.000000   0.000000
   38       13.983324     13.983944   0.000000   0.000000
   39       14.233596     14.239633   0.000000   0.000000
   40       14.877249     14.883637   0.000000   0.000000
 
  0.2500000E+00  0.1428571E+00  0.2314616E-14  0.1020408E-01
    1      -43.695630    -43.695409   1.000000   1.000000
    2      -26.259732    -26.259199   1.000000   1.000000
    3      -25.187182    -25.187774   1.000000   1.000000
    4      -25.103557    -25.103490   1.000000   1.000000
    5      -24.505787    -24.503324   1.000000   1.000000
    6      -14.173377    -14.173074   1.000000   1.000000
    7      -13.262937    -13.263873   1.000000   1.000000
    8      -13.093554    -13.090060   1.000000   1.000000
    9      -12.237917    -12.237447   1.000000   1.000000
   10       -8.142107     -8.141995   1.000000   1.000000
   11       -7.810428     -7.809697   1.000000   1.000000
   12       -7.323867     -7.323835   1.000000   1.000000
   13       -7.119855     -7.119699   1.000000   1.000000
   14       -6.579896     -6.578307   1.000000   1.000000
   15       -6.182472     -6.180463   1.000000   1.000000
   16       -5.924115     -5.924906   1.000000   1.000000
   17       -5.708027     -5.707054   1.000000   1.000000
   18       -4.114205     -4.111458   1.000000   1.000000
   19       -3.958057     -3.957688   1.000000   1.000000
   20       -3.812878     -3.811865   1.000000   1.000000
   21       -3.665765     -3.665580   1.000000   1.000000
   22       -1.053690     -1.053466   1.000000   1.000000
   23       -0.863144     -0.861913   1.000000   1.000000
   24       -0.327888     -0.327927   1.000000   1.000000
   25        0.311065      0.313479   1.000000   1.000000
   26        2.093135      2.096789   0.000000   0.000000
   27        2.191432      2.192752   0.000000   0.000000
   28        2.355092      2.355221   0.000000   0.000000
   29        2.579999      2.579865   0.000000   0.000000
   30        8.505109      8.505738   0.000000   0.000000
   31        8.904047      8.904096   0.000000   0.000000
   32        9.488363      9.489252   0.000000   0.000000
   33       10.764414     10.764306   0.000000   0.000000
   34       11.090028     11.091071   0.000000   0.000000
   35       12.558698     12.558532   0.000000   0.000000
   36       12.881205     12.882012   0.000000   0.000000
   37       13.154426     13.154747   0.000000   0.000000
   38       13.851725     13.852552   0.000000   0.000000
   39       14.622016     14.633860   0.000000   0.000000
   40       14.918470     14.913377   0.000000   0.000000
 
  0.3750000E+00  0.1428571E+00 -0.2574293E-14  0.1020408E-01
    1      -43.695544    -43.695324   1.000000   1.000000
    2      -26.252815    -26.252278   1.000000   1.000000
    3      -25.190728    -25.191426   1.000000   1.000000
    4      -25.108663    -25.108473   1.000000   1.000000
    5      -24.505980    -24.503537   1.000000   1.000000
    6      -14.339920    -14.339569   1.000000   1.000000
    7      -13.157290    -13.158063   1.000000   1.000000
    8      -12.986226    -12.982869   1.000000   1.000000
    9      -12.260922    -12.260518   1.000000   1.000000
   10       -8.129512     -8.129405   1.000000   1.000000
   11       -7.847361     -7.846631   1.000000   1.000000
   12       -7.236071     -7.236154   1.000000   1.000000
   13       -6.821681     -6.821409   1.000000   1.000000
   14       -6.679356     -6.678451   1.000000   1.000000
   15       -6.359581     -6.357406   1.000000   1.000000
   16       -6.032763     -6.032753   1.000000   1.000000
   17       -5.716220     -5.715523   1.000000   1.000000
   18       -4.112803     -4.110073   1.000000   1.000000
   19       -3.948862     -3.948497   1.000000   1.000000
   20       -3.802925     -3.801922   1.000000   1.000000
   21       -3.658518     -3.658314   1.000000   1.000000
   22       -1.013527     -1.013355   1.000000   1.000000
   23       -0.760157     -0.759046   1.000000   1.000000
   24       -0.332181     -0.332114   1.000000   1.000000
   25        0.201981      0.204401   1.000000   1.000000
   26        2.084118      2.087760   0.000000   0.000000
   27        2.178345      2.179765   0.000000   0.000000
   28        2.349540      2.349648   0.000000   0.000000
   29        2.566329      2.566209   0.000000   0.000000
   30        7.495704      7.496205   0.000000   0.000000
   31        9.450156      9.450501   0.000000   0.000000
   32       10.088950     10.089211   0.000000   0.000000
   33       10.597697     10.598495   0.000000   0.000000
   34       11.199922     11.200573   0.000000   0.000000
   35       12.338778     12.339111   0.000000   0.000000
   36       12.566774     12.567580   0.000000   0.000000
   37       13.410549     13.410987   0.000000   0.000000
   38       13.672576     13.672441   0.000000   0.000000
   39       14.407164     14.410757   0.000000   0.000000
   40       14.782188     14.947670   0.000000   0.000000
 
  0.5000000E+00  0.1428571E+00 -0.5901146E-16  0.1020408E-01
    1      -43.695504    -43.695283   1.000000   1.000000
    2      -26.248309    -26.247768   1.000000   1.000000
    3      -25.193572    -25.194366   1.000000   1.000000
    4      -25.111677    -25.111383   1.000000   1.000000
    5      -24.505811    -24.503381   1.000000   1.000000
    6      -14.445068    -14.444708   1.000000   1.000000
    7      -13.057384    -13.058197   1.000000   1.000000
    8      -12.928019    -12.924520   1.000000   1.000000
    9      -12.287869    -12.287576   1.000000   1.000000
   10       -8.124131     -8.124035   1.000000   1.000000
   11       -7.878739     -7.878000   1.000000   1.000000
   12       -7.195855     -7.195943   1.000000   1.000000
   13       -6.792691     -6.792304   1.000000   1.000000
   14       -6.564246     -6.564233   1.000000   1.000000
   15       -6.478680     -6.476166   1.000000   1.000000
   16       -6.083584     -6.082978   1.000000   1.000000
   17       -5.732859     -5.732299   1.000000   1.000000
   18       -4.104579     -4.101830   1.000000   1.000000
   19       -3.949546     -3.949178   1.000000   1.000000
   20       -3.796785     -3.795856   1.000000   1.000000
   21       -3.651908     -3.651671   1.000000   1.000000
   22       -0.993445     -0.993277   1.000000   1.000000
   23       -0.682023     -0.681081   1.000000   1.000000
   24       -0.323411     -0.323273   1.000000   1.000000
   25        0.134145      0.136566   1.000000   1.000000
   26        2.071786      2.075569   0.000000   0.000000
   27        2.186667      2.188170   0.000000   0.000000
   28        2.340258      2.340338   0.000000   0.000000
   29        2.553666      2.553492   0.000000   0.000000
   30        6.908694      6.909158   0.000000   0.000000
   31        9.950969      9.951332   0.000000   0.000000
   32       10.250812     10.250758   0.000000   0.000000
   33       10.638439     10.639306   0.000000   0.000000
   34       11.055716     11.056940   0.000000   0.000000
   35       12.418851     12.419379   0.000000   0.000000
   36       12.682161     12.682455   0.000000   0.000000
   37       13.321469     13.321865   0.000000   0.000000
   38       13.637232     13.637610   0.000000   0.000000
   39       14.015993     14.019891   0.000000   0.000000
   40       14.677997     14.713926   0.000000   0.000000
 
 -0.3750000E+00  0.1428571E+00 -0.1445018E-16  0.1020408E-01
    1      -43.695517    -43.695297   1.000000   1.000000
    2      -26.248860    -26.248319   1.000000   1.000000
    3      -25.193946    -25.194765   1.000000   1.000000
    4      -25.111026    -25.110709   1.000000   1.000000
    5      -24.505190    -24.502758   1.000000   1.000000
    6      -14.435429    -14.435085   1.000000   1.000000
    7      -13.041764    -13.041980   1.000000   1.000000
    8      -12.956373    -12.953566   1.000000   1.000000
    9      -12.284591    -12.284196   1.000000   1.000000
   10       -8.128949     -8.128856   1.000000   1.000000
   11       -7.896630     -7.895877   1.000000   1.000000
   12       -7.171667     -7.171784   1.000000   1.000000
   13       -6.793195     -6.792843   1.000000   1.000000
   14       -6.589466     -6.589387   1.000000   1.000000
   15       -6.480096     -6.477626   1.000000   1.000000
   16       -6.080545     -6.079919   1.000000   1.000000
   17       -5.711659     -5.711069   1.000000   1.000000
   18       -4.095179     -4.092378   1.000000   1.000000
   19       -3.960118     -3.959751   1.000000   1.000000
   20       -3.798341     -3.797504   1.000000   1.000000
   21       -3.649367     -3.649105   1.000000   1.000000
   22       -1.012580     -1.012420   1.000000   1.000000
   23       -0.694254     -0.693298   1.000000   1.000000
   24       -0.312093     -0.311973   1.000000   1.000000
   25        0.143970      0.146310   1.000000   1.000000
   26        2.061312      2.065236   0.000000   0.000000
   27        2.211042      2.212625   0.000000   0.000000
   28        2.334119      2.334171   0.000000   0.000000
   29        2.552365      2.552138   0.000000   0.000000
   30        6.957345      6.957820   0.000000   0.000000
   31        9.914330      9.915422   0.000000   0.000000
   32       10.343904     10.343522   0.000000   0.000000
   33       10.533552     10.533700   0.000000   0.000000
   34       11.227321     11.228772   0.000000   0.000000
   35       12.225721     12.225914   0.000000   0.000000
   36       12.553583     12.553931   0.000000   0.000000
   37       13.289771     13.289274   0.000000   0.000000
   38       13.636731     13.637930   0.000000   0.000000
   39       14.141042     14.150964   0.000000   0.000000
   40       14.823903     14.874137   0.000000   0.000000
 
 -0.2500000E+00  0.1428571E+00  0.2186468E-14  0.1020408E-01
    1      -43.695580    -43.695359   1.000000   1.000000
    2      -26.254098    -26.253560   1.000000   1.000000
    3      -25.191529    -25.192290   1.000000   1.000000
    4      -25.107055    -25.106810   1.000000   1.000000
    5      -24.504609    -24.502160   1.000000   1.000000
    6      -14.314908    -14.314607   1.000000   1.000000
    7      -13.125356    -13.124588   1.000000   1.000000
    8      -13.042086    -13.040374   1.000000   1.000000
    9      -12.263776    -12.263238   1.000000   1.000000
   10       -8.139579     -8.139473   1.000000   1.000000
   11       -7.881259     -7.880500   1.000000   1.000000
   12       -7.183735     -7.183898   1.000000   1.000000
   13       -6.869155     -6.868873   1.000000   1.000000
   14       -6.686773     -6.685975   1.000000   1.000000
   15       -6.363289     -6.361048   1.000000   1.000000
   16       -6.027362     -6.027273   1.000000   1.000000
   17       -5.673326     -5.672582   1.000000   1.000000
   18       -4.090082     -4.087223   1.000000   1.000000
   19       -3.975031     -3.974659   1.000000   1.000000
   20       -3.805466     -3.804698   1.000000   1.000000
   21       -3.652407     -3.652142   1.000000   1.000000
   22       -1.057409     -1.057249   1.000000   1.000000
   23       -0.788286     -0.787165   1.000000   1.000000
   24       -0.305283     -0.305278   1.000000   1.000000
   25        0.225943      0.228182   1.000000   1.000000
   26        2.057422      2.061375   0.000000   0.000000
   27        2.238175      2.239876   0.000000   0.000000
   28        2.333180      2.333182   0.000000   0.000000
   29        2.563489      2.563244   0.000000   0.000000
   30        7.631686      7.632255   0.000000   0.000000
   31        9.453169      9.454494   0.000000   0.000000
   32       10.154457     10.153256   0.000000   0.000000
   33       10.591351     10.591830   0.000000   0.000000
   34       11.143308     11.144270   0.000000   0.000000
   35       12.050369     12.051167   0.000000   0.000000
   36       12.660765     12.660898   0.000000   0.000000
   37       13.229117     13.229506   0.000000   0.000000
   38       13.630511     13.631058   0.000000   0.000000
   39       14.737034     14.741546   0.000000   0.000000
   40       15.007590     15.013232   0.000000   0.000000
 
 -0.1250000E+00  0.1428571E+00  0.4738921E-14  0.1020408E-01
    1      -43.695653    -43.695432   1.000000   1.000000
    2      -26.260974    -26.260441   1.000000   1.000000
    3      -25.187872    -25.188532   1.000000   1.000000
    4      -25.101992    -25.101864   1.000000   1.000000
    5      -24.504366    -24.501896   1.000000   1.000000
    6      -14.144729    -14.144508   1.000000   1.000000
    7      -13.227000    -13.226971   1.000000   1.000000
    8      -13.148674    -13.146142   1.000000   1.000000
    9      -12.250801    -12.250273   1.000000   1.000000
   10       -8.152938     -8.152814   1.000000   1.000000
   11       -7.833419     -7.832664   1.000000   1.000000
   12       -7.337985     -7.337970   1.000000   1.000000
   13       -7.097309     -7.097187   1.000000   1.000000
   14       -6.588340     -6.586857   1.000000   1.000000
   15       -6.172368     -6.170346   1.000000   1.000000
   16       -5.923445     -5.924070   1.000000   1.000000
   17       -5.687517     -5.686554   1.000000   1.000000
   18       -4.091160     -4.088278   1.000000   1.000000
   19       -3.984780     -3.984391   1.000000   1.000000