       N       E                     dE             d eps       ncg     rms          rms(c)
DAV:   1     0.400174745346E+03    0.40017E+03   -0.25991E+04 10304   0.137E+03
DAV:   2    -0.383108943999E+01   -0.40401E+03   -0.37202E+03 11624   0.327E+02
DAV:   3    -0.558363154949E+02   -0.52005E+02   -0.51315E+02 14760   0.907E+01
DAV:   4    -0.633918002329E+02   -0.75555E+01   -0.74877E+01 18424   0.340E+01
DAV:   5    -0.641519806219E+02   -0.76018E+00   -0.75988E+00 14836   0.780E+00    0.211E+01
DAV:   6    -0.654855819613E+02   -0.13336E+01   -0.27856E+00 13666   0.655E+00    0.112E+01
DAV:   7    -0.667659815463E+02   -0.12804E+01   -0.72564E-01 12530   0.417E+00    0.594E+00
DAV:   8    -0.669986221835E+02   -0.23264E+00   -0.63832E-01 13364   0.301E+00    0.126E+00
DAV:   9    -0.670291686495E+02   -0.30546E-01   -0.80548E-02 15632   0.112E+00    0.495E-01
DAV:  10    -0.670331143591E+02   -0.39457E-02   -0.65132E-03 13194   0.380E-01    0.205E-01
DAV:  11    -0.670345620818E+02   -0.14477E-02   -0.19303E-03 12680   0.207E-01    0.931E-02
DAV:  12    -0.670348327150E+02   -0.27063E-03   -0.62340E-04 13008   0.106E-01    0.397E-02
DAV:  13    -0.670348760084E+02   -0.43293E-04   -0.90787E-05 12296   0.515E-02    0.205E-02
DAV:  14    -0.670348882497E+02   -0.12241E-04   -0.25715E-05 10048   0.272E-02    0.593E-03
DAV:  15    -0.670348898278E+02   -0.15781E-05   -0.41726E-06  7168   0.130E-02
   1 F= -.67034890E+02 E0= -.67034890E+02  d E =0.000000E+00  mag=    -0.0002
