    4    4    1    2
  0.1155726E+02  0.3760211E-09  0.3650690E-09  0.3888635E-09  0.5000000E-15
  1.000000000000000E-004
  CAR 
 unknown system                          
     14    260     12
 
  0.0000000E+00  0.0000000E+00  0.0000000E+00  0.1250000E-02
    1      -43.471124    -43.470515   1.000000   1.000000
    2      -43.176645    -43.176024   1.000000   1.000000
    3      -42.883004    -42.882571   1.000000   1.000000
    4      -10.233976    -10.234077   1.000000   1.000000
    5       -0.243221     -0.243270   1.000000   1.000000
    6        0.935319      0.935185   1.000000   1.000000
    7        1.028477      1.028369   1.000000   1.000000
    8        2.165067      2.165057   0.000000   0.000000
    9        8.113280      8.113483   0.000000   0.000000
   10        8.392745      8.392936   0.000000   0.000000
   11        9.262927      9.262922   0.000000   0.000000
   12       12.957731     12.984670   0.000000   0.000000
 
  0.1000000E+00  0.3907371E-17  0.0000000E+00  0.2500000E-02
    1      -43.465037    -43.464428   1.000000   1.000000
    2      -43.182567    -43.181946   1.000000   1.000000
    3      -42.883025    -42.882592   1.000000   1.000000
    4      -10.224632    -10.224735   1.000000   1.000000
    5       -0.184767     -0.184817   1.000000   1.000000
    6        0.552226      0.552151   1.000000   1.000000
    7        0.921650      0.921547   1.000000   1.000000
    8        2.543876      2.543842  -0.000000  -0.000000
    9        8.151175      8.151347   0.000000   0.000000
   10        8.641097      8.641261   0.000000   0.000000
   11        9.152680      9.152678   0.000000   0.000000
   12       12.699146     12.692972   0.000000   0.000000
 
  0.2000000E+00  0.7814742E-17  0.0000000E+00  0.2500000E-02
    1      -43.447733    -43.447122   1.000000   1.000000
    2      -43.199310    -43.198690   1.000000   1.000000
    3      -42.883042    -42.882609   1.000000   1.000000
    4      -10.199892    -10.200001   1.000000   1.000000
    5       -0.080020     -0.080052   1.000000   1.000000
    6       -0.024684     -0.024739   1.000000   1.000000
    7        0.673645      0.673557   1.000000   1.000000
    8        3.204240      3.204180   0.000000   0.000000
    9        8.016098      8.016206   0.000000   0.000000
   10        8.862699      8.862710   0.000000   0.000000
   11        9.282063      9.282150   0.000000   0.000000
   12       12.461756     12.446291   0.000000   0.000000
 
  0.3000000E+00  0.1644622E-16  0.0000000E+00  0.2500000E-02
    1      -43.422403    -43.421791   1.000000   1.000000
    2      -43.223940    -43.223321   1.000000   1.000000
    3      -42.883098    -42.882665   1.000000   1.000000
    4      -10.169081    -10.169194   1.000000   1.000000
    5       -0.626136     -0.626138   1.000000   1.000000
    6        0.189483      0.189433   1.000000   1.000000
    7        0.403307      0.403234   1.000000   1.000000
    8        3.928265      3.928218   0.000000   0.000000
    9        7.426347      7.426429   0.000000   0.000000
   10        8.492536      8.492624   0.000000   0.000000
   11        9.967916      9.967948   0.000000   0.000000
   12       12.669283     12.989193   0.000000   0.000000
 
  0.4000000E+00  0.1220278E-16  0.0000000E+00  0.2500000E-02
    1      -43.395865    -43.395252   1.000000   1.000000
    2      -43.249872    -43.249254   1.000000   1.000000
    3      -42.883114    -42.882682   1.000000   1.000000
    4      -10.143923    -10.144044   1.000000   1.000000
    5       -0.983579     -0.983564   1.000000   1.000000
    6        0.206679      0.206614   1.000000   1.000000
    7        0.378804      0.378738   1.000000   1.000000
    8        4.720369      4.720319   0.000000   0.000000
    9        6.545833      6.545826   0.000000   0.000000
   10        8.174477      8.174525   0.000000   0.000000
   11       10.348164     10.348126   0.000000   0.000000
   12       12.482413     12.482390   0.000000   0.000000
 
  0.5000000E+00  0.1038317E-16  0.0000000E+00  0.1250000E-02
    1      -43.382811    -43.382197   1.000000   1.000000
    2      -43.262717    -43.262099   1.000000   1.000000
    3      -42.883143    -42.882710   1.000000   1.000000
    4      -10.134288    -10.134411   1.000000   1.000000
    5       -1.107293     -1.107271   1.000000   1.000000
    6        0.135858      0.135796   1.000000   1.000000
    7        0.455626      0.455556   1.000000   1.000000
    8        5.497849      5.497891   0.000000   0.000000
    9        5.756013      5.750190   0.000000   0.000000
   10        8.046783      8.046835   0.000000   0.000000
   11       10.441695     10.441641   0.000000   0.000000
   12       12.224282     12.224430   0.000000   0.000000
 
 -0.8741739E-18  0.1000000E+00  0.0000000E+00  0.2500000E-02
    1      -43.464215    -43.463605   1.000000   1.000000
    2      -43.183273    -43.182652   1.000000   1.000000
    3      -42.882991    -42.882558   1.000000   1.000000
    4      -10.222111    -10.222215   1.000000   1.000000
    5       -0.180163     -0.180214   1.000000   1.000000
    6        0.627229      0.627143   1.000000   1.000000
    7        0.822492      0.822366   1.000000   1.000000
    8        2.535825      2.535786  -0.000000  -0.000000
    9        8.328430      8.328727   0.000000   0.000000
   10        8.460422      8.460552   0.000000   0.000000
   11        9.162375      9.162368   0.000000   0.000000
   12       12.881508     12.897609   0.000000   0.000000
 
  0.1000000E+00  0.1000000E+00  0.0000000E+00  0.2500000E-02
    1      -43.452072    -43.451461   1.000000   1.000000
    2      -43.195001    -43.194381   1.000000   1.000000
    3      -42.882993    -42.882561   1.000000   1.000000
    4      -10.204175    -10.204282   1.000000   1.000000
    5       -0.068841     -0.068895   1.000000   1.000000
    6        0.129182      0.129133   1.000000   1.000000
    7        0.669810      0.669729   1.000000   1.000000
    8        3.015455      3.015407   0.000000   0.000000
    9        8.222792      8.222765   0.000000   0.000000
   10        8.932532      8.932859   0.000000   0.000000
   11        8.972917      8.972922   0.000000   0.000000
   12       12.576030     12.566983   0.000000   0.000000
 
  0.2000000E+00  0.1000000E+00  0.0000000E+00  0.2500000E-02
    1      -43.430222    -43.429611   1.000000   1.000000
    2      -43.216277    -43.215657   1.000000   1.000000
    3      -42.883066    -42.882633   1.000000   1.000000
    4      -10.176162    -10.176275   1.000000   1.000000
    5       -0.413618     -0.413637   1.000000   1.000000
    6        0.120290      0.120231   1.000000   1.000000
    7        0.406934      0.406863   1.000000   1.000000
    8        3.678009      3.677945   0.000000   0.000000
    9        7.855607      7.855659   0.000000   0.000000
   10        8.671396      8.671415   0.000000   0.000000
   11        9.433826      9.435101   0.000000   0.000000
   12       12.654561     12.634915   0.000000   0.000000
 
  0.3000000E+00  0.1000000E+00  0.0000000E+00  0.2500000E-02
    1      -43.403108    -43.402496   1.000000   1.000000
    2      -43.242731    -43.242112   1.000000   1.000000
    3      -42.883108    -42.882676   1.000000   1.000000
    4      -10.148616    -10.148736   1.000000   1.000000
    5       -0.829575     -0.829572   1.000000   1.000000
    6        0.164899      0.164843   1.000000   1.000000
    7        0.324135      0.324069   1.000000   1.000000
    8        4.434425      4.434360   0.000000   0.000000
    9        7.097723      7.097721   0.000000   0.000000
   10        8.370729      8.370798   0.000000   0.000000
   11        9.763222      9.763607   0.000000   0.000000
   12       12.338697     12.341480   0.000000   0.000000
 
  0.4000000E+00  0.1000000E+00  0.0000000E+00  0.2500000E-02
    1      -43.380967    -43.380353   1.000000   1.000000
    2      -43.264419    -43.263801   1.000000   1.000000
    3      -42.883119    -42.882686   1.000000   1.000000
    4      -10.132267    -10.132389   1.000000   1.000000
    5       -1.048212     -1.048195   1.000000   1.000000
    6        0.025363      0.025311   1.000000   1.000000
    7        0.457963      0.457890   1.000000   1.000000
    8        5.276589      5.276512   0.000000   0.000000
    9        6.182315      6.182229   0.000000   0.000000
   10        8.182323      8.182372   0.000000   0.000000
   11        9.895244      9.894280   0.000000   0.000000
   12       11.767024     11.766888   0.000000   0.000000
 
  0.5000000E+00  0.1000000E+00  0.0000000E+00  0.2500000E-02
    1      -43.381927    -43.381314   1.000000   1.000000
    2      -43.263533    -43.262915   1.000000   1.000000
    3      -42.883152    -42.882720   1.000000   1.000000
    4      -10.133483    -10.133603   1.000000   1.000000
    5       -1.042865     -1.042846   1.000000   1.000000
    6        0.024772      0.024717   1.000000   1.000000
    7        0.454986      0.454913   1.000000   1.000000
    8        5.276738      5.276676   0.000000   0.000000
    9        6.192851      6.192808   0.000000   0.000000
   10        8.185831      8.185872   0.000000   0.000000
   11        9.902059      9.901986   0.000000   0.000000
   12       11.754657     11.754570   0.000000   0.000000
 
 -0.4000000E+00  0.1000000E+00  0.0000000E+00  0.2500000E-02
    1      -43.404825    -43.404212   1.000000   1.000000
    2      -43.241099    -43.240480   1.000000   1.000000
    3      -42.883143    -42.882710   1.000000   1.000000
    4      -10.151751    -10.151871   1.000000   1.000000
    5       -0.816434     -0.816426   1.000000   1.000000
    6        0.165360      0.165301   1.000000   1.000000
    7        0.316840      0.316775   1.000000   1.000000
    8        4.446994      4.446929   0.000000   0.000000
    9        7.110254      7.110260   0.000000   0.000000
   10        8.376165      8.376205   0.000000   0.000000
   11        9.789101      9.789239   0.000000   0.000000
   12       12.304659     12.304776   0.000000   0.000000
 
 -0.3000000E+00  0.1000000E+00  0.0000000E+00  0.2500000E-02
    1      -43.431817    -43.431206   1.000000   1.000000
    2      -43.214731    -43.214111   1.000000   1.000000
    3      -42.883080    -42.882647   1.000000   1.000000
    4      -10.179854    -10.179966   1.000000   1.000000
    5       -0.402984     -0.402996   1.000000   1.000000
    6        0.112104      0.112044   1.000000   1.000000
    7        0.415480      0.415409   1.000000   1.000000
    8        3.698052      3.697985   0.000000   0.000000
    9        7.847095      7.847125   0.000000   0.000000
   10        8.671170      8.671192   0.000000   0.000000
   11        9.481764      9.481928   0.000000   0.000000
   12       12.642281     12.642509   0.000000   0.000000
 
 -0.2000000E+00  0.1000000E+00  0.0000000E+00  0.2500000E-02
    1      -43.453182    -43.452572   1.000000   1.000000
    2      -43.193997    -43.193377   1.000000   1.000000
    3      -42.883031    -42.882598   1.000000   1.000000
    4      -10.207164    -10.207271   1.000000   1.000000
    5       -0.074925     -0.074978   1.000000   1.000000
    6        0.120831      0.120791   1.000000   1.000000
    7        0.698237      0.698148   1.000000   1.000000
    8        3.031575      3.031517   0.000000   0.000000
    9        8.158644      8.158719   0.000000   0.000000
   10        8.967341      8.967345   0.000000   0.000000
   11        9.013431      9.013521   0.000000   0.000000
   12       12.531525     12.524275   0.000000   0.000000
 
 -0.1000000E+00  0.1000000E+00  0.0000000E+00  0.2500000E-02
    1      -43.464619    -43.464009   1.000000   1.000000
    2      -43.182918    -43.182297   1.000000   1.000000
    3      -42.883006    -42.882573   1.000000   1.000000
    4      -10.223209    -10.223313   1.000000   1.000000
    5       -0.182377     -0.182427   1.000000   1.000000
    6        0.590890      0.590817   1.000000   1.000000
    7        0.870156      0.870048   1.000000   1.000000
    8        2.539432      2.539403  -0.000000  -0.000000
    9        8.220253      8.220504   0.000000   0.000000
   10        8.570138      8.570380   0.000000   0.000000
   11        9.158991      9.158982   0.000000   0.000000
   12       12.836827     12.881779   0.000000   0.000000
 
 -0.1748348E-17  0.2000000E+00  0.0000000E+00  0.2500000E-02
    1      -43.444358    -43.443748   1.000000   1.000000
    2      -43.202417    -43.201796   1.000000   1.000000
    3      -42.882984    -42.882551   1.000000   1.000000
    4      -10.191007    -10.191116   1.000000   1.000000
    5       -0.009149     -0.009187   1.000000   1.000000
    6       -0.007481     -0.007537   1.000000   1.000000
    7        0.527412      0.527330   1.000000   1.000000
    8        3.177860      3.177811   0.000000   0.000000
    9        8.169427      8.169536   0.000000   0.000000
   10        8.909429      8.909435   0.000000   0.000000
   11        9.095548      9.095589   0.000000   0.000000
   12       12.772127     12.768837   0.000000   0.000000
 
  0.1000000E+00  0.2000000E+00  0.0000000E+00  0.2500000E-02
    1      -43.427403    -43.426791   1.000000   1.000000
    2      -43.218894    -43.218274   1.000000   1.000000
    3      -42.883018    -42.882585   1.000000   1.000000
    4      -10.169816    -10.169926   1.000000   1.000000
    5       -0.367921     -0.367943   1.000000   1.000000
    6        0.132850      0.132789   1.000000   1.000000
    7        0.306584      0.306523   1.000000   1.000000
    8        3.665990      3.665940   0.000000   0.000000
    9        7.934278      7.934332   0.000000   0.000000
   10        8.721574      8.721590   0.000000   0.000000
   11        9.332914      9.333118   0.000000   0.000000
   12       12.820920     12.802897   0.000000   0.000000
 
  0.2000000E+00  0.2000000E+00  0.0000000E+00  0.2500000E-02
    1      -43.402648    -43.402036   1.000000   1.000000
    2      -43.243027    -43.242408   1.000000   1.000000
    3      -42.883076    -42.882644   1.000000   1.000000
    4      -10.145146    -10.145265   1.000000   1.000000
    5       -0.698515     -0.698522   1.000000   1.000000
    6        0.019119      0.019076   1.000000   1.000000
    7        0.313796      0.313730   1.000000   1.000000
    8        4.350176      4.350113   0.000000   0.000000
    9        7.548822      7.548817   0.000000   0.000000
   10        8.552640      8.552667   0.000000   0.000000
   11        9.158173      9.158765   0.000000   0.000000
   12       12.027074     12.027590   0.000000   0.000000
 
  0.3000000E+00  0.2000000E+00  0.0000000E+00  0.2500000E-02
    1      -43.375943    -43.375329   1.000000   1.000000
    2      -43.269180    -43.268562   1.000000   1.000000
    3      -42.883101    -42.882669   1.000000   1.000000
    4      -10.126529    -10.126650   1.000000   1.000000
    5       -0.910419     -0.910413   1.000000   1.000000
    6       -0.209416     -0.209445   1.000000   1.000000
    7        0.466937      0.466865   1.000000   1.000000
    8        5.151377      5.151241   0.000000   0.000000
    9        6.868418      6.868401   0.000000   0.000000
   10        8.487879      8.487922   0.000000   0.000000
   11        8.956315      8.958334   0.000000   0.000000
   12       11.041659     11.041718   0.000000   0.000000
 
  0.4000000E+00  0.2000000E+00  0.0000000E+00  0.2500000E-02
    1      -43.363093    -43.362479   1.000000   1.000000
    2      -43.281893    -43.281275   1.000000   1.000000
    3      -42.883151    -42.882718   1.000000   1.000000
    4      -10.121127    -10.121250   1.000000   1.000000
    5       -0.975747     -0.975734   1.000000   1.000000
    6       -0.294753     -0.294779   1.000000   1.000000
    7        0.523907      0.523834   1.000000   1.000000
    8        5.910779      5.906954   0.000000   0.000000
    9        6.154066      6.154068   0.000000   0.000000
   10        8.491323      8.491374   0.000000   0.000000
   11        8.901350      8.901976   0.000000   0.000000
   12       10.663798     10.663834   0.000000   0.000000
 
  0.5000000E+00  0.2000000E+00  0.0000000E+00  0.2500000E-02
    1      -43.379398    -43.378784   1.000000   1.000000
    2      -43.265857    -43.265239   1.000000   1.000000
    3      -42.883139    -42.882707   1.000000   1.000000
    4      -10.130788    -10.130910   1.000000   1.000000
    5       -0.896505     -0.896492   1.000000   1.000000
    6       -0.202603     -0.202636   1.000000   1.000000
    7        0.456686      0.456615   1.000000   1.000000
    8        5.156247      5.156101   0.000000   0.000000
    9        6.899317      6.899277   0.000000   0.000000
   10        8.484986      8.485031   0.000000   0.000000
   11        8.972647      8.972437   0.000000   0.000000
   12       11.035651     11.035495   0.000000   0.000000
 
 -0.4000000E+00  0.2000000E+00  0.0000000E+00  0.2500000E-02
    1      -43.406439    -43.405827   1.000000   1.000000
    2      -43.239403    -43.238785   1.000000   1.000000
    3      -42.883125    -42.882692   1.000000   1.000000
    4      -10.151919    -10.152038   1.000000   1.000000
    5       -0.687397     -0.687393   1.000000   1.000000
    6        0.045412      0.045364   1.000000   1.000000
    7        0.298380      0.298314   1.000000   1.000000
    8        4.373192      4.373116   0.000000   0.000000
    9        7.553618      7.553584   0.000000   0.000000
   10        8.539280      8.539315   0.000000   0.000000
   11        9.213086      9.213672   0.000000   0.000000
   12       12.016858     12.016744   0.000000   0.000000
 
 -0.3000000E+00  0.2000000E+00  0.0000000E+00  0.2500000E-02
    1      -43.430353    -43.429742   1.000000   1.000000
    2      -43.216091    -43.215471   1.000000   1.000000
    3      -42.883068    -42.882635   1.000000   1.000000
    4      -10.176434    -10.176547   1.000000   1.000000
    5       -0.378399     -0.378409   1.000000   1.000000
    6        0.118650      0.118588   1.000000   1.000000
    7        0.362446      0.362375   1.000000   1.000000
    8        3.690852      3.690782   0.000000   0.000000
    9        7.885914      7.885942   0.000000   0.000000
   10        8.698879      8.698902   0.000000   0.000000
   11        9.429971      9.430007   0.000000   0.000000
   12       12.675051     12.680015   0.000000   0.000000
 
 -0.2000000E+00  0.2000000E+00  0.0000000E+00  0.2500000E-02
    1      -43.445923    -43.445313   1.000000   1.000000
    2      -43.200920    -43.200300   1.000000   1.000000
    3      -42.882989    -42.882556   1.000000   1.000000
    4      -10.195059    -10.195169   1.000000   1.000000
    5       -0.041823     -0.041851   1.000000   1.000000
    6       -0.015739     -0.015794   1.000000   1.000000
    7        0.596104      0.596018   1.000000   1.000000
    8        3.189431      3.189371   0.000000   0.000000
    9        8.091064      8.091211   0.000000   0.000000
   10        8.890421      8.890432   0.000000   0.000000
   11        9.188622      9.188817   0.000000   0.000000
   12       12.637509     12.631170   0.000000   0.000000
 
 -0.1000000E+00  0.2000000E+00  0.0000000E+00  0.2500000E-02
    1      -43.450821    -43.450210   1.000000   1.000000
    2      -43.196153    -43.195533   1.000000   1.000000
    3      -42.882970    -42.882537   1.000000   1.000000
    4      -10.200653    -10.200761   1.000000   1.000000
    5       -0.062269     -0.062323   1.000000   1.000000
    6        0.153153      0.153111   1.000000   1.000000
    7        0.623504      0.623415   1.000000   1.000000
    8        2.997174      2.997122   0.000000   0.000000
    9        8.311061      8.311152   0.000000   0.000000
   10        8.825933      8.826592   0.000000   0.000000
   11        8.985695      8.985701   0.000000   0.000000
   12       12.799721     12.787122   0.000000   0.000000
 
  0.1479863E-16  0.3000000E+00  0.0000000E+00  0.2500000E-02
    1      -43.414277    -43.413665   1.000000   1.000000
    2      -43.231540    -43.230921   1.000000   1.000000
    3      -42.882974    -42.882541   1.000000   1.000000
    4      -10.152278    -10.152390   1.000000   1.000000
    5       -0.564621     -0.564629   1.000000   1.000000
    6        0.212595      0.212527   1.000000   1.000000
    7        0.223529      0.223460   1.000000   1.000000
    8        3.892257      3.892225   0.000000   0.000000
    9        7.527980      7.528014   0.000000   0.000000
   10        8.608681      8.608670   0.000000   0.000000
   11        9.753841      9.753934   0.000000   0.000000
   12       13.087469     13.124671   0.000000   0.000000
 
  0.1000000E+00  0.3000000E+00  0.0000000E+00  0.2500000E-02
    1      -43.394531    -43.393918   1.000000   1.000000
    2      -43.250855    -43.250236   1.000000   1.000000
    3      -42.883034    -42.882601   1.000000   1.000000
    4      -10.134355    -10.134476   1.000000   1.000000
    5       -0.769912     -0.769914   1.000000   1.000000
    6       -0.003013     -0.003066   1.000000   1.000000
    7        0.353494      0.353430   1.000000   1.000000
    8        4.412096      4.412050   0.000000   0.000000
    9        7.172878      7.172960   0.000000   0.000000
   10        8.507364      8.507398   0.000000   0.000000
   11        9.591245      9.590940   0.000000   0.000000
   12       12.135700     12.137649   0.000000   0.000000
 
  0.2000000E+00  0.3000000E+00  0.0000000E+00  0.2500000E-02
    1      -43.368879    -43.368265   1.000000   1.000000
    2      -43.276115    -43.275497   1.000000   1.000000
    3      -42.883123    -42.882690   1.000000   1.000000
    4      -10.118650    -10.118772   1.000000   1.000000
    5       -0.868993     -0.868990   1.000000   1.000000
    6       -0.304894     -0.304920   1.000000   1.000000
    7        0.483810      0.483738   1.000000   1.000000
    8        5.141133      5.141044   0.000000   0.000000
    9        6.897522      6.897503   0.000000   0.000000
   10        8.596964      8.597002   0.000000   0.000000
   11        8.870280      8.872046   0.000000   0.000000
   12       10.893991     10.894152   0.000000   0.000000
 
  0.3000000E+00  0.3000000E+00  0.0000000E+00  0.2500000E-02
    1      -43.343807    -43.343192   1.000000   1.000000
    2      -43.300886    -43.300269   1.000000   1.000000
    3      -42.883147    -42.882715   1.000000   1.000000
    4      -10.110968    -10.111093   1.000000   1.000000
    5       -0.837783     -0.837783   1.000000   1.000000
    6       -0.565305     -0.565310   1.000000   1.000000
    7        0.561988      0.561913   1.000000   1.000000
    8        5.925875      5.925362   0.000000   0.000000
    9        6.580430      6.580288   0.000000   0.000000
   10        8.232535      8.233028   0.000000   0.000000
   11        8.934476      8.934522   0.000000   0.000000
   12        9.897511      9.897565   0.000000   0.000000
 
  0.4000000E+00  0.3000000E+00  0.0000000E+00  0.2500000E-02
    1      -43.349347    -43.348732   1.000000   1.000000
    2      -43.295376    -43.294759   1.000000   1.000000
    3      -42.883145    -42.882713   1.000000   1.000000
    4      -10.113950    -10.114075   1.000000   1.000000
    5       -0.843012     -0.843002   1.000000   1.000000
    6       -0.543356     -0.543369   1.000000   1.000000
    7        0.554735      0.554660   1.000000   1.000000
    8        5.904373      5.903785   0.000000   0.000000
    9        6.625091      6.624941   0.000000   0.000000
   10        8.239911      8.239731   0.000000   0.000000
   11        8.890941      8.890994   0.000000   0.000000
   12        9.945840      9.945878   0.000000   0.000000
 
  0.5000000E+00  0.3000000E+00  0.0000000E+00  0.2500000E-02
    1      -43.375949    -43.375336   1.000000   1.000000
    2      -43.269183    -43.268566   1.000000   1.000000
    3      -42.883135    -42.882702   1.000000   1.000000
    4      -10.126479    -10.126601   1.000000   1.000000
    5       -0.874770     -0.874754   1.000000   1.000000
    6       -0.252450     -0.252483   1.000000   1.000000
    7        0.465528      0.465456   1.000000   1.000000
    8        5.151513      5.151399   0.000000   0.000000
    9        6.912506      6.912473   0.000000   0.000000
   10        8.541277      8.541321   0.000000   0.000000
   11        8.928394      8.929943   0.000000   0.000000
   12       10.960330     10.959904   0.000000   0.000000
 
 -0.4000000E+00  0.3000000E+00  0.0000000E+00  0.2500000E-02
    1      -43.400462    -43.399849   1.000000   1.000000
    2      -43.245194    -43.244575   1.000000   1.000000
    3      -42.883091    -42.882659   1.000000   1.000000
    4      -10.143928    -10.144046   1.000000   1.000000
    5       -0.785241     -0.785230   1.000000   1.000000
    6        0.077673      0.077615   1.000000   1.000000
    7        0.332201      0.332135   1.000000   1.000000
    8        4.434465      4.434399   0.000000   0.000000
    9        7.147198      7.147239   0.000000   0.000000
   10        8.448248      8.448274   0.000000   0.000000
   11        9.700961      9.701234   0.000000   0.000000
   12       12.200170     12.200518   0.000000   0.000000
 
 -0.3000000E+00  0.3000000E+00  0.0000000E+00  0.2500000E-02
    1      -43.418168    -43.417556   1.000000   1.000000
    2      -43.227896    -43.227276   1.000000   1.000000
    3      -42.883035    -42.882603   1.000000   1.000000
    4      -10.159912    -10.160028   1.000000   1.000000
    5       -0.593714     -0.593711   1.000000   1.000000
    6        0.207250      0.207191   1.000000   1.000000
    7        0.303426      0.303354   1.000000   1.000000
    8        3.908137      3.908081   0.000000   0.000000
    9        7.476996      7.477076   0.000000   0.000000
   10        8.556307      8.556372   0.000000   0.000000
   11        9.857315      9.857393   0.000000   0.000000
   12       12.862164     13.000689   0.000000   0.000000
 
 -0.2000000E+00  0.3000000E+00  0.0000000E+00  0.2500000E-02
    1      -43.426845    -43.426233   1.000000   1.000000
    2      -43.219397    -43.218777   1.000000   1.000000
    3      -42.882991    -42.882558   1.000000   1.000000
    4      -10.168202    -10.168316   1.000000   1.000000
    5       -0.393892     -0.393902   1.000000   1.000000
    6        0.135717      0.135658   1.000000   1.000000
    7        0.337554      0.337482   1.000000   1.000000
    8        3.649857      3.649801   0.000000   0.000000
    9        7.906368      7.906395   0.000000   0.000000
   10        8.707760      8.707781   0.000000   0.000000
   11        9.329907      9.330973   0.000000   0.000000
   12       12.805532     12.824341   0.000000   0.000000
 
 -0.1000000E+00  0.3000000E+00  0.0000000E+00  0.2500000E-02
    1      -43.425515    -43.424904   1.000000   1.000000
    2      -43.220703    -43.220083   1.000000   1.000000
    3      -42.882995    -42.882563   1.000000   1.000000
    4      -10.165360    -10.165469   1.000000   1.000000
    5       -0.372132     -0.372147   1.000000   1.000000
    6        0.141726      0.141667   1.000000   1.000000
    7        0.289537      0.289472   1.000000   1.000000
    8        3.644955      3.644909   0.000000   0.000000
    9        7.946499      7.946540   0.000000   0.000000
   10        8.730339      8.730357   0.000000   0.000000
   11        9.283227      9.283633   0.000000   0.000000
   12       12.903061     12.948507   0.000000   0.000000
 
  0.7401531E-17  0.4000000E+00  0.0000000E+00  0.2500000E-02
    1      -43.379825    -43.379211   1.000000   1.000000
    2      -43.265288    -43.264670   1.000000   1.000000
    3      -42.883050    -42.882617   1.000000   1.000000
    4      -10.120737    -10.120860   1.000000   1.000000
    5       -0.930835     -0.930826   1.000000   1.000000
    6       -0.013566     -0.013626   1.000000   1.000000
    7        0.427672      0.427604   1.000000   1.000000
    8        4.683521      4.683501   0.000000   0.000000
    9        6.614896      6.614925   0.000000   0.000000
   10        8.365671      8.365708   0.000000   0.000000
   11       10.060745     10.060683   0.000000   0.000000
   12       12.207272     12.207637   0.000000   0.000000
 
  0.1000000E+00  0.4000000E+00  0.0000000E+00  0.2500000E-02
    1      -43.362060    -43.361446   1.000000   1.000000
    2      -43.282811    -43.282193   1.000000   1.000000
    3      -42.883088    -42.882656   1.000000   1.000000
    4      -10.111518    -10.111645   1.000000   1.000000
    5       -0.993500     -0.993488   1.000000   1.000000
    6       -0.173848     -0.173895   1.000000   1.000000
    7        0.502273      0.502200   1.000000   1.000000
    8        5.239886      5.239873   0.000000   0.000000
    9        6.240554      6.240135   0.000000   0.000000
   10        8.391076      8.391115   0.000000   0.000000
   11        9.667702      9.667636   0.000000   0.000000
   12       11.459685     11.459585   0.000000   0.000000
 
  0.2000000E+00  0.4000000E+00  0.0000000E+00  0.2500000E-02
    1      -43.341892    -43.341277   1.000000   1.000000
    2      -43.302774    -43.302158   1.000000   1.000000
    3      -42.883126    -42.882693   1.000000   1.000000
    4      -10.106563    -10.106689   1.000000   1.000000
    5       -0.926208     -0.926198   1.000000   1.000000
    6       -0.433472     -0.433495   1.000000   1.000000
    7        0.555936      0.555861   1.000000   1.000000
    8        5.996232      5.996264   0.000000   0.000000
    9        6.046776      6.042991   0.000000   0.000000
   10        8.689343      8.689419   0.000000   0.000000
   11        8.784945      8.785805   0.000000   0.000000
   12       10.414515     10.414849   0.000000   0.000000
 
  0.3000000E+00  0.4000000E+00  0.0000000E+00  0.2500000E-02
    1      -43.334842    -43.334227   1.000000   1.000000
    2      -43.309799    -43.309183   1.000000   1.000000