Automatically generated mesh
     260
Reciprocal lattice
    0.00000000000000    0.00000000000000    0.00000000000000             1
    0.10000000000000    0.00000000000000    0.00000000000000             2
    0.20000000000000    0.00000000000000    0.00000000000000             2
    0.30000000000000    0.00000000000000    0.00000000000000             2
    0.40000000000000    0.00000000000000    0.00000000000000             2
    0.50000000000000    0.00000000000000    0.00000000000000             1
   -0.00000000000000    0.10000000000000    0.00000000000000             2
    0.10000000000000    0.10000000000000    0.00000000000000             2
    0.20000000000000    0.10000000000000    0.00000000000000             2
    0.30000000000000    0.10000000000000    0.00000000000000             2
    0.40000000000000    0.10000000000000    0.00000000000000             2
    0.50000000000000    0.10000000000000    0.00000000000000             2
   -0.40000000000000    0.10000000000000    0.00000000000000             2
   -0.30000000000000    0.10000000000000    0.00000000000000             2
   -0.20000000000000    0.10000000000000    0.00000000000000             2
   -0.10000000000000    0.10000000000000    0.00000000000000             2
   -0.00000000000000    0.20000000000000    0.00000000000000             2
    0.10000000000000    0.20000000000000    0.00000000000000             2
    0.20000000000000    0.20000000000000    0.00000000000000             2
    0.30000000000000    0.20000000000000    0.00000000000000             2
    0.40000000000000    0.20000000000000    0.00000000000000             2
    0.50000000000000    0.20000000000000    0.00000000000000             2
   -0.40000000000000    0.20000000000000    0.00000000000000             2
   -0.30000000000000    0.20000000000000    0.00000000000000             2
   -0.20000000000000    0.20000000000000    0.00000000000000             2
   -0.10000000000000    0.20000000000000    0.00000000000000             2
    0.00000000000000    0.30000000000000    0.00000000000000             2
    0.10000000000000    0.30000000000000    0.00000000000000             2
    0.20000000000000    0.30000000000000    0.00000000000000             2
    0.30000000000000    0.30000000000000    0.00000000000000             2
    0.40000000000000    0.30000000000000    0.00000000000000             2
    0.50000000000000    0.30000000000000    0.00000000000000             2
   -0.40000000000000    0.30000000000000    0.00000000000000             2
   -0.30000000000000    0.30000000000000    0.00000000000000             2
   -0.20000000000000    0.30000000000000    0.00000000000000             2
   -0.10000000000000    0.30000000000000    0.00000000000000             2
    0.00000000000000    0.40000000000000    0.00000000000000             2
    0.10000000000000    0.40000000000000    0.00000000000000             2
    0.20000000000000    0.40000000000000    0.00000000000000             2
    0.30000000000000    0.40000000000000    0.00000000000000             2
    0.40000000000000    0.40000000000000    0.00000000000000             2
    0.50000000000000    0.40000000000000    0.00000000000000             2
   -0.40000000000000    0.40000000000000    0.00000000000000             2
   -0.30000000000000    0.40000000000000    0.00000000000000             2
   -0.20000000000000    0.40000000000000    0.00000000000000             2
   -0.10000000000000    0.40000000000000    0.00000000000000             2
    0.00000000000000    0.50000000000000    0.00000000000000             1
    0.10000000000000    0.50000000000000    0.00000000000000             2
    0.20000000000000    0.50000000000000    0.00000000000000             2
    0.30000000000000    0.50000000000000    0.00000000000000             2
    0.40000000000000    0.50000000000000    0.00000000000000             2
    0.50000000000000    0.50000000000000    0.00000000000000             1
    0.00000000000000    0.00000000000000    0.12500000000000             2
    0.10000000000000    0.00000000000000    0.12500000000000             4
    0.20000000000000    0.00000000000000    0.12500000000000             4
    0.30000000000000    0.00000000000000    0.12500000000000             4
    0.40000000000000    0.00000000000000    0.12500000000000             4
    0.50000000000000    0.00000000000000    0.12500000000000             2
   -0.00000000000000    0.10000000000000    0.12500000000000             4
    0.10000000000000    0.10000000000000    0.12500000000000             4
    0.20000000000000    0.10000000000000    0.12500000000000             4
    0.30000000000000    0.10000000000000    0.12500000000000             4
    0.40000000000000    0.10000000000000    0.12500000000000             4
    0.50000000000000    0.10000000000000    0.12500000000000             4
   -0.40000000000000    0.10000000000000    0.12500000000000             4
   -0.30000000000000    0.10000000000000    0.12500000000000             4
   -0.20000000000000    0.10000000000000    0.12500000000000             4
   -0.10000000000000    0.10000000000000    0.12500000000000             4
   -0.00000000000000    0.20000000000000    0.12500000000000             4
    0.10000000000000    0.20000000000000    0.12500000000000             4
    0.20000000000000    0.20000000000000    0.12500000000000             4
    0.30000000000000    0.20000000000000    0.12500000000000             4
    0.40000000000000    0.20000000000000    0.12500000000000             4
    0.50000000000000    0.20000000000000    0.12500000000000             4
   -0.40000000000000    0.20000000000000    0.12500000000000             4
   -0.30000000000000    0.20000000000000    0.12500000000000             4
   -0.20000000000000    0.20000000000000    0.12500000000000             4
   -0.10000000000000    0.20000000000000    0.12500000000000             4
    0.00000000000000    0.30000000000000    0.12500000000000             4
    0.10000000000000    0.30000000000000    0.12500000000000             4
    0.20000000000000    0.30000000000000    0.12500000000000             4
    0.30000000000000    0.30000000000000    0.12500000000000             4
    0.40000000000000    0.30000000000000    0.12500000000000             4
    0.50000000000000    0.30000000000000    0.12500000000000             4
   -0.40000000000000    0.30000000000000    0.12500000000000             4
   -0.30000000000000    0.30000000000000    0.12500000000000             4
   -0.20000000000000    0.30000000000000    0.12500000000000             4
   -0.10000000000000    0.30000000000000    0.12500000000000             4
    0.00000000000000    0.40000000000000    0.12500000000000             4
    0.10000000000000    0.40000000000000    0.12500000000000             4
    0.20000000000000    0.40000000000000    0.12500000000000             4
    0.30000000000000    0.40000000000000    0.12500000000000             4
    0.40000000000000    0.40000000000000    0.12500000000000             4
    0.50000000000000    0.40000000000000    0.12500000000000             4
   -0.40000000000000    0.40000000000000    0.12500000000000             4
   -0.30000000000000    0.40000000000000    0.12500000000000             4
   -0.20000000000000    0.40000000000000    0.12500000000000             4
   -0.10000000000000    0.40000000000000    0.12500000000000             4
    0.00000000000000    0.50000000000000    0.12500000000000             2
    0.10000000000000    0.50000000000000    0.12500000000000             4
    0.20000000000000    0.50000000000000    0.12500000000000             4
    0.30000000000000    0.50000000000000    0.12500000000000             4
    0.40000000000000    0.50000000000000    0.12500000000000             4
    0.50000000000000    0.50000000000000    0.12500000000000             2
    0.00000000000000    0.00000000000000    0.25000000000000             2
    0.10000000000000    0.00000000000000    0.25000000000000             4
    0.20000000000000    0.00000000000000    0.25000000000000             4
    0.30000000000000    0.00000000000000    0.25000000000000             4
    0.40000000000000    0.00000000000000    0.25000000000000             4
    0.50000000000000    0.00000000000000    0.25000000000000             2
   -0.00000000000000    0.10000000000000    0.25000000000000             4
    0.10000000000000    0.10000000000000    0.25000000000000             4
    0.20000000000000    0.10000000000000    0.25000000000000             4
    0.30000000000000    0.10000000000000    0.25000000000000             4
    0.40000000000000    0.10000000000000    0.25000000000000             4
    0.50000000000000    0.10000000000000    0.25000000000000             4
   -0.40000000000000    0.10000000000000    0.25000000000000             4
   -0.30000000000000    0.10000000000000    0.25000000000000             4
   -0.20000000000000    0.10000000000000    0.25000000000000             4
   -0.10000000000000    0.10000000000000    0.25000000000000             4
   -0.00000000000000    0.20000000000000    0.25000000000000             4
    0.10000000000000    0.20000000000000    0.25000000000000             4
    0.20000000000000    0.20000000000000    0.25000000000000             4
    0.30000000000000    0.20000000000000    0.25000000000000             4
    0.40000000000000    0.20000000000000    0.25000000000000             4
    0.50000000000000    0.20000000000000    0.25000000000000             4
   -0.40000000000000    0.20000000000000    0.25000000000000             4
   -0.30000000000000    0.20000000000000    0.25000000000000             4
   -0.20000000000000    0.20000000000000    0.25000000000000             4
   -0.10000000000000    0.20000000000000    0.25000000000000             4
    0.00000000000000    0.30000000000000    0.25000000000000             4
    0.10000000000000    0.30000000000000    0.25000000000000             4
    0.20000000000000    0.30000000000000    0.25000000000000             4
    0.30000000000000    0.30000000000000    0.25000000000000             4
    0.40000000000000    0.30000000000000    0.25000000000000             4
    0.50000000000000    0.30000000000000    0.25000000000000             4
   -0.40000000000000    0.30000000000000    0.25000000000000             4
   -0.30000000000000    0.30000000000000    0.25000000000000             4
   -0.20000000000000    0.30000000000000    0.25000000000000             4
   -0.10000000000000    0.30000000000000    0.25000000000000             4
    0.00000000000000    0.40000000000000    0.25000000000000             4
    0.10000000000000    0.40000000000000    0.25000000000000             4
    0.20000000000000    0.40000000000000    0.25000000000000             4
    0.30000000000000    0.40000000000000    0.25000000000000             4
    0.40000000000000    0.40000000000000    0.25000000000000             4
    0.50000000000000    0.40000000000000    0.25000000000000             4
   -0.40000000000000    0.40000000000000    0.25000000000000             4
   -0.30000000000000    0.40000000000000    0.25000000000000             4
   -0.20000000000000    0.40000000000000    0.25000000000000             4
   -0.10000000000000    0.40000000000000    0.25000000000000             4
    0.00000000000000    0.50000000000000    0.25000000000000             2
    0.10000000000000    0.50000000000000    0.25000000000000             4
    0.20000000000000    0.50000000000000    0.25000000000000             4
    0.30000000000000    0.50000000000000    0.25000000000000             4
    0.40000000000000    0.50000000000000    0.25000000000000             4
    0.50000000000000    0.50000000000000    0.25000000000000             2
    0.00000000000000    0.00000000000000    0.37500000000000             2
    0.10000000000000    0.00000000000000    0.37500000000000             4
    0.20000000000000    0.00000000000000    0.37500000000000             4
    0.30000000000000    0.00000000000000    0.37500000000000             4
    0.40000000000000    0.00000000000000    0.37500000000000             4
    0.50000000000000    0.00000000000000    0.37500000000000             2
   -0.00000000000000    0.10000000000000    0.37500000000000             4
    0.10000000000000    0.10000000000000    0.37500000000000             4
    0.20000000000000    0.10000000000000    0.37500000000000             4
    0.30000000000000    0.10000000000000    0.37500000000000             4
    0.40000000000000    0.10000000000000    0.37500000000000             4
    0.50000000000000    0.10000000000000    0.37500000000000             4
   -0.40000000000000    0.10000000000000    0.37500000000000             4
   -0.30000000000000    0.10000000000000    0.37500000000000             4
   -0.20000000000000    0.10000000000000    0.37500000000000             4
   -0.10000000000000    0.10000000000000    0.37500000000000             4
   -0.00000000000000    0.20000000000000    0.37500000000000             4
    0.10000000000000    0.20000000000000    0.37500000000000             4
    0.20000000000000    0.20000000000000    0.37500000000000             4
    0.30000000000000    0.20000000000000    0.37500000000000             4
    0.40000000000000    0.20000000000000    0.37500000000000             4
    0.50000000000000    0.20000000000000    0.37500000000000             4
   -0.40000000000000    0.20000000000000    0.37500000000000             4
   -0.30000000000000    0.20000000000000    0.37500000000000             4
   -0.20000000000000    0.20000000000000    0.37500000000000             4
   -0.10000000000000    0.20000000000000    0.37500000000000             4
    0.00000000000000    0.30000000000000    0.37500000000000             4
    0.10000000000000    0.30000000000000    0.37500000000000             4
    0.20000000000000    0.30000000000000    0.37500000000000             4
    0.30000000000000    0.30000000000000    0.37500000000000             4
    0.40000000000000    0.30000000000000    0.37500000000000             4
    0.50000000000000    0.30000000000000    0.37500000000000             4
   -0.40000000000000    0.30000000000000    0.37500000000000             4
   -0.30000000000000    0.30000000000000    0.37500000000000             4
   -0.20000000000000    0.30000000000000    0.37500000000000             4
   -0.10000000000000    0.30000000000000    0.37500000000000             4
    0.00000000000000    0.40000000000000    0.37500000000000             4
    0.10000000000000    0.40000000000000    0.37500000000000             4
    0.20000000000000    0.40000000000000    0.37500000000000             4
    0.30000000000000    0.40000000000000    0.37500000000000             4
    0.40000000000000    0.40000000000000    0.37500000000000             4
    0.50000000000000    0.40000000000000    0.37500000000000             4
   -0.40000000000000    0.40000000000000    0.37500000000000             4
   -0.30000000000000    0.40000000000000    0.37500000000000             4
   -0.20000000000000    0.40000000000000    0.37500000000000             4
   -0.10000000000000    0.40000000000000    0.37500000000000             4
    0.00000000000000    0.50000000000000    0.37500000000000             2
    0.10000000000000    0.50000000000000    0.37500000000000             4
    0.20000000000000    0.50000000000000    0.37500000000000             4
    0.30000000000000    0.50000000000000    0.37500000000000             4
    0.40000000000000    0.50000000000000    0.37500000000000             4
    0.50000000000000    0.50000000000000    0.37500000000000             2
    0.00000000000000    0.00000000000000    0.50000000000000             1
    0.10000000000000    0.00000000000000    0.50000000000000             2
    0.20000000000000    0.00000000000000    0.50000000000000             2
    0.30000000000000    0.00000000000000    0.50000000000000             2
    0.40000000000000    0.00000000000000    0.50000000000000             2
    0.50000000000000    0.00000000000000    0.50000000000000             1
   -0.00000000000000    0.10000000000000    0.50000000000000             2
    0.10000000000000    0.10000000000000    0.50000000000000             2
    0.20000000000000    0.10000000000000    0.50000000000000             2
    0.30000000000000    0.10000000000000    0.50000000000000             2
    0.40000000000000    0.10000000000000    0.50000000000000             2
    0.50000000000000    0.10000000000000    0.50000000000000             2
   -0.40000000000000    0.10000000000000    0.50000000000000             2
   -0.30000000000000    0.10000000000000    0.50000000000000             2
   -0.20000000000000    0.10000000000000    0.50000000000000             2
   -0.10000000000000    0.10000000000000    0.50000000000000             2
   -0.00000000000000    0.20000000000000    0.50000000000000             2
    0.10000000000000    0.20000000000000    0.50000000000000             2
    0.20000000000000    0.20000000000000    0.50000000000000             2
    0.30000000000000    0.20000000000000    0.50000000000000             2
    0.40000000000000    0.20000000000000    0.50000000000000             2
    0.50000000000000    0.20000000000000    0.50000000000000             2
   -0.40000000000000    0.20000000000000    0.50000000000000             2
   -0.30000000000000    0.20000000000000    0.50000000000000             2
   -0.20000000000000    0.20000000000000    0.50000000000000             2
   -0.10000000000000    0.20000000000000    0.50000000000000             2
    0.00000000000000    0.30000000000000    0.50000000000000             2
    0.10000000000000    0.30000000000000    0.50000000000000             2
    0.20000000000000    0.30000000000000    0.50000000000000             2
    0.30000000000000    0.30000000000000    0.50000000000000             2
    0.40000000000000    0.30000000000000    0.50000000000000             2
    0.50000000000000    0.30000000000000    0.50000000000000             2
   -0.40000000000000    0.30000000000000    0.50000000000000             2
   -0.30000000000000    0.30000000000000    0.50000000000000             2
   -0.20000000000000    0.30000000000000    0.50000000000000             2
   -0.10000000000000    0.30000000000000    0.50000000000000             2
    0.00000000000000    0.40000000000000    0.50000000000000             2
    0.10000000000000    0.40000000000000    0.50000000000000             2
    0.20000000000000    0.40000000000000    0.50000000000000             2
    0.30000000000000    0.40000000000000    0.50000000000000             2
    0.40000000000000    0.40000000000000    0.50000000000000             2
    0.50000000000000    0.40000000000000    0.50000000000000             2
   -0.40000000000000    0.40000000000000    0.50000000000000             2
   -0.30000000000000    0.40000000000000    0.50000000000000             2
   -0.20000000000000    0.40000000000000    0.50000000000000             2
   -0.10000000000000    0.40000000000000    0.50000000000000             2
    0.00000000000000    0.50000000000000    0.50000000000000             1
    0.10000000000000    0.50000000000000    0.50000000000000             2
    0.20000000000000    0.50000000000000    0.50000000000000             2
    0.30000000000000    0.50000000000000    0.50000000000000             2
    0.40000000000000    0.50000000000000    0.50000000000000             2
    0.50000000000000    0.50000000000000    0.50000000000000             1
Tetrahedra
      2400    0.00020833333333
         2         1         2         7        54
         2         2         7         8        54
         2         7         8        54        60
         2         1         7        53        54
         2         7        53        54        59
         2         7        54        59        60
         2         2         3         8        55
         2         3         8         9        55
         2         8         9        55        61
         2         2         8        54        55
         2         8        54        55        60
         2         8        55        60        61
         2         3         4         9        56
         2         4         9        10        56
         2         9        10        56        62
         2         3         9        55        56
         2         9        55        56        61
         2         9        56        61        62
         2         4         5        10        57
         2         5        10        11        57
         2        10        11        57        63
         2         4        10        56        57
         2        10        56        57        62
         2        10        57        62        63
         2         5         6        11        58
         2         6        11        12        58
         2        11        12        58        64
         2         5        11        57        58
         2        11        57        58        63
         2        11        58        63        64
         2         5         6        12        57
         2         5        12        13        57
         2        12        13        57        65
         2         6        12        57        58
         2        12        57        58        64
         2        12        57        64        65
         2         4         5        13        56
         2         4        13        14        56
         2        13        14        56        66
         2         5        13        56        57
         2        13        56        57        65
         2        13        56        65        66
         2         3         4        14        55
         2         3        14        15        55
         2        14        15        55        67
         2         4        14        55        56
         2        14        55        56        66
         2        14        55        66        67
         2         2         3        15        54
         2         2        15        16        54
         2        15        16        54        68
         2         3        15        54        55
         2        15        54        55        67
         2        15        54        67        68
         2         1         2        16        53
         2         1         7        16        53
         2         7        16        53        59
         2         2        16        53        54
         2        16        53        54        68
         2        16        53        59        68
         2         7         8        17        60
         2         8        17        18        60
         2        17        18        60        70
         2         7        17        59        60
         2        17        59        60        69
         2        17        60        69        70
         2         8         9        18        61
         2         9        18        19        61
         2        18        19        61        71
         2         8        18        60        61
         2        18        60        61        70
         2        18        61        70        71
         2         9        10        19        62
         2        10        19        20        62
         2        19        20        62        72
         2         9        19        61        62
         2        19        61        62        71
         2        19        62        71        72
         2        10        11        20        63
         2        11        20        21        63
         2        20        21        63        73
         2        10        20        62        63
         2        20        62        63        72
         2        20        63        72        73
         2        11        12        21        64
         2        12        21        22        64
         2        21        22        64        74
         2        11        21        63        64
         2        21        63        64        73
         2        21        64        73        74
         2        12        13        22        65
         2        13        22        23        65
         2        22        23        65        75
         2        12        22        64        65
         2        22        64        65        74
         2        22        65        74        75
         2        13        14        23        66
         2        14        23        24        66
         2        23        24        66        76
         2        13        23        65        66
         2        23        65        66        75
         2        23        66        75        76
         2        14        15        24        67
         2        15        24        25        67
         2        24        25        67        77
         2        14        24        66        67
         2        24        66        67        76
         2        24        67        76        77
         2        15        16        25        68
         2        16        25        26        68
         2        25        26        68        78
         2        15        25        67        68
         2        25        67        68        77
         2        25        68        77        78
         2         7        16        26        59
         2         7        17        26        59
         2        17        26        59        69
         2        16        26        59        68
         2        26        59        68        78
         2        26        59        69        78
         2        17        18        27        70
         2        18        27        28        70
         2        27        28        70        80
         2        17        27        69        70
         2        27        69        70        79
         2        27        70        79        80
         2        18        19        28        71
         2        19        28        29        71
         2        28        29        71        81
         2        18        28        70        71
         2        28        70        71        80
         2        28        71        80        81
         2        19        20        29        72
         2        20        29        30        72
         2        29        30        72        82
         2        19        29        71        72
         2        29        71        72        81
         2        29        72        81        82
         2        20        21        30        73
         2        21        30        31        73
         2        30        31        73        83
         2        20        30        72        73
         2        30        72        73        82
         2        30        73        82        83
         2        21        22        31        74
         2        22        31        32        74
         2        31        32        74        84
         2        21        31        73        74
         2        31        73        74        83
         2        31        74        83        84
         2        22        23        32        75
         2        23        32        33        75
         2        32        33        75        85
         2        22        32        74        75
         2        32        74        75        84
         2        32        75        84        85
         2        23        24        33        76
         2        24        33        34        76
         2        33        34        76        86
         2        23        33        75        76
         2        33        75        76        85
         2        33        76        85        86
         2        24        25        34        77
         2        25        34        35        77
         2        34        35        77        87
         2        24        34        76        77
         2        34        76        77        86
         2        34        77        86        87
         2        25        26        35        78
         2        26        35        36        78
         2        35        36        78        88
         2        25        35        77        78
         2        35        77        78        87
         2        35        78        87        88
         2        17        26        36        69
         2        17        27        36        69
         2        27        36        69        79
         2        26        36        69        78
         2        36        69        78        88
         2        36        69        79        88
         2        27        28        37        80
         2        28        37        38        80
         2        37        38        80        90
         2        27        37        79        80
         2        37        79        80        89
         2        37        80        89        90
         2        28        29        38        81
         2        29        38        39        81
         2        38        39        81        91
         2        28        38        80        81
         2        38        80        81        90
         2        38        81        90        91
         2        29        30        39        82
         2        30        39        40        82
         2        39        40        82        92
         2        29        39        81        82
         2        39        81        82        91
         2        39        82        91        92
         2        30        31        40        83
         2        31        40        41        83
         2        40        41        83        93
         2        30        40        82        83
         2        40        82        83        92