 running on   12 total cores
 distrk:  each k-point on   12 cores,    1 groups
 distr:  one band on    6 cores,    2 groups
 using from now: INCAR     
 vasp.6.1.2 22Jul20 (build Mar 20 2021 11:25:07) complex                        
  
 POSCAR found type information on POSCAR LiN 
 POSCAR found :  2 types and       4 ions
 scaLAPACK will be used
 -----------------------------------------------------------------------------
|                                                                             |
|               ----> ADVICE to this user running VASP <----                  |
|                                                                             |
|     You have a (more or less) 'small supercell' and for smaller cells       |
|     it is recommended to use the reciprocal-space projection scheme!        |
|     The real-space optimization is not efficient for small cells and it     |
|     is also less accurate ...                                               |
|     Therefore, set LREAL=.FALSE. in the INCAR file.                         |
|                                                                             |
 -----------------------------------------------------------------------------

 LDA part: xc-table for Pade appr. of Perdew
 generate k-points for:   10   10    8
 POSCAR, INCAR and KPOINTS ok, starting setup
 FFT: planning ...
 WAVECAR not read
 entering main loop
       N       E                     dE             d eps       ncg     rms          rms(c)
DAV:   1     0.603752689271E+02    0.60375E+02   -0.63238E+03 12480   0.118E+03
DAV:   2    -0.831176842730E+01   -0.68687E+02   -0.64115E+02 16088   0.251E+02
DAV:   3    -0.178572311214E+02   -0.95455E+01   -0.94847E+01 21000   0.730E+01
DAV:   4    -0.185710310217E+02   -0.71380E+00   -0.71305E+00 18280   0.185E+01
DAV:   5    -0.185822174340E+02   -0.11186E-01   -0.11186E-01 18192   0.260E+00    0.141E+01
RMM:   6    -0.156194251053E+02    0.29628E+01   -0.86954E+00 14380   0.162E+01    0.661E+00
RMM:   7    -0.156412686358E+02   -0.21844E-01   -0.76208E-01 16375   0.929E+00    0.242E+00
RMM:   8    -0.155817556605E+02    0.59513E-01   -0.32370E-01 20343   0.396E+00    0.136E+00
RMM:   9    -0.155926535035E+02   -0.10898E-01   -0.14140E-01 19356   0.300E+00    0.501E-01
RMM:  10    -0.155975282191E+02   -0.48747E-02   -0.54941E-02 21756   0.171E+00    0.266E-01
RMM:  11    -0.156003007182E+02   -0.27725E-02   -0.22778E-02 21945   0.929E-01    0.129E-01
RMM:  12    -0.156015955665E+02   -0.12948E-02   -0.92783E-03 21910   0.690E-01    0.524E-02
RMM:  13    -0.156022079125E+02   -0.61235E-03   -0.48292E-03 22348   0.414E-01    0.472E-02
RMM:  14    -0.156024234765E+02   -0.21556E-03   -0.19541E-03 21168   0.257E-01    0.187E-02
RMM:  15    -0.156025306776E+02   -0.10720E-03   -0.96629E-04 20315   0.172E-01    0.530E-03
RMM:  16    -0.156025844542E+02   -0.53777E-04   -0.44437E-04 18898   0.116E-01    0.693E-03
RMM:  17    -0.156026100346E+02   -0.25580E-04   -0.22601E-04 17870   0.820E-02    0.684E-03
RMM:  18    -0.156026236532E+02   -0.13619E-04   -0.11883E-04 17113   0.635E-02    0.137E-02
RMM:  19    -0.156026297270E+02   -0.60738E-05   -0.60418E-05 15777   0.500E-02
   1 F= -.15602630E+02 E0= -.15602630E+02  d E =0.000000E+00  mag=     0.0000
