   96   96    1    2
  0.8658485E+01  0.9433855E-09  0.9433854E-09  0.9433855E-09  0.5000000E-15
  1.000000000000000E-004
  CAR 
 unknown system                          
    368      8    264
 
  0.0000000E+00  0.0000000E+00  0.0000000E+00  0.3703704E-01
    1      -40.860901    -40.860897   1.000000   1.000000
    2      -40.859286    -40.859282   1.000000   1.000000
    3      -40.856209    -40.856206   1.000000   1.000000
    4      -40.854845    -40.854842   1.000000   1.000000
    5      -40.808139    -40.808131   1.000000   1.000000
    6      -40.805693    -40.805685   1.000000   1.000000
    7      -40.803873    -40.803864   1.000000   1.000000
    8      -40.800678    -40.800670   1.000000   1.000000
    9      -40.766391    -40.766378   1.000000   1.000000
   10      -40.765063    -40.765050   1.000000   1.000000
   11      -40.761549    -40.761535   1.000000   1.000000
   12      -40.760315    -40.760302   1.000000   1.000000
   13      -40.686959    -40.686949   1.000000   1.000000
   14      -40.686935    -40.686924   1.000000   1.000000
   15      -40.547006    -40.546994   1.000000   1.000000
   16      -40.545407    -40.545395   1.000000   1.000000
   17      -40.536707    -40.536695   1.000000   1.000000
   18      -40.536487    -40.536475   1.000000   1.000000
   19      -40.525851    -40.525843   1.000000   1.000000
   20      -40.519472    -40.519463   1.000000   1.000000
   21      -40.515713    -40.515706   1.000000   1.000000
   22      -40.511079    -40.511070   1.000000   1.000000
   23      -40.495282    -40.495274   1.000000   1.000000
   24      -40.494169    -40.494159   1.000000   1.000000
   25      -40.484047    -40.484038   1.000000   1.000000
   26      -40.479771    -40.479763   1.000000   1.000000
   27      -40.460447    -40.460435   1.000000   1.000000
   28      -40.459248    -40.459235   1.000000   1.000000
   29      -40.457756    -40.457744   1.000000   1.000000
   30      -40.456549    -40.456539   1.000000   1.000000
   31      -40.440027    -40.440020   1.000000   1.000000
   32      -40.437393    -40.437385   1.000000   1.000000
   33      -40.427822    -40.427818   1.000000   1.000000
   34      -40.426560    -40.426555   1.000000   1.000000
   35      -40.408917    -40.408907   1.000000   1.000000
   36      -40.408704    -40.408695   1.000000   1.000000
   37      -40.407647    -40.407637   1.000000   1.000000
   38      -40.406347    -40.406338   1.000000   1.000000
   39      -40.312021    -40.312020   1.000000   1.000000
   40      -40.309787    -40.309785   1.000000   1.000000
   41      -40.281522    -40.281516   1.000000   1.000000
   42      -40.280123    -40.280118   1.000000   1.000000
   43      -40.266149    -40.266145   1.000000   1.000000
   44      -40.266147    -40.266144   1.000000   1.000000
   45      -40.261219    -40.261216   1.000000   1.000000
   46      -40.261097    -40.261094   1.000000   1.000000
   47      -40.247354    -40.247342   1.000000   1.000000
   48      -40.247323    -40.247312   1.000000   1.000000
   49      -40.221282    -40.221273   1.000000   1.000000
   50      -40.220481    -40.220471   1.000000   1.000000
   51      -39.913430    -39.913396   1.000000   1.000000
   52      -39.913270    -39.913235   1.000000   1.000000
   53      -39.863174    -39.863139   1.000000   1.000000
   54      -39.858136    -39.858101   1.000000   1.000000
   55      -39.838550    -39.838526   1.000000   1.000000
   56      -39.838546    -39.838522   1.000000   1.000000
   57      -12.903840    -12.903847   1.000000   1.000000
   58      -12.899102    -12.899107   1.000000   1.000000
   59      -12.776879    -12.776891   1.000000   1.000000
   60      -12.776014    -12.776025   1.000000   1.000000
   61      -12.766585    -12.766597   1.000000   1.000000
   62      -12.763499    -12.763511   1.000000   1.000000
   63      -12.755659    -12.755671   1.000000   1.000000
   64      -12.753686    -12.753699   1.000000   1.000000
   65       -9.729715     -9.729727   1.000000   1.000000
   66       -9.700658     -9.700664   1.000000   1.000000
   67       -9.695049     -9.695062   1.000000   1.000000
   68       -9.691069     -9.691074   1.000000   1.000000
   69       -9.593515     -9.593525   1.000000   1.000000
   70       -9.590555     -9.590566   1.000000   1.000000
   71       -9.581710     -9.581721   1.000000   1.000000
   72       -9.580059     -9.580070   1.000000   1.000000
   73       -9.490379     -9.490389   1.000000   1.000000
   74       -9.437349     -9.437358   1.000000   1.000000
   75       -9.390715     -9.390726   1.000000   1.000000
   76       -9.388063     -9.388075   1.000000   1.000000
   77       -9.387163     -9.387176   1.000000   1.000000
   78       -9.368081     -9.368094   1.000000   1.000000
   79       -9.285265     -9.285278   1.000000   1.000000
   80       -9.283132     -9.283142   1.000000   1.000000
   81       -9.268207     -9.268217   1.000000   1.000000
   82       -9.249486     -9.249499   1.000000   1.000000
   83       -9.203837     -9.203851   1.000000   1.000000
   84       -9.193974     -9.193988   1.000000   1.000000
   85       -9.178852     -9.178866   1.000000   1.000000
   86       -9.175060     -9.175074   1.000000   1.000000
   87       -9.150811     -9.150825   1.000000   1.000000
   88       -9.131863     -9.131877   1.000000   1.000000
   89       -2.988900     -2.988907   1.000000   1.000000
   90       -2.740966     -2.740973   1.000000   1.000000
   91       -2.728311     -2.728318   1.000000   1.000000
   92       -2.671533     -2.671541   1.000000   1.000000
   93       -2.651848     -2.651856   1.000000   1.000000
   94       -2.598652     -2.598662   1.000000   1.000000
   95       -2.597497     -2.597506   1.000000   1.000000
   96       -2.561199     -2.561206   1.000000   1.000000
   97       -1.185748     -1.185752   1.000000   1.000000
   98       -1.172109     -1.172114   1.000000   1.000000
   99       -1.132338     -1.132342   1.000000   1.000000
  100       -1.111035     -1.111039   1.000000   1.000000
  101       -1.084979     -1.084983   1.000000   1.000000
  102       -1.079610     -1.079614   1.000000   1.000000
  103       -0.935210     -0.935213   1.000000   1.000000
  104       -0.887911     -0.887916   1.000000   1.000000
  105       -0.858143     -0.858148   1.000000   1.000000
  106       -0.838610     -0.838617   1.000000   1.000000
  107       -0.818489     -0.818494   1.000000   1.000000
  108       -0.783651     -0.783656   1.000000   1.000000
  109       -0.774644     -0.774649   1.000000   1.000000
  110       -0.701892     -0.701899   1.000000   1.000000
  111       -0.659223     -0.659228   1.000000   1.000000
  112       -0.516242     -0.516247   1.000000   1.000000
  113       -0.500859     -0.500864   1.000000   1.000000
  114       -0.463370     -0.463377   1.000000   1.000000
  115       -0.433021     -0.433027   1.000000   1.000000
  116       -0.386097     -0.386101   1.000000   1.000000
  117       -0.365681     -0.365687   1.000000   1.000000
  118       -0.310120     -0.310127   1.000000   1.000000
  119       -0.238270     -0.238276   1.000000   1.000000
  120       -0.228783     -0.228791   1.000000   1.000000
  121        1.096939      1.096936   1.000000   1.000000
  122        1.115093      1.115091   1.000000   1.000000
  123        1.299921      1.299918   1.000000   1.000000
  124        1.300571      1.300568   1.000000   1.000000
  125        1.332296      1.332293   1.000000   1.000000
  126        1.374448      1.374445   1.000000   1.000000
  127        1.379222      1.379220   1.000000   1.000000
  128        1.406222      1.406220   1.000000   1.000000
  129        1.419391      1.419391   1.000000   1.000000
  130        1.469508      1.469506   1.000000   1.000000
  131        1.491891      1.491885   1.000000   1.000000
  132        1.500198      1.500193   1.000000   1.000000
  133        1.538933      1.538929   1.000000   1.000000
  134        1.628121      1.628117   1.000000   1.000000
  135        1.689744      1.689737   1.000000   1.000000
  136        1.731454      1.731446   1.000000   1.000000
  137        1.758448      1.758444   1.000000   1.000000
  138        1.779648      1.779642   1.000000   1.000000
  139        1.790902      1.790900   1.000000   1.000000
  140        1.879138      1.879135   1.000000   1.000000
  141        1.897281      1.897277   1.000000   1.000000
  142        1.909253      1.909245   1.000000   1.000000
  143        1.934636      1.934630   1.000000   1.000000
  144        1.973117      1.973110   1.000000   1.000000
  145        1.995834      1.995827   1.000000   1.000000
  146        2.011611      2.011605   1.000000   1.000000
  147        2.040482      2.040479   1.000000   1.000000
  148        2.071073      2.071065   1.000000   1.000000
  149        2.089816      2.089810   1.000000   1.000000
  150        2.094312      2.094306   1.000000   1.000000
  151        2.131411      2.131405   1.000000   1.000000
  152        2.257496      2.257488   1.000000   1.000000
  153        2.348738      2.348730   1.000000   1.000000
  154        2.356155      2.356148   1.000000   1.000000
  155        2.426565      2.426559   1.000000   1.000000
  156        2.438227      2.438220   1.000000   1.000000
  157        2.487959      2.487952   1.000000   1.000000
  158        2.549221      2.549217   1.000000   1.000000
  159        2.571593      2.571587   1.000000   1.000000
  160        2.600974      2.600968   1.000000   1.000000
  161        2.682084      2.682079   1.000000   1.000000
  162        2.700423      2.700417   1.000000   1.000000
  163        2.727405      2.727400   1.000000   1.000000
  164        2.749904      2.749899   1.000000   1.000000
  165        2.832771      2.832760   1.000000   1.000000
  166        2.920249      2.920241   1.000000   1.000000
  167        2.944428      2.944423   1.000000   1.000000
  168        2.952004      2.951996   1.000000   1.000000
  169        2.953016      2.953010   1.000000   1.000000
  170        3.188549      3.188542   1.000000   1.000000
  171        3.194546      3.194540   1.000000   1.000000
  172        3.215017      3.215009   1.000000   1.000000
  173        3.307098      3.307092   1.000000   1.000000
  174        3.325430      3.325425   1.000000   1.000000
  175        3.331212      3.331204   1.000000   1.000000
  176        3.442264      3.442257   1.000000   1.000000
  177        3.454885      3.454876   1.000000   1.000000
  178        3.515549      3.515544   1.000000   1.000000
  179        3.525145      3.525140   1.000000   1.000000
  180        3.548432      3.548425   1.000000   1.000000
  181        3.623371      3.623362   1.000000   1.000000
  182        3.680112      3.680105   1.000000   1.000000
  183        3.720060      3.720053   1.000000   1.000000
  184        3.760033      3.760025   1.000000   1.000000
  185        6.985854      6.985885   0.000000   0.000000
  186        7.126169      7.126188   0.000000   0.000000
  187        7.126417      7.126429   0.000000   0.000000
  188        7.383447      7.383446   0.000000   0.000000
  189        7.797133      7.797135   0.000000   0.000000
  190        8.152334      8.152335   0.000000   0.000000
  191        8.227840      8.227841   0.000000   0.000000
  192        8.306520      8.306522   0.000000   0.000000
  193        8.372821      8.372822   0.000000   0.000000
  194        8.407942      8.407948   0.000000   0.000000
  195        8.543773      8.543770   0.000000   0.000000
  196        8.784965      8.784962   0.000000   0.000000
  197        8.814286      8.814283   0.000000   0.000000
  198        8.989763      8.989762   0.000000   0.000000
  199        9.212435      9.212441   0.000000   0.000000
  200        9.222359      9.222359   0.000000   0.000000
  201        9.255180      9.255179   0.000000   0.000000
  202        9.329305      9.329301   0.000000   0.000000
  203        9.353909      9.353916   0.000000   0.000000
  204        9.374567      9.374575   0.000000   0.000000
  205        9.411797      9.411775   0.000000   0.000000
  206        9.553742      9.553744   0.000000   0.000000
  207        9.560191      9.560194   0.000000   0.000000
  208        9.628434      9.628437   0.000000   0.000000
  209        9.802238      9.802253   0.000000   0.000000
  210        9.846501      9.846546   0.000000   0.000000
  211        9.853945      9.853946   0.000000   0.000000
  212        9.908313      9.908310   0.000000   0.000000
  213       10.026536     10.026536   0.000000   0.000000
  214       10.192374     10.192351   0.000000   0.000000
  215       10.396926     10.396917   0.000000   0.000000
  216       10.513352     10.513350   0.000000   0.000000
  217       10.560523     10.560505   0.000000   0.000000
  218       10.632718     10.632683   0.000000   0.000000
  219       10.733159     10.733079   0.000000   0.000000
  220       10.854421     10.854365   0.000000   0.000000
  221       10.931036     10.931006   0.000000   0.000000
  222       10.989108     10.989092   0.000000   0.000000
  223       11.189634     11.189615   0.000000   0.000000
  224       11.212283     11.212270   0.000000   0.000000
  225       11.217201     11.217182   0.000000   0.000000
  226       11.449178     11.449172   0.000000   0.000000
  227       11.476258     11.476345   0.000000   0.000000
  228       11.574342     11.573844   0.000000   0.000000
  229       11.592995     11.592719   0.000000   0.000000
  230       11.612077     11.612079   0.000000   0.000000
  231       11.667214     11.667716   0.000000   0.000000
  232       11.834204     11.834130   0.000000   0.000000
  233       11.836224     11.836176   0.000000   0.000000
  234       11.849144     11.849234   0.000000   0.000000
  235       11.901696     11.902048   0.000000   0.000000
  236       11.988776     11.988615   0.000000   0.000000
  237       12.124106     12.124609   0.000000   0.000000
  238       12.128234     12.128359   0.000000   0.000000
  239       12.185027     12.184432   0.000000   0.000000
  240       12.203251     12.204317   0.000000   0.000000
  241       12.215776     12.212069   0.000000   0.000000
  242       12.558184     12.559810   0.000000   0.000000
  243       12.575865     12.574585   0.000000   0.000000
  244       12.671416     12.678854   0.000000   0.000000
  245       12.763632     12.762034   0.000000   0.000000
  246       12.769368     12.765670   0.000000   0.000000
  247       12.798768     12.805409   0.000000   0.000000
  248       12.944060     12.932837   0.000000   0.000000
  249       12.959323     12.953483   0.000000   0.000000
  250       13.072854     13.014827   0.000000   0.000000
  251       13.110022     13.108625   0.000000   0.000000
  252       13.154709     13.139318   0.000000   0.000000
  253       13.166336     13.172977   0.000000   0.000000
  254       13.213199     13.197997   0.000000   0.000000
  255       13.222049     13.240375   0.000000   0.000000
  256       13.289698     13.284702   0.000000   0.000000
  257       13.292739     13.327630   0.000000   0.000000
  258       13.369037     13.365927   0.000000   0.000000
  259       13.449675     13.407592   0.000000   0.000000
  260       13.569442     13.479050   0.000000   0.000000
  261       13.675238     13.607463   0.000000   0.000000
  262       13.784827     13.787428   0.000000   0.000000
  263       13.960887     13.797580   0.000000   0.000000
  264       14.072239     14.176025   0.000000   0.000000
 
  0.3333333E+00  0.2215118E-17  0.0000000E+00  0.1481481E+00
    1      -40.860355    -40.860351   1.000000   1.000000
    2      -40.859457    -40.859453   1.000000   1.000000
    3      -40.855728    -40.855725   1.000000   1.000000
    4      -40.854965    -40.854961   1.000000   1.000000
    5      -40.808378    -40.808369   1.000000   1.000000
    6      -40.807255    -40.807247   1.000000   1.000000
    7      -40.803006    -40.802998   1.000000   1.000000
    8      -40.801655    -40.801646   1.000000   1.000000
    9      -40.765449    -40.765436   1.000000   1.000000
   10      -40.764365    -40.764352   1.000000   1.000000
   11      -40.762342    -40.762328   1.000000   1.000000
   12      -40.760200    -40.760186   1.000000   1.000000
   13      -40.686955    -40.686944   1.000000   1.000000
   14      -40.686778    -40.686767   1.000000   1.000000
   15      -40.546459    -40.546448   1.000000   1.000000
   16      -40.545289    -40.545277   1.000000   1.000000
   17      -40.537671    -40.537659   1.000000   1.000000
   18      -40.536619    -40.536607   1.000000   1.000000
   19      -40.524307    -40.524299   1.000000   1.000000
   20      -40.519739    -40.519731   1.000000   1.000000
   21      -40.515089    -40.515080   1.000000   1.000000
   22      -40.512249    -40.512241   1.000000   1.000000
   23      -40.495406    -40.495396   1.000000   1.000000
   24      -40.493317    -40.493308   1.000000   1.000000
   25      -40.485268    -40.485258   1.000000   1.000000
   26      -40.481184    -40.481175   1.000000   1.000000
   27      -40.460669    -40.460657   1.000000   1.000000
   28      -40.459848    -40.459836   1.000000   1.000000
   29      -40.456694    -40.456682   1.000000   1.000000
   30      -40.456045    -40.456034   1.000000   1.000000
   31      -40.438605    -40.438599   1.000000   1.000000
   32      -40.436327    -40.436320   1.000000   1.000000
   33      -40.429769    -40.429764   1.000000   1.000000
   34      -40.426813    -40.426808   1.000000   1.000000
   35      -40.411576    -40.411567   1.000000   1.000000
   36      -40.408442    -40.408433   1.000000   1.000000
   37      -40.406708    -40.406700   1.000000   1.000000
   38      -40.404391    -40.404382   1.000000   1.000000
   39      -40.311338    -40.311337   1.000000   1.000000
   40      -40.307382    -40.307382   1.000000   1.000000
   41      -40.288094    -40.288086   1.000000   1.000000
   42      -40.280798    -40.280793   1.000000   1.000000
   43      -40.266228    -40.266224   1.000000   1.000000
   44      -40.264930    -40.264926   1.000000   1.000000
   45      -40.262403    -40.262400   1.000000   1.000000
   46      -40.261210    -40.261207   1.000000   1.000000
   47      -40.247363    -40.247351   1.000000   1.000000
   48      -40.238555    -40.238545   1.000000   1.000000
   49      -40.225595    -40.225585   1.000000   1.000000
   50      -40.220861    -40.220851   1.000000   1.000000
   51      -39.913413    -39.913378   1.000000   1.000000
   52      -39.913223    -39.913189   1.000000   1.000000
   53      -39.863180    -39.863145   1.000000   1.000000
   54      -39.858150    -39.858116   1.000000   1.000000
   55      -39.838620    -39.838596   1.000000   1.000000
   56      -39.838557    -39.838533   1.000000   1.000000
   57      -12.902078    -12.902084   1.000000   1.000000
   58      -12.899744    -12.899750   1.000000   1.000000
   59      -12.777354    -12.777368   1.000000   1.000000
   60      -12.776006    -12.776017   1.000000   1.000000
   61      -12.766439    -12.766451   1.000000   1.000000
   62      -12.764618    -12.764630   1.000000   1.000000
   63      -12.754908    -12.754920   1.000000   1.000000
   64      -12.754326    -12.754338   1.000000   1.000000
   65       -9.730223     -9.730235   1.000000   1.000000
   66       -9.697186     -9.697197   1.000000   1.000000
   67       -9.694274     -9.694281   1.000000   1.000000
   68       -9.690232     -9.690237   1.000000   1.000000
   69       -9.600911     -9.600922   1.000000   1.000000
   70       -9.593812     -9.593823   1.000000   1.000000
   71       -9.578830     -9.578841   1.000000   1.000000
   72       -9.576333     -9.576344   1.000000   1.000000
   73       -9.479020     -9.479030   1.000000   1.000000
   74       -9.445778     -9.445787   1.000000   1.000000
   75       -9.408217     -9.408229   1.000000   1.000000
   76       -9.384762     -9.384774   1.000000   1.000000
   77       -9.373871     -9.373884   1.000000   1.000000
   78       -9.366286     -9.366298   1.000000   1.000000
   79       -9.298682     -9.298694   1.000000   1.000000
   80       -9.280446     -9.280456   1.000000   1.000000
   81       -9.261214     -9.261225   1.000000   1.000000
   82       -9.239694     -9.239706   1.000000   1.000000
   83       -9.212707     -9.212720   1.000000   1.000000
   84       -9.187056     -9.187071   1.000000   1.000000
   85       -9.178398     -9.178411   1.000000   1.000000
   86       -9.171995     -9.172009   1.000000   1.000000
   87       -9.155036     -9.155051   1.000000   1.000000
   88       -9.140498     -9.140512   1.000000   1.000000
   89       -2.934097     -2.934104   1.000000   1.000000
   90       -2.813662     -2.813670   1.000000   1.000000
   91       -2.708651     -2.708659   1.000000   1.000000
   92       -2.696418     -2.696426   1.000000   1.000000
   93       -2.636285     -2.636292   1.000000   1.000000
   94       -2.604720     -2.604728   1.000000   1.000000
   95       -2.589313     -2.589321   1.000000   1.000000
   96       -2.577231     -2.577239   1.000000   1.000000
   97       -1.178273     -1.178278   1.000000   1.000000
   98       -1.156599     -1.156603   1.000000   1.000000
   99       -1.125982     -1.125986   1.000000   1.000000
  100       -1.072727     -1.072731   1.000000   1.000000
  101       -1.035288     -1.035292   1.000000   1.000000
  102       -1.017723     -1.017727   1.000000   1.000000
  103       -0.959750     -0.959753   1.000000   1.000000
  104       -0.927418     -0.927424   1.000000   1.000000
  105       -0.854677     -0.854682   1.000000   1.000000
  106       -0.837945     -0.837951   1.000000   1.000000
  107       -0.819441     -0.819447   1.000000   1.000000
  108       -0.741537     -0.741542   1.000000   1.000000
  109       -0.714141     -0.714147   1.000000   1.000000
  110       -0.686705     -0.686710   1.000000   1.000000
  111       -0.634794     -0.634799   1.000000   1.000000
  112       -0.578174     -0.578180   1.000000   1.000000
  113       -0.534945     -0.534951   1.000000   1.000000
  114       -0.483645     -0.483650   1.000000   1.000000
  115       -0.474211     -0.474217   1.000000   1.000000
  116       -0.411717     -0.411723   1.000000   1.000000
  117       -0.385849     -0.385855   1.000000   1.000000
  118       -0.348000     -0.348005   1.000000   1.000000
  119       -0.257599     -0.257606   1.000000   1.000000
  120       -0.226069     -0.226077   1.000000   1.000000
  121        1.138207      1.138204   1.000000   1.000000
  122        1.164089      1.164086   1.000000   1.000000
  123        1.243420      1.243417   1.000000   1.000000
  124        1.270518      1.270516   1.000000   1.000000
  125        1.327606      1.327602   1.000000   1.000000
  126        1.340070      1.340066   1.000000   1.000000
  127        1.367624      1.367621   1.000000   1.000000
  128        1.386358      1.386354   1.000000   1.000000
  129        1.407854      1.407851   1.000000   1.000000
  130        1.423164      1.423161   1.000000   1.000000
  131        1.436700      1.436698   1.000000   1.000000
  132        1.477750      1.477747   1.000000   1.000000
  133        1.548359      1.548357   1.000000   1.000000
  134        1.565139      1.565136   1.000000   1.000000
  135        1.587471      1.587468   1.000000   1.000000
  136        1.690286      1.690283   1.000000   1.000000
  137        1.739090      1.739086   1.000000   1.000000
  138        1.783651      1.783646   1.000000   1.000000
  139        1.806812      1.806807   1.000000   1.000000
  140        1.863627      1.863621   1.000000   1.000000
  141        1.875315      1.875310   1.000000   1.000000
  142        1.926284      1.926279   1.000000   1.000000
  143        1.948597      1.948591   1.000000   1.000000
  144        1.968352      1.968346   1.000000   1.000000
  145        1.985557      1.985552   1.000000   1.000000
  146        2.017917      2.017910   1.000000   1.000000
  147        2.072475      2.072469   1.000000   1.000000
  148        2.086366      2.086360   1.000000   1.000000
  149        2.116160      2.116152   1.000000   1.000000
  150        2.215329      2.215323   1.000000   1.000000
  151        2.240113      2.240106   1.000000   1.000000
  152        2.266457      2.266450   1.000000   1.000000
  153        2.353946      2.353939   1.000000   1.000000
  154        2.359690      2.359684   1.000000   1.000000
  155        2.408719      2.408713   1.000000   1.000000
  156        2.491719      2.491713   1.000000   1.000000
  157        2.567195      2.567187   1.000000   1.000000
  158        2.593275      2.593269   1.000000   1.000000
  159        2.617699      2.617692   1.000000   1.000000
  160        2.651592      2.651584   1.000000   1.000000
  161        2.671579      2.671571   1.000000   1.000000
  162        2.721922      2.721914   1.000000   1.000000
  163        2.815977      2.815970   1.000000   1.000000
  164        2.846527      2.846520   1.000000   1.000000
  165        2.912116      2.912109   1.000000   1.000000
  166        2.938010      2.938004   1.000000   1.000000
  167        2.970198      2.970192   1.000000   1.000000
  168        3.012872      3.012866   1.000000   1.000000
  169        3.020946      3.020941   1.000000   1.000000
  170        3.161954      3.161946   1.000000   1.000000
  171        3.187360      3.187354   1.000000   1.000000
  172        3.236882      3.236875   1.000000   1.000000
  173        3.242697      3.242691   1.000000   1.000000
  174        3.254233      3.254227   1.000000   1.000000
  175        3.329673      3.329666   1.000000   1.000000
  176        3.389589      3.389582   1.000000   1.000000
  177        3.415857      3.415850   1.000000   1.000000
  178        3.440957      3.440951   1.000000   1.000000
  179        3.480171      3.480165   1.000000   1.000000
  180        3.506001      3.505994   1.000000   1.000000
  181        3.576756      3.576748   1.000000   1.000000
  182        3.599133      3.599126   1.000000   1.000000
  183        3.633368      3.633360   1.000000   1.000000
  184        3.666711      3.666703   1.000000   1.000000
  185        7.222831      7.222833   0.000000   0.000000
  186        7.364352      7.364364   0.000000   0.000000
  187        7.466327      7.466328   0.000000   0.000000
  188        7.624130      7.624134   0.000000   0.000000
  189        7.743736      7.743736   0.000000   0.000000
  190        8.117985      8.117985   0.000000   0.000000
  191        8.255078      8.255077   0.000000   0.000000
  192        8.275392      8.275392   0.000000   0.000000
  193        8.317970      8.317971   0.000000   0.000000
  194        8.352350      8.352352   0.000000   0.000000
  195        8.568439      8.568442   0.000000   0.000000
  196        8.624859      8.624859   0.000000   0.000000
  197        8.769535      8.769534   0.000000   0.000000
  198        8.853117      8.853120   0.000000   0.000000
  199        8.922551      8.922550   0.000000   0.000000
  200        8.973269      8.973274   0.000000   0.000000
  201        9.107037      9.107040   0.000000   0.000000
  202        9.169761      9.169762   0.000000   0.000000
  203        9.217461      9.217462   0.000000   0.000000
  204        9.290817      9.290818   0.000000   0.000000
  205        9.404379      9.404385   0.000000   0.000000
  206        9.479063      9.479065   0.000000   0.000000
  207        9.522141      9.522147   0.000000   0.000000
  208        9.613227      9.613227   0.000000   0.000000
  209        9.698442      9.698432   0.000000   0.000000
  210        9.734203      9.734216   0.000000   0.000000
  211        9.835416      9.835418   0.000000   0.000000
  212        9.882281      9.882272   0.000000   0.000000
  213        9.980157      9.980129   0.000000   0.000000
  214       10.135178     10.135190   0.000000   0.000000
  215       10.318301     10.318300   0.000000   0.000000
  216       10.392601     10.392608   0.000000   0.000000
  217       10.553595     10.553596   0.000000   0.000000
  218       10.704462     10.704462   0.000000   0.000000
  219       10.756155     10.756150   0.000000   0.000000
  220       10.918368     10.918403   0.000000   0.000000
  221       10.959557     10.959824   0.000000   0.000000
  222       10.988021     10.988015   0.000000   0.000000
  223       11.099305     11.099340   0.000000   0.000000
  224       11.256545     11.256607   0.000000   0.000000
  225       11.379812     11.379815   0.000000   0.000000
  226       11.461396     11.461364   0.000000   0.000000
  227       11.504290     11.504406   0.000000   0.000000
  228       11.593192     11.593246   0.000000   0.000000
  229       11.682819     11.682525   0.000000   0.000000
  230       11.740515     11.740323   0.000000   0.000000
  231       11.770527     11.770440   0.000000   0.000000
  232       11.832927     11.832925   0.000000   0.000000
  233       11.905390     11.904819   0.000000   0.000000
  234       11.943333     11.943234   0.000000   0.000000
  235       12.056129     12.056071   0.000000   0.000000
  236       12.073966     12.073775   0.000000   0.000000
  237       12.163404     12.164251   0.000000   0.000000
  238       12.215213     12.215045   0.000000   0.000000
  239       12.279113     12.278999   0.000000   0.000000
  240       12.347483     12.349633   0.000000   0.000000
  241       12.433310     12.433857   0.000000   0.000000
  242       12.469751     12.463938   0.000000   0.000000
  243       12.560459     12.546701   0.000000   0.000000
  244       12.616695     12.619381   0.000000   0.000000
  245       12.674707     12.673548   0.000000   0.000000
  246       12.809608     12.822190   0.000000   0.000000
  247       12.870434     12.865080   0.000000   0.000000