       N       E                     dE             d eps       ncg     rms          rms(c)
DAV:   1     0.349673963442E+04    0.34967E+04   -0.15311E+05  8448   0.156E+03
DAV:   2     0.400123325840E+02   -0.34567E+04   -0.31128E+04  9016   0.437E+02
DAV:   3    -0.446465069492E+03   -0.48648E+03   -0.47978E+03 11496   0.146E+02
DAV:   4    -0.517054734282E+03   -0.70590E+02   -0.69834E+02 15144   0.476E+01
DAV:   5    -0.523883468032E+03   -0.68287E+01   -0.68234E+01 13328   0.124E+01    0.747E+01
RMM:   6    -0.465259260363E+03    0.58624E+02   -0.21205E+02 10075   0.211E+01    0.327E+01
RMM:   7    -0.478535679431E+03   -0.13276E+02   -0.47770E+01 13568   0.122E+01    0.176E+01
RMM:   8    -0.481108681997E+03   -0.25730E+01   -0.11769E+01 15120   0.571E+00    0.916E+00
RMM:   9    -0.481859568459E+03   -0.75089E+00   -0.50635E+00 13741   0.430E+00    0.289E+00
RMM:  10    -0.481976044838E+03   -0.11648E+00   -0.23051E+00 15185   0.284E+00    0.156E+00
RMM:  11    -0.482077891291E+03   -0.10185E+00   -0.13634E+00 15693   0.164E+00    0.128E+00
RMM:  12    -0.482151447935E+03   -0.73557E-01   -0.64375E-01 15990   0.108E+00    0.102E+00
RMM:  13    -0.482182094268E+03   -0.30646E-01   -0.27054E-01 15557   0.736E-01    0.460E-01
RMM:  14    -0.482195442079E+03   -0.13348E-01   -0.12114E-01 15948   0.526E-01    0.116E-01
RMM:  15    -0.482202757829E+03   -0.73157E-02   -0.68374E-02 16000   0.363E-01    0.950E-02
RMM:  16    -0.482206390303E+03   -0.36325E-02   -0.33478E-02 16000   0.258E-01    0.770E-02
RMM:  17    -0.482208175969E+03   -0.17857E-02   -0.18451E-02 15127   0.189E-01    0.245E-02
RMM:  18    -0.482209336292E+03   -0.11603E-02   -0.11149E-02 14208   0.143E-01    0.261E-02
RMM:  19    -0.482209983455E+03   -0.64716E-03   -0.61356E-03 14208   0.107E-01    0.242E-02
RMM:  20    -0.482210356748E+03   -0.37329E-03   -0.37607E-03 14208   0.813E-02    0.142E-02
RMM:  21    -0.482210597396E+03   -0.24065E-03   -0.23884E-03 14096   0.632E-02    0.107E-02
RMM:  22    -0.482210740097E+03   -0.14270E-03   -0.15224E-03 13929   0.500E-02    0.364E-03
RMM:  23    -0.482210850337E+03   -0.11024E-03   -0.10238E-03 12608   0.396E-02    0.441E-03
RMM:  24    -0.482210914396E+03   -0.64060E-04   -0.67516E-04 11943   0.323E-02    0.944E-04
RMM:  25    -0.482210962369E+03   -0.47973E-04   -0.47113E-04 12090   0.274E-02    0.188E-03
RMM:  26    -0.482210995427E+03   -0.33058E-04   -0.31490E-04 10565   0.230E-02    0.343E-03
RMM:  27    -0.482211017037E+03   -0.21610E-04   -0.22483E-04 10484   0.205E-02    0.357E-03
RMM:  28    -0.482211032517E+03   -0.15480E-04   -0.16712E-04 10473   0.186E-02    0.362E-03
RMM:  29    -0.482211043914E+03   -0.11397E-04   -0.12620E-04 10325   0.170E-02    0.377E-03
RMM:  30    -0.482211050857E+03   -0.69432E-05   -0.79587E-05  9128   0.154E-02
   1 F= -.48221105E+03 E0= -.48221105E+03  d E =0.000000E+00  mag=    -0.0000
