 running on    8 total cores
 distrk:  each k-point on    8 cores,    1 groups
 distr:  one band on    1 cores,    8 groups
 using from now: INCAR     
 vasp.6.1.2 22Jul20 (build Mar 20 2021 11:25:07) complex                        
  
 POSCAR found type information on POSCAR P N 
 POSCAR found :  2 types and      16 ions
 scaLAPACK will be used
 -----------------------------------------------------------------------------
|                                                                             |
|           W    W    AA    RRRRR   N    N  II  N    N   GGGG   !!!           |
|           W    W   A  A   R    R  NN   N  II  NN   N  G    G  !!!           |
|           W    W  A    A  R    R  N N  N  II  N N  N  G       !!!           |
|           W WW W  AAAAAA  RRRRR   N  N N  II  N  N N  G  GGG   !            |
|           WW  WW  A    A  R   R   N   NN  II  N   NN  G    G                |
|           W    W  A    A  R    R  N    N  II  N    N   GGGG   !!!           |
|                                                                             |
|     The value NCORE = 6 specified in the INCAR file was overwritten,        |
|     because it was not compatible with the 8 processes available:           |
|     NCORE = 1                                                               |
|     was used instead, please check that this makes sense for your           |
|     machine.                                                                |
|                                                                             |
 -----------------------------------------------------------------------------

 -----------------------------------------------------------------------------
|                                                                             |
|           W    W    AA    RRRRR   N    N  II  N    N   GGGG   !!!           |
|           W    W   A  A   R    R  NN   N  II  NN   N  G    G  !!!           |
|           W    W  A    A  R    R  N N  N  II  N N  N  G       !!!           |
|           W WW W  AAAAAA  RRRRR   N  N N  II  N  N N  G  GGG   !            |
|           WW  WW  A    A  R   R   N   NN  II  N   NN  G    G                |
|           W    W  A    A  R    R  N    N  II  N    N   GGGG   !!!           |
|                                                                             |
|     For optimal performance we recommend to set                             |
|       NCORE = 4 - approx SQRT(number of cores).                             |
|     NCORE specifies how many cores store one orbital (NPAR=cpu/NCORE).      |
|     This setting can greatly improve the performance of VASP for DFT.       |
|     The default, NCORE=1 might be grossly inefficient on modern             |
|     multi-core architectures or massively parallel machines. Do your        |
|     own testing!!!!                                                         |
|     Unfortunately you need to use the default for GW and RPA                |
|     calculations (for HF NCORE is supported but not extensively tested      |
|     yet).                                                                   |
|                                                                             |
 -----------------------------------------------------------------------------

 LDA part: xc-table for Pade appr. of Perdew
 generate k-points for:    7    7    4
 POSCAR, INCAR and KPOINTS ok, starting setup
 FFT: planning ...
 WAVECAR not read
 entering main loop
       N       E                     dE             d eps       ncg     rms          rms(c)
DAV:   1     0.450994829980E+03    0.45099E+03   -0.38957E+04 13440   0.129E+03
DAV:   2    -0.960653281445E+02   -0.54706E+03   -0.52249E+03 17216   0.289E+02
DAV:   3    -0.134669477815E+03   -0.38604E+02   -0.38229E+02 16880   0.809E+01
DAV:   4    -0.135459109637E+03   -0.78963E+00   -0.78574E+00 17648   0.122E+01
DAV:   5    -0.135480115715E+03   -0.21006E-01   -0.20979E-01 16464   0.188E+00    0.407E+01
DAV:   6    -0.116399462362E+03    0.19081E+02   -0.64563E+01 15984   0.304E+01    0.198E+01
DAV:   7    -0.119187246855E+03   -0.27878E+01   -0.90500E+00 16264   0.112E+01    0.678E+00
DAV:   8    -0.119840123843E+03   -0.65288E+00   -0.13339E+00 16632   0.431E+00    0.399E+00
DAV:   9    -0.119849824435E+03   -0.97006E-02   -0.10060E-01 16216   0.155E+00    0.198E+00
DAV:  10    -0.119848619871E+03    0.12046E-02   -0.23095E-02 18144   0.791E-01    0.423E-01
DAV:  11    -0.119850797073E+03   -0.21772E-02   -0.53546E-03 16104   0.370E-01    0.252E-01
DAV:  12    -0.119851246696E+03   -0.44962E-03   -0.66799E-04 17920   0.131E-01    0.154E-01
DAV:  13    -0.119851476144E+03   -0.22945E-03   -0.21163E-04 15744   0.701E-02    0.584E-02
DAV:  14    -0.119851522175E+03   -0.46031E-04   -0.30818E-05 14128   0.270E-02    0.183E-02
DAV:  15    -0.119851531035E+03   -0.88600E-05   -0.99180E-06 10440   0.152E-02
   1 F= -.11985153E+03 E0= -.11985153E+03  d E =0.000000E+00  mag=     0.0001
