Automatically generated mesh
      12
Reciprocal lattice
    0.00000000000000    0.00000000000000    0.00000000000000             1
    0.20000000000000    0.00000000000000    0.00000000000000             2
    0.40000000000000    0.00000000000000    0.00000000000000             2
    0.00000000000000    0.33333333333334    0.00000000000000             2
    0.20000000000000    0.33333333333334    0.00000000000000             4
    0.40000000000000    0.33333333333334    0.00000000000000             4
    0.00000000000000    0.00000000000000    0.33333333333333             2
    0.20000000000000    0.00000000000000    0.33333333333333             4
    0.40000000000000    0.00000000000000    0.33333333333333             4
    0.00000000000000    0.33333333333334    0.33333333333333             4
    0.20000000000000    0.33333333333334    0.33333333333333             8
    0.40000000000000    0.33333333333334    0.33333333333333             8
Tetrahedra
       121    0.00370370370370
         2         1         2         5         7
         2         1         4         5         7
         2         4         5         7        10
         2         2         5         7         8
         2         5         7         8        11
         2         5         7        10        11
         2         2         3         6         8
         2         2         5         6         8
         2         5         6         8        11
         2         3         6         8         9
         2         6         8         9        12
         2         6         8        11        12
         2         3         3         6         9
         2         3         6         6         9
         2         6         6         9        12
         2         3         6         9         9
         2         6         9         9        12
         2         6         9        12        12
         2         2         3         5         9
         2         3         5         6         9
         2         5         6         9        12
         2         2         5         8         9
         2         5         8         9        11
         2         5         9        11        12
         2         1         2         4         8
         2         2         4         5         8
         2         4         5         8        11
         2         1         4         7         8
         2         4         7         8        10
         2         4         8        10        11
         2         4         5         5        10
         2         4         4         5        10
         2         4         5        10        10
         2         5         5        10        11
         2         5        10        11        11
         2         5        10        10        11
         2         5         6         6        11
         2         5         5         6        11
         2         5         6        11        11
         2         6         6        11        12
         2         6        11        12        12
         2         6        11        11        12
         4         6         6         6        12
         4         6         6        12        12
         4         6        12        12        12
         2         5         5         6        12
         2         5         6         6        12
         2         5         6        12        12
         2         5         5        11        12
         2         5        11        11        12
         2         5        11        12        12
         2         4         4         5        11
         2         4         5         5        11
         2         4         5        11        11
         2         4         4        10        11
         2         4        10        10        11
         2         4        10        11        11
         2         2         4         5        10
         2         1         2         4        10
         2         1         2         7        10
         2         2         5        10        11
         2         2         8        10        11
         2         2         7         8        10
         2         3         5         6        11
         2         2         3         5        11
         2         2         3         8        11
         2         3         6        11        12
         2         3         9        11        12
         2         3         8         9        11
         2         3         6         6        12
         2         3         3         6        12
         2         3         3         9        12
         2         3         6        12        12
         2         3         9        12        12
         2         3         9         9        12
         2         2         5         6        12
         2         2         3         6        12
         2         2         3         9        12
         2         2         5        11        12
         2         2         8        11        12
         2         2         8         9        12
         2         1         4         5        11
         2         1         2         5        11
         2         1         2         8        11
         2         1         4        10        11
         2         1         7        10        11
         2         1         7         8        11
         2         7         7         8        11
         2         7         7        10        11
         2         7        10        10        11
         2         7         8         8        11
         2         7         8        11        11
         2         7        10        11        11
         2         8         8         9        12
         2         8         8        11        12
         2         8        11        11        12
         2         8         9         9        12
         2         8         9        12        12
         2         8        11        12        12
         4         9         9         9        12
         4         9         9        12        12
         4         9        12        12        12
         2         8         9         9        11
         2         9         9        11        12
         2         9        11        12        12
         2         8         8         9        11
         2         8         9        11        11
         2         9        11        11        12
         2         7         8         8        10
         2         8         8        10        11
         2         8        10        11        11
         2         7         7         8        10
         2         7         8        10        10
         2         8        10        10        11
         4        10        10        11        11
         4        10        10        10        11
         4        10        11        11        11
         4        11        11        12        12
         4        11        11        11        12
         4        11        12        12        12
         6        12        12        12        12
