       N       E                     dE             d eps       ncg     rms          rms(c)
DAV:   1     0.108597117599E+04    0.10860E+04   -0.69587E+04  5856   0.135E+03
DAV:   2    -0.266797925115E+02   -0.11127E+04   -0.10258E+04  6824   0.296E+02
DAV:   3    -0.164768591565E+03   -0.13809E+03   -0.13621E+03  7880   0.980E+01
DAV:   4    -0.181023478669E+03   -0.16255E+02   -0.16148E+02 10672   0.293E+01
DAV:   5    -0.183864950424E+03   -0.28415E+01   -0.28399E+01  9344   0.834E+00    0.370E+01
DAV:   6    -0.183637147778E+03    0.22780E+00   -0.98412E+00  7592   0.729E+00    0.205E+01
DAV:   7    -0.185843235501E+03   -0.22061E+01   -0.36699E+00  7280   0.462E+00    0.124E+01
DAV:   8    -0.186722799423E+03   -0.87956E+00   -0.15312E+00  6832   0.326E+00    0.261E+00
DAV:   9    -0.186789259000E+03   -0.66460E-01   -0.22680E-01  8176   0.137E+00    0.132E+00
DAV:  10    -0.186798714094E+03   -0.94551E-02   -0.46473E-02  7520   0.534E-01    0.504E-01
DAV:  11    -0.186801581865E+03   -0.28678E-02   -0.67326E-03  7160   0.261E-01    0.231E-01
DAV:  12    -0.186802993362E+03   -0.14115E-02   -0.23501E-03  8040   0.137E-01    0.109E-01
DAV:  13    -0.186803634769E+03   -0.64141E-03   -0.51126E-04  7408   0.627E-02    0.463E-02
DAV:  14    -0.186803868767E+03   -0.23400E-03   -0.21316E-04  6864   0.382E-02    0.251E-02
DAV:  15    -0.186803939512E+03   -0.70745E-04   -0.74071E-05  6248   0.229E-02    0.129E-02
DAV:  16    -0.186803955725E+03   -0.16214E-04   -0.15433E-05  5272   0.116E-02    0.608E-03
DAV:  17    -0.186803959516E+03   -0.37909E-05   -0.43887E-06  4288   0.591E-03
   1 F= -.18680396E+03 E0= -.18680396E+03  d E =0.000000E+00  mag=    -0.0001
