       N       E                     dE             d eps       ncg     rms          rms(c)
DAV:   1     0.412683312280E+03    0.41268E+03   -0.27020E+04 14088   0.144E+03
DAV:   2    -0.418743614120E+02   -0.45456E+03   -0.43494E+03 16328   0.364E+02
DAV:   3    -0.809534311105E+02   -0.39079E+02   -0.38878E+02 20720   0.100E+02
DAV:   4    -0.841972218251E+02   -0.32438E+01   -0.32300E+01 23336   0.233E+01
DAV:   5    -0.844463496323E+02   -0.24913E+00   -0.24911E+00 19752   0.469E+00    0.310E+01
RMM:   6    -0.765897485225E+02    0.78566E+01   -0.30555E+01 15111   0.225E+01    0.126E+01
RMM:   7    -0.771273684143E+02   -0.53762E+00   -0.42791E+00 21004   0.957E+00    0.659E+00
RMM:   8    -0.772855678501E+02   -0.15820E+00   -0.86161E-01 23067   0.461E+00    0.349E+00
RMM:   9    -0.773204791963E+02   -0.34911E-01   -0.25439E-01 22818   0.299E+00    0.960E-01
RMM:  10    -0.773460671631E+02   -0.25588E-01   -0.18092E-01 26069   0.180E+00    0.357E-01
RMM:  11    -0.773557652717E+02   -0.96981E-02   -0.80140E-02 26817   0.107E+00    0.255E-01
RMM:  12    -0.773603758720E+02   -0.46106E-02   -0.33089E-02 27311   0.682E-01    0.153E-01
RMM:  13    -0.773622575272E+02   -0.18817E-02   -0.13961E-02 26962   0.443E-01    0.618E-02
RMM:  14    -0.773629825190E+02   -0.72499E-03   -0.57968E-03 27099   0.311E-01    0.367E-02
RMM:  15    -0.773632827860E+02   -0.30027E-03   -0.27878E-03 26508   0.196E-01    0.246E-02
RMM:  16    -0.773634023344E+02   -0.11955E-03   -0.11297E-03 26168   0.130E-01    0.140E-02
RMM:  17    -0.773634523983E+02   -0.50064E-04   -0.52511E-04 25632   0.891E-02    0.856E-03
RMM:  18    -0.773634828868E+02   -0.30488E-04   -0.24582E-04 25180   0.630E-02    0.631E-03
RMM:  19    -0.773634907768E+02   -0.78900E-05   -0.80940E-05 20405   0.432E-02
   1 F= -.77363491E+02 E0= -.77363491E+02  d E =0.000000E+00  mag=     0.0000
