    9    9    1    2
  0.1039277E+02  0.4652786E-09  0.5112339E-09  0.5112339E-09  0.5000000E-15
  1.000000000000000E-004
  CAR 
 unknown system                          
     51    128     34
 
  0.0000000E+00  0.0000000E+00  0.0000000E+00  0.2267574E-02
    1      -43.221016    -43.220414   1.000000   1.000000
    2      -28.014169    -28.036279   1.000000   1.000000
    3      -26.915533    -26.893379   1.000000   1.000000
    4      -26.899661    -26.873490   1.000000   1.000000
    5      -26.184317    -26.234847   1.000000   1.000000
    6      -13.115370    -13.117028   1.000000   1.000000
    7      -12.657730    -12.664128   1.000000   1.000000
    8      -12.573038    -12.595752   1.000000   1.000000
    9      -11.654108    -11.659827   1.000000   1.000000
   10       -8.697504     -8.699763   1.000000   1.000000
   11       -8.357512     -8.371131   1.000000   1.000000
   12       -7.891845     -7.886708   1.000000   1.000000
   13       -7.719039     -7.716829   1.000000   1.000000
   14       -7.097758     -7.125538   1.000000   1.000000
   15       -6.047754     -6.069846   1.000000   1.000000
   16       -5.980580     -5.942609   1.000000   1.000000
   17       -5.868888     -5.901947   1.000000   1.000000
   18       -4.851144     -4.877025   1.000000   1.000000
   19       -4.834340     -4.841118   1.000000   1.000000
   20       -4.697028     -4.704611   1.000000   1.000000
   21       -4.636796     -4.640754   1.000000   1.000000
   22       -0.356220     -0.353080   1.000000   1.000000
   23       -0.246260     -0.271133   1.000000   1.000000
   24        0.386464      0.396887   1.000000   1.000000
   25        1.277324      1.246523   1.000000   1.000000
   26        2.797843      2.741855   0.000000   0.000000
   27        2.821975      2.816297   0.000000   0.000000
   28        2.927034      2.926205   0.000000   0.000000
   29        3.198898      3.206587   0.000000   0.000000
   30        9.680081      9.673409   0.000000   0.000000
   31       10.431149     10.452816   0.000000   0.000000
   32       10.928025     10.893111   0.000000   0.000000
   33       12.559218     12.551191   0.000000   0.000000
   34       13.005992     13.027119   0.000000   0.000000
 
  0.1111111E+00 -0.3504550E-17  0.4770943E-14  0.4535147E-02
    1      -43.220950    -43.220347   1.000000   1.000000
    2      -28.012429    -28.034605   1.000000   1.000000
    3      -26.917289    -26.893355   1.000000   1.000000
    4      -26.899649    -26.875246   1.000000   1.000000
    5      -26.185350    -26.235832   1.000000   1.000000
    6      -13.205970    -13.209017   1.000000   1.000000
    7      -12.615862    -12.628912   1.000000   1.000000
    8      -12.540139    -12.553612   1.000000   1.000000
    9      -11.640920    -11.647906   1.000000   1.000000
   10       -8.694726     -8.696807   1.000000   1.000000
   11       -8.378482     -8.392214   1.000000   1.000000
   12       -7.837394     -7.828008   1.000000   1.000000
   13       -7.627625     -7.629588   1.000000   1.000000
   14       -7.098470     -7.125820   1.000000   1.000000
   15       -6.186883     -6.216483   1.000000   1.000000
   16       -6.035349     -5.997936   1.000000   1.000000
   17       -5.802599     -5.827674   1.000000   1.000000
   18       -4.846912     -4.879505   1.000000   1.000000
   19       -4.837133     -4.836821   1.000000   1.000000
   20       -4.689976     -4.698064   1.000000   1.000000
   21       -4.632178     -4.636385   1.000000   1.000000
   22       -0.347726     -0.344523   1.000000   1.000000
   23       -0.210011     -0.234407   1.000000   1.000000
   24        0.385511      0.395013   1.000000   1.000000
   25        1.221358      1.191036   1.000000   1.000000
   26        2.797319      2.740544   0.000000   0.000000
   27        2.803835      2.799959   0.000000   0.000000
   28        2.930607      2.929007   0.000000   0.000000
   29        3.192503      3.199692   0.000000   0.000000
   30        9.628352      9.623131   0.000000   0.000000
   31       10.686250     10.707438   0.000000   0.000000
   32       11.039307     11.006388   0.000000   0.000000
   33       12.175570     12.164749   0.000000   0.000000
   34       12.980799     13.014982   0.000000   0.000000
 
  0.2222222E+00 -0.2144350E-16 -0.4017018E-14  0.4535147E-02
    1      -43.220790    -43.220187   1.000000   1.000000
    2      -28.007913    -28.030263   1.000000   1.000000
    3      -26.921829    -26.893022   1.000000   1.000000
    4      -26.899367    -26.879777   1.000000   1.000000
    5      -26.187801    -26.238171   1.000000   1.000000
    6      -13.418434    -13.422936   1.000000   1.000000
    7      -12.506614    -12.531247   1.000000   1.000000
    8      -12.445237    -12.443627   1.000000   1.000000
    9      -11.619525    -11.628705   1.000000   1.000000
   10       -8.698357     -8.700118   1.000000   1.000000
   11       -8.425766     -8.439763   1.000000   1.000000
   12       -7.812504     -7.801741   1.000000   1.000000
   13       -7.272772     -7.275844   1.000000   1.000000
   14       -7.105933     -7.131676   1.000000   1.000000
   15       -6.395174     -6.429968   1.000000   1.000000
   16       -6.182711     -6.147559   1.000000   1.000000
   17       -5.796164     -5.814907   1.000000   1.000000
   18       -4.843921     -4.885489   1.000000   1.000000
   19       -4.837133     -4.827009   1.000000   1.000000
   20       -4.670329     -4.679364   1.000000   1.000000
   21       -4.620918     -4.625614   1.000000   1.000000
   22       -0.312911     -0.309638   1.000000   1.000000
   23       -0.099291     -0.122045   1.000000   1.000000
   24        0.384236      0.391290   1.000000   1.000000
   25        1.081875      1.052233   1.000000   1.000000
   26        2.768848      2.738553   0.000000   0.000000
   27        2.797520      2.767550   0.000000   0.000000
   28        2.929267      2.928005   0.000000   0.000000
   29        3.174947      3.181200   0.000000   0.000000
   30        9.420965      9.415640   0.000000   0.000000
   31       11.018453     11.021090   0.000000   0.000000
   32       11.354426     11.373790   0.000000   0.000000
   33       11.493288     11.459825   0.000000   0.000000
   34       12.771637     12.605064   0.000000   0.000000
 
  0.3333333E+00 -0.5543318E-16  0.7545085E-15  0.4535147E-02
    1      -43.220605    -43.220001   1.000000   1.000000
    2      -28.002701    -28.025248   1.000000   1.000000
    3      -26.926845    -26.892436   1.000000   1.000000
    4      -26.898843    -26.884786   1.000000   1.000000
    5      -26.190568    -26.240813   1.000000   1.000000
    6      -13.635788    -13.640788   1.000000   1.000000
    7      -12.375860    -12.397165   1.000000   1.000000
    8      -12.310572    -12.311950   1.000000   1.000000
    9      -11.625692    -11.634818   1.000000   1.000000
   10       -8.704362     -8.705893   1.000000   1.000000
   11       -8.467010     -8.481287   1.000000   1.000000
   12       -7.795103     -7.783809   1.000000   1.000000
   13       -7.135907     -7.157873   1.000000   1.000000
   14       -6.852309     -6.857024   1.000000   1.000000
   15       -6.559624     -6.596345   1.000000   1.000000
   16       -6.354675     -6.324453   1.000000   1.000000
   17       -5.883839     -5.897993   1.000000   1.000000
   18       -4.851014     -4.891684   1.000000   1.000000
   19       -4.827664     -4.817693   1.000000   1.000000
   20       -4.645562     -4.655227   1.000000   1.000000
   21       -4.608705     -4.613802   1.000000   1.000000
   22       -0.250907     -0.247579   1.000000   1.000000
   23        0.055880      0.036031   1.000000   1.000000
   24        0.383037      0.386986   1.000000   1.000000
   25        0.927432      0.897641   1.000000   1.000000
   26        2.739031      2.738871   0.000000   0.000000
   27        2.801289      2.739188   0.000000   0.000000
   28        2.918314      2.919426   0.000000   0.000000
   29        3.152020      3.157997   0.000000   0.000000
   30        9.028151      9.022804   0.000000   0.000000
   31       10.268938     10.271170   0.000000   0.000000
   32       11.853068     11.828636   0.000000   0.000000
   33       11.902948     11.896428   0.000000   0.000000
   34       12.544176     12.551441   0.000000   0.000000
 
  0.4444444E+00 -0.4083356E-16  0.6519361E-14  0.4535147E-02
    1      -43.220505    -43.219900   1.000000   1.000000
    2      -27.999346    -28.022030   1.000000   1.000000
    3      -26.930270    -26.892375   1.000000   1.000000
    4      -26.898839    -26.888205   1.000000   1.000000
    5      -26.192641    -26.242816   1.000000   1.000000
    6      -13.766656    -13.771773   1.000000   1.000000
    7      -12.286489    -12.286432   1.000000   1.000000
    8      -12.195351    -12.221918   1.000000   1.000000
    9      -11.661085    -11.666259   1.000000   1.000000
   10       -8.703533     -8.704981   1.000000   1.000000
   11       -8.484156     -8.498620   1.000000   1.000000
   12       -7.775039     -7.763259   1.000000   1.000000
   13       -7.180559     -7.197883   1.000000   1.000000
   14       -6.711565     -6.745665   1.000000   1.000000
   15       -6.513710     -6.523203   1.000000   1.000000
   16       -6.458518     -6.433835   1.000000   1.000000
   17       -5.977997     -5.989480   1.000000   1.000000
   18       -4.855257     -4.895369   1.000000   1.000000
   19       -4.822263     -4.812470   1.000000   1.000000
   20       -4.628496     -4.638425   1.000000   1.000000
   21       -4.601006     -4.606312   1.000000   1.000000
   22       -0.196429     -0.192950   1.000000   1.000000
   23        0.171384      0.154440   1.000000   1.000000
   24        0.379260      0.380873   1.000000   1.000000
   25        0.829848      0.799169   1.000000   1.000000
   26        2.722906      2.723488   0.000000   0.000000
   27        2.806664      2.740968   0.000000   0.000000
   28        2.907986      2.911462   0.000000   0.000000
   29        3.134733      3.141246   0.000000   0.000000
   30        8.667352      8.662372   0.000000   0.000000
   31        9.941072      9.942175   0.000000   0.000000
   32       11.683617     11.679406   0.000000   0.000000
   33       12.087882     12.071514   0.000000   0.000000
   34       12.620044     12.496862   0.000000   0.000000
 
 -0.4620281E-18  0.1428571E+00  0.5044823E-14  0.9070295E-02
    1      -43.220969    -43.220367   1.000000   1.000000
    2      -28.006107    -28.028649   1.000000   1.000000
    3      -26.946342    -26.917731   1.000000   1.000000
    4      -26.872397    -26.851801   1.000000   1.000000
    5      -26.191914    -26.242897   1.000000   1.000000
    6      -13.125275    -13.126041   1.000000   1.000000
    7      -12.655183    -12.676321   1.000000   1.000000
    8      -12.568084    -12.576714   1.000000   1.000000
    9      -11.660299    -11.666198   1.000000   1.000000
   10       -8.656748     -8.659678   1.000000   1.000000
   11       -8.332200     -8.344848   1.000000   1.000000
   12       -7.827893     -7.822172   1.000000   1.000000
   13       -7.657022     -7.656167   1.000000   1.000000
   14       -7.123268     -7.148808   1.000000   1.000000
   15       -6.121560     -6.139989   1.000000   1.000000
   16       -5.992738     -5.961692   1.000000   1.000000
   17       -5.847171     -5.877395   1.000000   1.000000
   18       -4.936777     -4.969353   1.000000   1.000000
   19       -4.880585     -4.882880   1.000000   1.000000
   20       -4.727524     -4.733953   1.000000   1.000000
   21       -4.635985     -4.640172   1.000000   1.000000
   22       -0.319466     -0.321871   1.000000   1.000000
   23       -0.156183     -0.173929   1.000000   1.000000
   24        0.455340      0.465087   1.000000   1.000000
   25        1.216002      1.188435   1.000000   1.000000
   26        2.665612      2.618173   0.000000   0.000000
   27        2.806150      2.788401   0.000000   0.000000
   28        2.926077      2.925568   0.000000   0.000000
   29        3.161902      3.168031   0.000000   0.000000
   30        9.782091      9.773749   0.000000   0.000000
   31       10.493524     10.513879   0.000000   0.000000
   32       10.926000     10.892524   0.000000   0.000000
   33       12.601913     12.756488   0.000000   0.000000
   34       13.000155     13.084892   0.000000   0.000000
 
  0.1111111E+00  0.1428571E+00 -0.4719236E-14  0.9070295E-02
    1      -43.220944    -43.220342   1.000000   1.000000
    2      -28.005955    -28.028497   1.000000   1.000000
    3      -26.945952    -26.917618   1.000000   1.000000
    4      -26.872747    -26.851901   1.000000   1.000000
    5      -26.192948    -26.243905   1.000000   1.000000
    6      -13.138543    -13.141508   1.000000   1.000000
    7      -12.678571    -12.675600   1.000000   1.000000
    8      -12.539813    -12.570899   1.000000   1.000000
    9      -11.651519    -11.656984   1.000000   1.000000
   10       -8.656043     -8.659024   1.000000   1.000000
   11       -8.327321     -8.339842   1.000000   1.000000
   12       -7.831875     -7.826132   1.000000   1.000000
   13       -7.655276     -7.654228   1.000000   1.000000
   14       -7.119209     -7.144864   1.000000   1.000000
   15       -6.126650     -6.146968   1.000000   1.000000
   16       -5.984623     -5.951034   1.000000   1.000000
   17       -5.852407     -5.883404   1.000000   1.000000
   18       -4.948407     -4.980177   1.000000   1.000000
   19       -4.874427     -4.876309   1.000000   1.000000
   20       -4.722630     -4.730153   1.000000   1.000000
   21       -4.639425     -4.643769   1.000000   1.000000
   22       -0.301976     -0.304720   1.000000   1.000000
   23       -0.141630     -0.159188   1.000000   1.000000
   24        0.443445      0.452015   1.000000   1.000000
   25        1.207988      1.178787   1.000000   1.000000
   26        2.682245      2.638030   0.000000   0.000000
   27        2.778369      2.761990   0.000000   0.000000
   28        2.932179      2.931683   0.000000   0.000000
   29        3.162482      3.167995   0.000000   0.000000
   30        9.780222      9.772949   0.000000   0.000000
   31       10.426380     10.443103   0.000000   0.000000
   32       10.976390     10.946834   0.000000   0.000000
   33       12.593886     12.477282   0.000000   0.000000
   34       13.449993     13.111965   0.000000   0.000000
 
  0.2222222E+00  0.1428571E+00  0.1040652E-14  0.9070295E-02
    1      -43.220806    -43.220203   1.000000   1.000000
    2      -28.002612    -28.025273   1.000000   1.000000
    3      -26.947107    -26.918039   1.000000   1.000000
    4      -26.874223    -26.854106   1.000000   1.000000
    5      -26.195328    -26.246174   1.000000   1.000000
    6      -13.295674    -13.300976   1.000000   1.000000
    7      -12.640588    -12.633305   1.000000   1.000000
    8      -12.442967    -12.475077   1.000000   1.000000
    9      -11.629455    -11.636095   1.000000   1.000000
   10       -8.653440     -8.656314   1.000000   1.000000
   11       -8.356016     -8.368621   1.000000   1.000000
   12       -7.788723     -7.778631   1.000000   1.000000
   13       -7.434712     -7.437753   1.000000   1.000000
   14       -7.117667     -7.142476   1.000000   1.000000
   15       -6.314504     -6.342813   1.000000   1.000000
   16       -6.075911     -6.042180   1.000000   1.000000
   17       -5.817689     -5.841119   1.000000   1.000000
   18       -4.960121     -4.992333   1.000000   1.000000
   19       -4.861900     -4.862384   1.000000   1.000000
   20       -4.708903     -4.717607   1.000000   1.000000
   21       -4.632568     -4.637326   1.000000   1.000000
   22       -0.256000     -0.256148   1.000000   1.000000
   23       -0.072325     -0.091166   1.000000   1.000000
   24        0.432864      0.438554   1.000000   1.000000
   25        1.105570      1.075642   1.000000   1.000000
   26        2.679704      2.645344   0.000000   0.000000
   27        2.748169      2.726621   0.000000   0.000000
   28        2.933154      2.932159   0.000000   0.000000
   29        3.152688      3.156875   0.000000   0.000000
   30        9.654272      9.649485   0.000000   0.000000
   31       10.727435     10.733602   0.000000   0.000000
   32       11.293072     11.282261   0.000000   0.000000
   33       11.768990     11.758640   0.000000   0.000000
   34       12.650886     12.616981   0.000000   0.000000
 
  0.3333333E+00  0.1428571E+00  0.5808469E-14  0.9070295E-02
    1      -43.220626    -43.220022   1.000000   1.000000
    2      -27.997778    -28.020623   1.000000   1.000000
    3      -26.949503    -26.919010   1.000000   1.000000
    4      -26.875783    -26.857045   1.000000   1.000000
    5      -26.198007    -26.248719   1.000000   1.000000
    6      -13.512611    -13.518262   1.000000   1.000000
    7      -12.534766    -12.527621   1.000000   1.000000
    8      -12.310176    -12.341795   1.000000   1.000000
    9      -11.627022    -11.633861   1.000000   1.000000
   10       -8.659270     -8.662049   1.000000   1.000000
   11       -8.396887     -8.409673   1.000000   1.000000
   12       -7.779817     -7.768903   1.000000   1.000000
   13       -7.130795     -7.154282   1.000000   1.000000
   14       -7.019696     -7.022627   1.000000   1.000000
   15       -6.495261     -6.527390   1.000000   1.000000
   16       -6.249182     -6.220059   1.000000   1.000000
   17       -5.872738     -5.889318   1.000000   1.000000
   18       -4.965665     -4.998606   1.000000   1.000000
   19       -4.850740     -4.850104   1.000000   1.000000
   20       -4.691681     -4.700609   1.000000   1.000000
   21       -4.617756     -4.623100   1.000000   1.000000
   22       -0.189736     -0.187748   1.000000   1.000000
   23        0.050704      0.032824   1.000000   1.000000
   24        0.431281      0.433527   1.000000   1.000000
   25        0.957953      0.927501   1.000000   1.000000
   26        2.658434      2.638087   0.000000   0.000000
   27        2.736166      2.701936   0.000000   0.000000
   28        2.924727      2.924172   0.000000   0.000000
   29        3.134573      3.137852   0.000000   0.000000
   30        9.331984      9.326764   0.000000   0.000000
   31       10.638615     10.643054   0.000000   0.000000
   32       11.303415     11.297076   0.000000   0.000000
   33       11.956631     11.944275   0.000000   0.000000
   34       12.590739     12.490336   0.000000   0.000000
 
  0.4444444E+00  0.1428571E+00 -0.2960633E-14  0.9070295E-02
    1      -43.220515    -43.219911   1.000000   1.000000
    2      -27.993720    -28.016735   1.000000   1.000000
    3      -26.952161    -26.920310   1.000000   1.000000
    4      -26.877253    -26.859787   1.000000   1.000000
    5      -26.200036    -26.250665   1.000000   1.000000
    6      -13.685129    -13.690549   1.000000   1.000000
    7      -12.401001    -12.390374   1.000000   1.000000
    8      -12.198442    -12.236871   1.000000   1.000000
    9      -11.659223    -11.662951   1.000000   1.000000
   10       -8.661107     -8.663708   1.000000   1.000000
   11       -8.430218     -8.443311   1.000000   1.000000
   12       -7.751600     -7.740104   1.000000   1.000000
   13       -7.167354     -7.186802   1.000000   1.000000
   14       -6.702781     -6.722932   1.000000   1.000000
   15       -6.581023     -6.596948   1.000000   1.000000
   16       -6.415900     -6.395446   1.000000   1.000000
   17       -5.957412     -5.968791   1.000000   1.000000
   18       -4.961852     -4.995503   1.000000   1.000000
   19       -4.845804     -4.844493   1.000000   1.000000
   20       -4.679806     -4.688343   1.000000   1.000000
   21       -4.601975     -4.607731   1.000000   1.000000
   22       -0.129439     -0.126762   1.000000   1.000000
   23        0.171713      0.157685   1.000000   1.000000
   24        0.439487      0.438717   1.000000   1.000000
   25        0.837055      0.805770   1.000000   1.000000
   26        2.641002      2.624661   0.000000   0.000000
   27        2.736840      2.696017   0.000000   0.000000
   28        2.910020      2.910304   0.000000   0.000000
   29        3.113694      3.117506   0.000000   0.000000
   30        8.902949      8.897527   0.000000   0.000000
   31       10.176575     10.178235   0.000000   0.000000
   32       11.482433     11.477448   0.000000   0.000000
   33       12.207494     12.180751   0.000000   0.000000
   34       12.547615     12.481977   0.000000   0.000000
 
 -0.4444444E+00  0.1428571E+00  0.4141245E-15  0.9070295E-02
    1      -43.220508    -43.219904   1.000000   1.000000
    2      -27.992436    -28.015520   1.000000   1.000000
    3      -26.953804    -26.921242   1.000000   1.000000
    4      -26.877548    -26.860739   1.000000   1.000000
    5      -26.200220    -26.250835   1.000000   1.000000
    6      -13.745771    -13.750885   1.000000   1.000000
    7      -12.316636    -12.308706   1.000000   1.000000
    8      -12.181365    -12.218282   1.000000   1.000000
    9      -11.676748    -11.679429   1.000000   1.000000
   10       -8.660452     -8.662719   1.000000   1.000000
   11       -8.452157     -8.465635   1.000000   1.000000
   12       -7.722700     -7.710975   1.000000   1.000000
   13       -7.200195     -7.216836   1.000000   1.000000
   14       -6.717735     -6.751235   1.000000   1.000000
   15       -6.514232     -6.497439   1.000000   1.000000
   16       -6.456447     -6.460283   1.000000   1.000000
   17       -5.978063     -5.987646   1.000000   1.000000
   18       -4.951508     -4.986036   1.000000   1.000000
   19       -4.847193     -4.845392   1.000000   1.000000
   20       -4.679959     -4.688174   1.000000   1.000000
   21       -4.593662     -4.599325   1.000000   1.000000
   22       -0.119191     -0.116475   1.000000   1.000000
   23        0.212602      0.200906   1.000000   1.000000
   24        0.452606      0.450916   1.000000   1.000000
   25        0.798476      0.767591   1.000000   1.000000
   26        2.633839      2.610369   0.000000   0.000000
   27        2.746044      2.708864   0.000000   0.000000
   28        2.899667      2.899361   0.000000   0.000000
   29        3.101825      3.107011   0.000000   0.000000
   30        8.702121      8.697010   0.000000   0.000000
   31       10.078591     10.079569   0.000000   0.000000
   32       11.510968     11.505800   0.000000   0.000000
   33       12.078958     12.071755   0.000000   0.000000
   34       12.581732     12.582267   0.000000   0.000000
 
 -0.3333333E+00  0.1428571E+00 -0.1251606E-14  0.9070295E-02
    1      -43.220581    -43.219977   1.000000   1.000000
    2      -27.994314    -28.017328   1.000000   1.000000
    3      -26.953334    -26.921037   1.000000   1.000000
    4      -26.876540    -26.859465   1.000000   1.000000
    5      -26.198416    -26.249099   1.000000   1.000000
    6      -13.673357    -13.678096   1.000000   1.000000
    7      -12.355533    -12.384537   1.000000   1.000000
    8      -12.258870    -12.253519   1.000000   1.000000
    9      -11.649644    -11.657906   1.000000   1.000000
   10       -8.664701     -8.666772   1.000000   1.000000
   11       -8.456035     -8.469619   1.000000   1.000000
   12       -7.718762     -7.707389   1.000000   1.000000
   13       -7.184713     -7.203494   1.000000   1.000000
   14       -6.738530     -6.755987   1.000000   1.000000
   15       -6.596902     -6.613213   1.000000   1.000000
   16       -6.416049     -6.398573   1.000000   1.000000
   17       -5.904848     -5.916230   1.000000   1.000000
   18       -4.940676     -4.976141   1.000000   1.000000
   19       -4.854252     -4.852414   1.000000   1.000000
   20       -4.691922     -4.699742   1.000000   1.000000
   21       -4.596810     -4.601990   1.000000   1.000000
   22       -0.173135     -0.170815   1.000000   1.000000
   23        0.145331      0.131282   1.000000   1.000000
   24        0.463997      0.464871   1.000000   1.000000
   25        0.855184      0.826857   1.000000   1.000000
   26        2.630796      2.596732   0.000000   0.000000
   27        2.765287      2.736290   0.000000   0.000000
   28        2.899723      2.898029   0.000000   0.000000
   29        3.108490      3.114264   0.000000   0.000000
   30        8.905289      8.899979   0.000000   0.000000
   31       10.272011     10.273936   0.000000   0.000000
   32       11.683503     11.672208   0.000000   0.000000
   33       11.923251     11.909946   0.000000   0.000000
   34       13.126083     12.812536   0.000000   0.000000
 
 -0.2222222E+00  0.1428571E+00 -0.3555696E-14  0.9070295E-02
    1      -43.220742    -43.220139   1.000000   1.000000
    2      -27.998645    -28.021494   1.000000   1.000000
    3      -26.951106    -26.919914   1.000000   1.000000
    4      -26.875103    -26.856961   1.000000   1.000000
    5      -26.195584    -26.246393   1.000000   1.000000
    6      -13.491268    -13.495314   1.000000   1.000000
    7      -12.478613    -12.520896   1.000000   1.000000
    8      -12.376780    -12.356724   1.000000   1.000000
    9      -11.633908    -11.644194   1.000000   1.000000
   10       -8.662496     -8.664712   1.000000   1.000000
   11       -8.426707     -8.440070   1.000000   1.000000
   12       -7.730951     -7.720054   1.000000   1.000000
   13       -7.151577     -7.175501   1.000000   1.000000
   14       -7.058081     -7.059766   1.000000   1.000000
   15       -6.516275     -6.546778   1.000000   1.000000
   16       -6.268750     -6.243262   1.000000   1.000000
   17       -5.804861     -5.820321   1.000000   1.000000
   18       -4.932732     -4.968562   1.000000   1.000000
   19       -4.865684     -4.864696   1.000000   1.000000
   20       -4.708945     -4.716021   1.000000   1.000000
   21       -4.608993     -4.613651   1.000000   1.000000
   22       -0.249638     -0.247987   1.000000   1.000000
   23        0.008689     -0.008777   1.000000   1.000000
   24        0.467431      0.472519   1.000000   1.000000
   25        0.983886      0.957652   1.000000   1.000000
   26        2.632439      2.590457   0.000000   0.000000
   27        2.791307      2.768074   0.000000   0.000000
   28        2.907700      2.905489   0.000000   0.000000
   29        3.129053      3.134782   0.000000   0.000000
   30        9.337230      9.331262   0.000000   0.000000
   31       10.806088     10.811101   0.000000   0.000000
   32       11.429252     11.404685   0.000000   0.000000
   33       11.858966     11.864287   0.000000   0.000000
   34       12.645712     12.588558   0.000000   0.000000
 
 -0.1111111E+00  0.1428571E+00  0.2181162E-14  0.9070295E-02
    1      -43.220899    -43.220297   1.000000   1.000000
    2      -28.003415    -28.026074   1.000000   1.000000
    3      -26.948357    -26.918621   1.000000   1.000000
    4      -26.873457    -26.853927   1.000000   1.000000
    5      -26.193048    -26.243975   1.000000   1.000000
    6      -13.270852    -13.273327   1.000000   1.000000
    7      -12.586764    -12.627747   1.000000   1.000000
    8      -12.504228    -12.488927   1.000000   1.000000
    9      -11.646949    -11.655249   1.000000   1.000000
   10       -8.654851     -8.657442   1.000000   1.000000
   11       -8.373836     -8.386828   1.000000   1.000000
   12       -7.750806     -7.740062   1.000000   1.000000
   13       -7.464808     -7.469099   1.000000   1.000000
   14       -7.130677     -7.154872   1.000000   1.000000
   15       -6.317219     -6.344213   1.000000   1.000000
   16       -6.103390     -6.073206   1.000000   1.000000
   17       -5.775832     -5.797052   1.000000   1.000000
   18       -4.930683     -4.965373   1.000000   1.000000
   19       -4.876803     -4.877591   1.000000   1.000000
   20       -4.722453     -4.728795   1.000000   1.000000
   21       -4.624227     -4.628535   1.000000   1.000000
   22       -0.303596     -0.303556   1.000000   1.000000
   23       -0.108934     -0.127653   1.000000   1.000000
   24        0.463451      0.471939   1.000000   1.000000
   25        1.126720      1.100663   1.000000   1.000000
   26        2.644974      2.598397   0.000000   0.000000
   27        2.809670      2.789733   0.000000   0.000000
   28        2.917975      2.916324   0.000000   0.000000
   29        3.149980      3.155935   0.000000   0.000000
   30        9.663416      9.657337   0.000000   0.000000
   31       10.913406     10.916862   0.000000   0.000000
   32       11.158758     11.144447   0.000000   0.000000
   33       11.896848     11.901516   0.000000   0.000000
   34       13.100191     13.199424   0.000000   0.000000
 
 -0.1122426E-17  0.2857143E+00 -0.4481379E-14  0.9070295E-02
    1      -43.220912    -43.220310   1.000000   1.000000
    2      -27.987843    -28.011433   1.000000   1.000000
    3      -26.982463    -26.948968   1.000000   1.000000
    4      -26.844629    -26.826722   1.000000   1.000000
    5      -26.209759    -26.261884   1.000000   1.000000
    6      -13.147092    -13.146134   1.000000   1.000000
    7      -12.650787    -12.693264   1.000000   1.000000
    8      -12.555908    -12.544289   1.000000   1.000000
    9      -11.674807    -11.681210   1.000000   1.000000
   10       -8.560760     -8.565644   1.000000   1.000000
   11       -8.269940     -8.280014   1.000000   1.000000
   12       -7.683108     -7.678002   1.000000   1.000000
   13       -7.512053     -7.516329   1.000000   1.000000
   14       -7.136651     -7.151653   1.000000   1.000000
   15       -6.298249     -6.313798   1.000000   1.000000
   16       -6.023553     -5.999551   1.000000   1.000000
   17       -5.815075     -5.842897   1.000000   1.000000
   18       -5.204139     -5.234483   1.000000   1.000000
   19       -4.966630     -4.972210   1.000000   1.000000
   20       -4.810818     -4.821450   1.000000   1.000000
   21       -4.590433     -4.592894   1.000000   1.000000