       N       E                     dE             d eps       ncg     rms          rms(c)
DAV:   1     0.367925675948E+03    0.36793E+03   -0.28773E+04 17424   0.149E+03
DAV:   2    -0.186380950783E+02   -0.38656E+03   -0.37357E+03 22110   0.362E+02
DAV:   3    -0.423124544684E+02   -0.23674E+02   -0.23471E+02 25400   0.904E+01
DAV:   4    -0.432024006024E+02   -0.88995E+00   -0.88547E+00 28920   0.124E+01
DAV:   5    -0.432614141668E+02   -0.59014E-01   -0.59009E-01 23294   0.169E+00    0.153E+01
RMM:   6    -0.436237434254E+02   -0.36233E+00   -0.41519E+00 19921   0.109E+01    0.132E+01
RMM:   7    -0.425868987868E+02    0.10368E+01   -0.15477E+00 19393   0.691E+00    0.635E+00
RMM:   8    -0.425276939733E+02    0.59205E-01   -0.77069E-01 19988   0.497E+00    0.636E+00
RMM:   9    -0.422096224008E+02    0.31807E+00   -0.32016E-01 20229   0.323E+00    0.256E+00
RMM:  10    -0.422126399479E+02   -0.30175E-02   -0.97440E-02 20874   0.187E+00    0.788E-01
RMM:  11    -0.422161532487E+02   -0.35133E-02   -0.22004E-02 23208   0.911E-01    0.340E-01
RMM:  12    -0.422177268720E+02   -0.15736E-02   -0.54701E-03 26199   0.435E-01    0.113E-01
RMM:  13    -0.422178954162E+02   -0.16854E-03   -0.15308E-03 27650   0.218E-01    0.512E-02
RMM:  14    -0.422180099822E+02   -0.11457E-03   -0.70111E-04 28361   0.143E-01    0.213E-02
RMM:  15    -0.422180482122E+02   -0.38230E-04   -0.28985E-04 28335   0.810E-02    0.146E-02
RMM:  16    -0.422180606203E+02   -0.12408E-04   -0.12616E-04 24309   0.548E-02    0.791E-03
RMM:  17    -0.422180611944E+02   -0.57412E-06   -0.44206E-05 19258   0.370E-02
   1 F= -.42218061E+02 E0= -.42218061E+02  d E =0.000000E+00  mag=    -0.0426
