 running on   24 total cores
 distrk:  each k-point on   24 cores,    1 groups
 distr:  one band on    6 cores,    4 groups
 using from now: INCAR     
 vasp.6.1.2 22Jul20 (build Mar 31 2021 18:09:49) complex                        
  
 POSCAR found type information on POSCAR LiO 
 POSCAR found :  2 types and       8 ions
 scaLAPACK will be used
 -----------------------------------------------------------------------------
|                                                                             |
|               ----> ADVICE to this user running VASP <----                  |
|                                                                             |
|     You have a (more or less) 'small supercell' and for smaller cells       |
|     it is recommended to use the reciprocal-space projection scheme!        |
|     The real-space optimization is not efficient for small cells and it     |
|     is also less accurate ...                                               |
|     Therefore, set LREAL=.FALSE. in the INCAR file.                         |
|                                                                             |
 -----------------------------------------------------------------------------

 LDA part: xc-table for Pade appr. of Perdew
 generate k-points for:   12   12    4
 POSCAR, INCAR and KPOINTS ok, starting setup
 FFT: planning ...
 WAVECAR not read
 entering main loop
       N       E                     dE             d eps       ncg     rms          rms(c)
DAV:   1     0.253693430312E+03    0.25369E+03   -0.17274E+04 18376   0.137E+03
DAV:   2    -0.143839391200E+02   -0.26808E+03   -0.25778E+03 21968   0.347E+02
DAV:   3    -0.375188223618E+02   -0.23135E+02   -0.22943E+02 29652   0.847E+01
DAV:   4    -0.391447809925E+02   -0.16260E+01   -0.16191E+01 27188   0.213E+01
DAV:   5    -0.391908180995E+02   -0.46037E-01   -0.46033E-01 26092   0.313E+00    0.178E+01
RMM:   6    -0.380605705877E+02    0.11302E+01   -0.45527E+00 20498   0.109E+01    0.783E+00
RMM:   7    -0.386624133758E+02   -0.60184E+00   -0.69117E-01 23191   0.510E+00    0.389E+00
RMM:   8    -0.387386291696E+02   -0.76216E-01   -0.30461E-01 27395   0.316E+00    0.156E+00
RMM:   9    -0.387488136391E+02   -0.10184E-01   -0.10074E-01 28788   0.204E+00    0.387E-01
RMM:  10    -0.387582935409E+02   -0.94799E-02   -0.52840E-02 32475   0.116E+00    0.187E-01
RMM:  11    -0.387620419152E+02   -0.37484E-02   -0.20127E-02 33104   0.672E-01    0.128E-01
RMM:  12    -0.387633239201E+02   -0.12820E-02   -0.83878E-03 34285   0.404E-01    0.911E-02
WARNING in EDDRMM: call to ZHEGV failed, returncode =   6  3      2
RMM:  13    -0.387637342885E+02   -0.41037E-03   -0.31604E-03 32904   0.273E-01    0.358E-02
WARNING in EDDRMM: call to ZHEGV failed, returncode =   6  3      5
RMM:  14    -0.387639873372E+02   -0.25305E-03   -0.15814E-03 33372   0.190E-01    0.852E-03
RMM:  15    -0.387640745463E+02   -0.87209E-04   -0.72469E-04 31633   0.113E-01    0.903E-03
RMM:  16    -0.387641083836E+02   -0.33837E-04   -0.30709E-04 30581   0.745E-02    0.561E-03
RMM:  17    -0.387641216757E+02   -0.13292E-04   -0.12292E-04 28238   0.514E-02    0.314E-03
RMM:  18    -0.387641260528E+02   -0.43772E-05   -0.43804E-05 24036   0.375E-02
   1 F= -.38764126E+02 E0= -.38764126E+02  d E =0.000000E+00  mag=    -0.0000
