 running on   12 total cores
 distrk:  each k-point on   12 cores,    1 groups
 distr:  one band on    6 cores,    2 groups
 using from now: INCAR     
 vasp.6.1.2 22Jul20 (build Mar 20 2021 11:25:07) complex                        
  
 POSCAR found type information on POSCAR LiP O 
 POSCAR found :  3 types and      26 ions
 scaLAPACK will be used
 LDA part: xc-table for Pade appr. of Perdew
 generate k-points for:    6    5    4
 POSCAR, INCAR and KPOINTS ok, starting setup
 FFT: planning ...
 WAVECAR not read
 entering main loop
       N       E                     dE             d eps       ncg     rms          rms(c)
DAV:   1     0.111923906923E+04    0.11192E+04   -0.61974E+04 21336   0.152E+03
DAV:   2    -0.623389367137E+02   -0.11816E+04   -0.11109E+04 25550   0.394E+02
DAV:   3    -0.174357144567E+03   -0.11202E+03   -0.11131E+03 27568   0.124E+02
DAV:   4    -0.184028064420E+03   -0.96709E+01   -0.96294E+01 40248   0.296E+01
DAV:   5    -0.185601507623E+03   -0.15734E+01   -0.15730E+01 30200   0.684E+00    0.505E+01
DAV:   6    -0.165718544955E+03    0.19883E+02   -0.89550E+01 26678   0.320E+01    0.249E+01
DAV:   7    -0.167745646537E+03   -0.20271E+01   -0.73815E+00 28064   0.904E+00    0.893E+00
DAV:   8    -0.168030062316E+03   -0.28442E+00   -0.78821E-01 28376   0.353E+00    0.445E+00
DAV:   9    -0.168167331593E+03   -0.13727E+00   -0.13831E-01 28944   0.161E+00    0.169E+00
DAV:  10    -0.168192850421E+03   -0.25519E-01   -0.51137E-02 26840   0.109E+00    0.513E-01
DAV:  11    -0.168203726482E+03   -0.10876E-01   -0.11738E-02 26800   0.450E-01    0.305E-01
DAV:  12    -0.168206411379E+03   -0.26849E-02   -0.20152E-03 29000   0.204E-01    0.157E-01
DAV:  13    -0.168207672836E+03   -0.12615E-02   -0.11066E-03 24680   0.128E-01    0.471E-02
DAV:  14    -0.168207839942E+03   -0.16711E-03   -0.13486E-04 28912   0.574E-02    0.221E-02
DAV:  15    -0.168207901996E+03   -0.62054E-04   -0.66329E-05 22280   0.359E-02    0.133E-02
DAV:  16    -0.168207909070E+03   -0.70745E-05   -0.76054E-06 18264   0.142E-02
   1 F= -.16820791E+03 E0= -.16820791E+03  d E =0.000000E+00  mag=    -0.0013
