   12   12    1    2
  0.1019058E+02  0.5490313E-09  0.5330402E-09  0.4748969E-09  0.5000000E-15
  1.000000000000000E-004
  CAR 
 unknown system                          
     56    100     40
 
  0.0000000E+00  0.0000000E+00  0.0000000E+00  0.2915452E-02
    1      -40.646431    -40.646238   1.000000   1.000000
    2      -40.636340    -40.636146   1.000000   1.000000
    3      -40.581619    -40.581432   1.000000   1.000000
    4      -40.573240    -40.573052   1.000000   1.000000
    5      -17.148357    -17.148406   1.000000   1.000000
    6      -16.497310    -16.497373   1.000000   1.000000
    7      -15.113790    -15.113863   1.000000   1.000000
    8      -15.100587    -15.100660   1.000000   1.000000
    9      -13.077948    -13.078002   1.000000   1.000000
   10      -11.482124    -11.482176   1.000000   1.000000
   11       -7.203212     -7.203241   1.000000   1.000000
   12       -4.010117     -4.010143   1.000000   1.000000
   13       -3.762236     -3.762263   1.000000   1.000000
   14       -3.146128     -3.146154   1.000000   1.000000
   15       -3.118688     -3.118716   1.000000   1.000000
   16       -1.959980     -1.960028   1.000000   1.000000
   17       -1.018194     -1.018225   1.000000   1.000000
   18       -0.982912     -0.982932   1.000000   1.000000
   19       -0.123620     -0.123657   1.000000   1.000000
   20        0.013516      0.013489   1.000000   1.000000
   21        0.230017      0.229985   1.000000   1.000000
   22        0.883458      0.883403   1.000000   1.000000
   23        0.918840      0.918783   1.000000   1.000000
   24        0.987055      0.987000   1.000000   1.000000
   25        1.182726      1.182682   1.000000   1.000000
   26        1.767887      1.767838   1.000000   1.000000
   27        1.806351      1.806312   1.000000   1.000000
   28        2.453028      2.452998   1.000000   1.000000
   29        7.844856      7.844887   0.000000   0.000000
   30        9.344547      9.344580   0.000000   0.000000
   31        9.586724      9.586712   0.000000   0.000000
   32       10.838595     10.838882   0.000000   0.000000
   33       11.196716     11.196700   0.000000   0.000000
   34       11.772067     11.771579   0.000000   0.000000
   35       11.912045     11.912034   0.000000   0.000000
   36       12.848048     12.847234   0.000000   0.000000
   37       12.859017     12.858907   0.000000   0.000000
   38       13.077339     13.078179   0.000000   0.000000
   39       13.233522     13.235604   0.000000   0.000000
   40       14.096115     13.498834   0.000000   0.000000
 
  0.1428571E+00 -0.6514454E-17  0.0000000E+00  0.5830904E-02
    1      -40.646153    -40.645959   1.000000   1.000000
    2      -40.636516    -40.636322   1.000000   1.000000
    3      -40.581691    -40.581503   1.000000   1.000000
    4      -40.573193    -40.573005   1.000000   1.000000
    5      -17.130987    -17.131036   1.000000   1.000000
    6      -16.514703    -16.514765   1.000000   1.000000
    7      -15.117123    -15.117196   1.000000   1.000000
    8      -15.104125    -15.104199   1.000000   1.000000
    9      -13.079056    -13.079109   1.000000   1.000000
   10      -11.480087    -11.480140   1.000000   1.000000
   11       -7.207533     -7.207562   1.000000   1.000000
   12       -4.009281     -4.009306   1.000000   1.000000
   13       -3.727052     -3.727081   1.000000   1.000000
   14       -3.151813     -3.151840   1.000000   1.000000
   15       -3.069392     -3.069420   1.000000   1.000000
   16       -1.982142     -1.982189   1.000000   1.000000
   17       -1.105870     -1.105895   1.000000   1.000000
   18       -0.779046     -0.779075   1.000000   1.000000
   19       -0.095351     -0.095389   1.000000   1.000000
   20        0.047853      0.047823   1.000000   1.000000
   21        0.225292      0.225262   1.000000   1.000000
   22        0.696559      0.696510   1.000000   1.000000
   23        0.827861      0.827811   1.000000   1.000000
   24        1.004686      1.004632   1.000000   1.000000
   25        1.154239      1.154193   1.000000   1.000000
   26        1.718235      1.718188   1.000000   1.000000
   27        1.854316      1.854273   1.000000   1.000000
   28        2.449686      2.449655   1.000000   1.000000
   29        8.083097      8.083123   0.000000   0.000000
   30        9.334563      9.334587   0.000000   0.000000
   31        9.666322      9.666310   0.000000   0.000000
   32       10.819396     10.819681   0.000000   0.000000
   33       11.046164     11.046151   0.000000   0.000000
   34       11.516004     11.515898   0.000000   0.000000
   35       11.970645     11.970813   0.000000   0.000000
   36       12.355837     12.355824   0.000000   0.000000
   37       12.834665     12.834375   0.000000   0.000000
   38       12.959764     12.956657   0.000000   0.000000
   39       13.091317     13.088151   0.000000   0.000000
   40       14.336130     13.816261   0.000000   0.000000
 
  0.2857143E+00 -0.1083538E-16  0.0000000E+00  0.5830904E-02
    1      -40.645547    -40.645354   1.000000   1.000000
    2      -40.636919    -40.636725   1.000000   1.000000
    3      -40.581882    -40.581694   1.000000   1.000000
    4      -40.573094    -40.572906   1.000000   1.000000
    5      -17.087624    -17.087674   1.000000   1.000000
    6      -16.558385    -16.558445   1.000000   1.000000
    7      -15.124357    -15.124429   1.000000   1.000000
    8      -15.112409    -15.112483   1.000000   1.000000
    9      -13.081127    -13.081180   1.000000   1.000000
   10      -11.475920    -11.475973   1.000000   1.000000
   11       -7.216640     -7.216668   1.000000   1.000000
   12       -4.018020     -4.018043   1.000000   1.000000
   13       -3.623513     -3.623546   1.000000   1.000000
   14       -3.231961     -3.231990   1.000000   1.000000
   15       -2.880425     -2.880456   1.000000   1.000000
   16       -2.048406     -2.048449   1.000000   1.000000
   17       -1.028118     -1.028145   1.000000   1.000000
   18       -0.555948     -0.555983   1.000000   1.000000
   19       -0.106094     -0.106129   1.000000   1.000000
   20        0.110113      0.110077   1.000000   1.000000
   21        0.226020      0.225992   1.000000   1.000000
   22        0.402324      0.402286   1.000000   1.000000
   23        0.659054      0.659011   1.000000   1.000000
   24        0.944652      0.944609   1.000000   1.000000
   25        1.089184      1.089129   1.000000   1.000000
   26        1.599973      1.599931   1.000000   1.000000
   27        1.965449      1.965398   1.000000   1.000000
   28        2.437955      2.437924   1.000000   1.000000
   29        8.689695      8.689711   0.000000   0.000000
   30        9.264543      9.264553   0.000000   0.000000
   31        9.839041      9.839040   0.000000   0.000000
   32       10.617286     10.617274   0.000000   0.000000
   33       10.860970     10.861035   0.000000   0.000000
   34       11.162474     11.162405   0.000000   0.000000
   35       11.579407     11.579353   0.000000   0.000000
   36       12.136318     12.136644   0.000000   0.000000
   37       12.398073     12.397940   0.000000   0.000000
   38       12.989345     12.989987   0.000000   0.000000
   39       13.173590     13.171746   0.000000   0.000000
   40       14.079129     14.265850   0.000000   0.000000
 
  0.4285714E+00  0.1040574E-16  0.0000000E+00  0.5830904E-02
    1      -40.645006    -40.644812   1.000000   1.000000
    2      -40.637287    -40.637093   1.000000   1.000000
    3      -40.582034    -40.581846   1.000000   1.000000
    4      -40.573023    -40.572835   1.000000   1.000000
    5      -17.046428    -17.046479   1.000000   1.000000
    6      -16.599902    -16.599961   1.000000   1.000000
    7      -15.129921    -15.129994   1.000000   1.000000
    8      -15.119223    -15.119296   1.000000   1.000000
    9      -13.082415    -13.082469   1.000000   1.000000
   10      -11.472927    -11.472980   1.000000   1.000000
   11       -7.223234     -7.223262   1.000000   1.000000
   12       -4.032877     -4.032898   1.000000   1.000000
   13       -3.487624     -3.487661   1.000000   1.000000
   14       -3.340381     -3.340409   1.000000   1.000000
   15       -2.680080     -2.680116   1.000000   1.000000
   16       -2.133648     -2.133689   1.000000   1.000000
   17       -0.844807     -0.844840   1.000000   1.000000
   18       -0.465844     -0.465887   1.000000   1.000000
   19       -0.169212     -0.169236   1.000000   1.000000
   20        0.024980      0.024949   1.000000   1.000000
   21        0.097202      0.097173   1.000000   1.000000
   22        0.407488      0.407450   1.000000   1.000000
   23        0.642549      0.642512   1.000000   1.000000
   24        0.856089      0.856049   1.000000   1.000000
   25        1.028205      1.028147   1.000000   1.000000
   26        1.484108      1.484071   1.000000   1.000000
   27        2.060168      2.060111   1.000000   1.000000
   28        2.423165      2.423133   1.000000   1.000000
   29        9.123687      9.123696   0.000000   0.000000
   30        9.456500      9.456503   0.000000   0.000000
   31        9.908581      9.908583   0.000000   0.000000
   32       10.351732     10.351732   0.000000   0.000000
   33       10.785307     10.785107   0.000000   0.000000
   34       10.892494     10.892573   0.000000   0.000000
   35       11.137552     11.137666   0.000000   0.000000
   36       11.986491     11.986568   0.000000   0.000000
   37       12.132913     12.132415   0.000000   0.000000
   38       13.190693     13.192414   0.000000   0.000000
   39       13.504773     13.502218   0.000000   0.000000
   40       14.176841     14.117400   0.000000   0.000000
 
 -0.1559933E-16  0.1428571E+00  0.0000000E+00  0.5830904E-02
    1      -40.646237    -40.646044   1.000000   1.000000
    2      -40.636366    -40.636172   1.000000   1.000000
    3      -40.581810    -40.581622   1.000000   1.000000
    4      -40.573104    -40.572917   1.000000   1.000000
    5      -17.128335    -17.128384   1.000000   1.000000
    6      -16.515721    -16.515783   1.000000   1.000000
    7      -15.125802    -15.125875   1.000000   1.000000
    8      -15.097877    -15.097950   1.000000   1.000000
    9      -13.079881    -13.079934   1.000000   1.000000
   10      -11.480024    -11.480076   1.000000   1.000000
   11       -7.209865     -7.209893   1.000000   1.000000
   12       -4.007492     -4.007517   1.000000   1.000000
   13       -3.729738     -3.729767   1.000000   1.000000
   14       -3.161269     -3.161296   1.000000   1.000000
   15       -3.049890     -3.049920   1.000000   1.000000
   16       -1.982603     -1.982649   1.000000   1.000000
   17       -1.107548     -1.107572   1.000000   1.000000
   18       -0.763919     -0.763949   1.000000   1.000000
   19       -0.102486     -0.102522   1.000000   1.000000
   20        0.047843      0.047812   1.000000   1.000000
   21        0.219491      0.219461   1.000000   1.000000
   22        0.738214      0.738164   1.000000   1.000000
   23        0.828268      0.828220   1.000000   1.000000
   24        0.971704      0.971647   1.000000   1.000000
   25        1.138584      1.138541   1.000000   1.000000
   26        1.717890      1.717843   1.000000   1.000000
   27        1.861153      1.861110   1.000000   1.000000
   28        2.453402      2.453370   1.000000   1.000000
   29        8.065574      8.065600   0.000000   0.000000
   30        9.350819      9.350846   0.000000   0.000000
   31        9.684148      9.684165   0.000000   0.000000
   32       10.755997     10.755545   0.000000   0.000000
   33       11.110449     11.110508   0.000000   0.000000
   34       11.510309     11.509781   0.000000   0.000000
   35       11.973868     11.973837   0.000000   0.000000
   36       12.276489     12.276324   0.000000   0.000000
   37       12.850158     12.848713   0.000000   0.000000
   38       12.968946     12.967011   0.000000   0.000000
   39       13.164617     13.165572   0.000000   0.000000
   40       13.672955     13.615950   0.000000   0.000000
 
  0.1428571E+00  0.1428571E+00  0.0000000E+00  0.5830904E-02
    1      -40.645801    -40.645607   1.000000   1.000000
    2      -40.636642    -40.636448   1.000000   1.000000
    3      -40.581989    -40.581801   1.000000   1.000000
    4      -40.572990    -40.572802   1.000000   1.000000
    5      -17.093926    -17.093977   1.000000   1.000000
    6      -16.553504    -16.553564   1.000000   1.000000
    7      -15.137005    -15.137078   1.000000   1.000000
    8      -15.095352    -15.095426   1.000000   1.000000
    9      -13.078288    -13.078341   1.000000   1.000000
   10      -11.477242    -11.477295   1.000000   1.000000
   11       -7.213724     -7.213752   1.000000   1.000000
   12       -4.028853     -4.028876   1.000000   1.000000
   13       -3.651947     -3.651978   1.000000   1.000000
   14       -3.197402     -3.197432   1.000000   1.000000
   15       -2.970938     -2.970968   1.000000   1.000000
   16       -2.038846     -2.038890   1.000000   1.000000
   17       -1.066007     -1.066033   1.000000   1.000000
   18       -0.490840     -0.490877   1.000000   1.000000
   19       -0.014000     -0.014032   1.000000   1.000000
   20        0.000114      0.000075   1.000000   1.000000
   21        0.230755      0.230727   1.000000   1.000000
   22        0.537906      0.537862   1.000000   1.000000
   23        0.574858      0.574819   1.000000   1.000000
   24        1.025412      1.025363   1.000000   1.000000
   25        1.043876      1.043827   1.000000   1.000000
   26        1.620421      1.620378   1.000000   1.000000
   27        1.967680      1.967629   1.000000   1.000000
   28        2.462443      2.462411   1.000000   1.000000
   29        8.440657      8.440675   0.000000   0.000000
   30        9.306149      9.306157   0.000000   0.000000
   31        9.800532      9.800519   0.000000   0.000000
   32       10.633500     10.633567   0.000000   0.000000
   33       10.957994     10.957996   0.000000   0.000000
   34       11.448341     11.448385   0.000000   0.000000
   35       11.525665     11.525682   0.000000   0.000000
   36       12.145520     12.145687   0.000000   0.000000
   37       12.467438     12.467580   0.000000   0.000000
   38       12.718914     12.718662   0.000000   0.000000
   39       13.081065     13.080639   0.000000   0.000000
   40       14.354071     14.212196   0.000000   0.000000
 
  0.2857143E+00  0.1428571E+00  0.0000000E+00  0.5830904E-02
    1      -40.645246    -40.645052   1.000000   1.000000
    2      -40.637046    -40.636852   1.000000   1.000000
    3      -40.582158    -40.581971   1.000000   1.000000
    4      -40.572943    -40.572755   1.000000   1.000000
    5      -17.050553    -17.050604   1.000000   1.000000
    6      -16.595517    -16.595576   1.000000   1.000000
    7      -15.159581    -15.159653   1.000000   1.000000
    8      -15.088385    -15.088460   1.000000   1.000000
    9      -13.080980    -13.081034   1.000000   1.000000
   10      -11.473736    -11.473789   1.000000   1.000000
   11       -7.222355     -7.222382   1.000000   1.000000
   12       -4.037553     -4.037574   1.000000   1.000000
   13       -3.539220     -3.539254   1.000000   1.000000
   14       -3.264901     -3.264934   1.000000   1.000000
   15       -2.787093     -2.787126   1.000000   1.000000
   16       -2.104578     -2.104620   1.000000   1.000000
   17       -0.896010     -0.896042   1.000000   1.000000
   18       -0.354006     -0.354053   1.000000   1.000000
   19       -0.134152     -0.134178   1.000000   1.000000
   20       -0.099505     -0.099534   1.000000   1.000000
   21        0.304116      0.304074   1.000000   1.000000
   22        0.344213      0.344184   1.000000   1.000000
   23        0.520366      0.520331   1.000000   1.000000
   24        0.908813      0.908773   1.000000   1.000000
   25        1.052040      1.051983   1.000000   1.000000
   26        1.496369      1.496332   1.000000   1.000000
   27        2.063166      2.063110   1.000000   1.000000
   28        2.450621      2.450588   1.000000   1.000000
   29        9.008027      9.008040   0.000000   0.000000
   30        9.222845      9.222847   0.000000   0.000000
   31        9.914264      9.914259   0.000000   0.000000
   32       10.523851     10.523977   0.000000   0.000000
   33       10.704941     10.704905   0.000000   0.000000
   34       11.000971     11.000970   0.000000   0.000000
   35       11.377420     11.377428   0.000000   0.000000
   36       11.966252     11.966053   0.000000   0.000000
   37       12.320486     12.320615   0.000000   0.000000
   38       12.659356     12.659247   0.000000   0.000000
   39       13.238351     13.236280   0.000000   0.000000
   40       14.409136     14.405169   0.000000   0.000000
 
  0.4285714E+00  0.1428571E+00  0.0000000E+00  0.5830904E-02
    1      -40.644959    -40.644765   1.000000   1.000000
    2      -40.637248    -40.637054   1.000000   1.000000
    3      -40.582160    -40.581972   1.000000   1.000000
    4      -40.572960    -40.572772   1.000000   1.000000
    5      -17.035086    -17.035138   1.000000   1.000000
    6      -16.605734    -16.605794   1.000000   1.000000
    7      -15.174657    -15.174728   1.000000   1.000000
    8      -15.083848    -15.083922   1.000000   1.000000
    9      -13.086041    -13.086095   1.000000   1.000000
   10      -11.471845    -11.471898   1.000000   1.000000
   11       -7.229804     -7.229831   1.000000   1.000000
   12       -4.029864     -4.029884   1.000000   1.000000
   13       -3.425218     -3.425259   1.000000   1.000000
   14       -3.353514     -3.353541   1.000000   1.000000
   15       -2.629552     -2.629589   1.000000   1.000000
   16       -2.143706     -2.143746   1.000000   1.000000
   17       -0.780101     -0.780136   1.000000   1.000000
   18       -0.536316     -0.536353   1.000000   1.000000
   19       -0.214841     -0.214864   1.000000   1.000000
   20       -0.122019     -0.122046   1.000000   1.000000
   21        0.218563      0.218523   1.000000   1.000000
   22        0.395813      0.395782   1.000000   1.000000
   23        0.656531      0.656495   1.000000   1.000000
   24        0.818016      0.817975   1.000000   1.000000
   25        1.057187      1.057129   1.000000   1.000000
   26        1.463047      1.463011   1.000000   1.000000
   27        2.070287      2.070229   1.000000   1.000000
   28        2.432279      2.432246   1.000000   1.000000
   29        9.170484      9.170483   0.000000   0.000000
   30        9.411373      9.411382   0.000000   0.000000
   31       10.075900     10.075927   0.000000   0.000000
   32       10.086229     10.086226   0.000000   0.000000
   33       10.603473     10.603379   0.000000   0.000000
   34       11.033180     11.033145   0.000000   0.000000
   35       11.343348     11.343424   0.000000   0.000000
   36       11.853986     11.853993   0.000000   0.000000
   37       12.164080     12.164767   0.000000   0.000000
   38       12.993370     12.996411   0.000000   0.000000
   39       13.492853     13.490836   0.000000   0.000000
   40       14.181660     14.189434   0.000000   0.000000
 
 -0.4285714E+00  0.1428571E+00  0.0000000E+00  0.5830904E-02
    1      -40.645239    -40.645046   1.000000   1.000000
    2      -40.637066    -40.636872   1.000000   1.000000
    3      -40.582008    -40.581821   1.000000   1.000000
    4      -40.573062    -40.572874   1.000000   1.000000
    5      -17.063774    -17.063825   1.000000   1.000000
    6      -16.571906    -16.571966   1.000000   1.000000
    7      -15.175131    -15.175202   1.000000   1.000000
    8      -15.081084    -15.081158   1.000000   1.000000
    9      -13.090055    -13.090108   1.000000   1.000000
   10      -11.472809    -11.472862   1.000000   1.000000
   11       -7.230598     -7.230626   1.000000   1.000000
   12       -4.004216     -4.004238   1.000000   1.000000
   13       -3.524250     -3.524290   1.000000   1.000000
   14       -3.273285     -3.273313   1.000000   1.000000
   15       -2.685329     -2.685364   1.000000   1.000000
   16       -2.085079     -2.085121   1.000000   1.000000
   17       -0.916860     -0.916890   1.000000   1.000000
   18       -0.648107     -0.648138   1.000000   1.000000
   19       -0.216343     -0.216373   1.000000   1.000000
   20       -0.025752     -0.025783   1.000000   1.000000
   21        0.221921      0.221882   1.000000   1.000000
   22        0.406136      0.406105   1.000000   1.000000
   23        0.715619      0.715576   1.000000   1.000000
   24        0.865676      0.865637   1.000000   1.000000
   25        1.101564      1.101507   1.000000   1.000000
   26        1.549154      1.549113   1.000000   1.000000
   27        1.980765      1.980712   1.000000   1.000000
   28        2.420827      2.420795   1.000000   1.000000
   29        9.140538      9.140552   0.000000   0.000000
   30        9.298099      9.298108   0.000000   0.000000
   31        9.825658      9.825640   0.000000   0.000000
   32       10.216766     10.216806   0.000000   0.000000
   33       10.831270     10.831110   0.000000   0.000000
   34       10.971403     10.971361   0.000000   0.000000
   35       11.734070     11.734089   0.000000   0.000000
   36       11.890864     11.890685   0.000000   0.000000
   37       12.324385     12.324154   0.000000   0.000000
   38       13.223272     13.212879   0.000000   0.000000
   39       13.396892     13.395258   0.000000   0.000000
   40       13.982474     13.984278   0.000000   0.000000
 
 -0.2857143E+00  0.1428571E+00  0.0000000E+00  0.5830904E-02
    1      -40.645828    -40.645635   1.000000   1.000000
    2      -40.636694    -40.636500   1.000000   1.000000
    3      -40.581830    -40.581643   1.000000   1.000000
    4      -40.573177    -40.572990   1.000000   1.000000
    5      -17.107145    -17.107195   1.000000   1.000000
    6      -16.527390    -16.527451   1.000000   1.000000
    7      -15.161666    -15.161738   1.000000   1.000000
    8      -15.081306    -15.081380   1.000000   1.000000
    9      -13.089680    -13.089734   1.000000   1.000000
   10      -11.476252    -11.476305   1.000000   1.000000
   11       -7.223483     -7.223512   1.000000   1.000000
   12       -3.979094     -3.979117   1.000000   1.000000
   13       -3.667786     -3.667821   1.000000   1.000000
   14       -3.177499     -3.177526   1.000000   1.000000
   15       -2.872715     -2.872747   1.000000   1.000000
   16       -1.994811     -1.994856   1.000000   1.000000
   17       -1.039157     -1.039183   1.000000   1.000000
   18       -0.814196     -0.814222   1.000000   1.000000
   19       -0.202150     -0.202183   1.000000   1.000000
   20        0.116857      0.116824   1.000000   1.000000
   21        0.236883      0.236845   1.000000   1.000000
   22        0.445768      0.445734   1.000000   1.000000
   23        0.820166      0.820118   1.000000   1.000000
   24        0.985774      0.985726   1.000000   1.000000
   25        1.149510      1.149457   1.000000   1.000000
   26        1.659942      1.659896   1.000000   1.000000
   27        1.866510      1.866465   1.000000   1.000000
   28        2.419394      2.419364   1.000000   1.000000
   29        8.522657      8.522676   0.000000   0.000000
   30        9.386164      9.386175   0.000000   0.000000
   31        9.791612      9.791601   0.000000   0.000000
   32       10.480216     10.480240   0.000000   0.000000
   33       10.979488     10.979220   0.000000   0.000000
   34       11.170464     11.170370   0.000000   0.000000
   35       11.780639     11.780217   0.000000   0.000000
   36       12.387248     12.387141   0.000000   0.000000
   37       12.581896     12.582470   0.000000   0.000000
   38       13.110290     13.113344   0.000000   0.000000
   39       13.389856     13.413939   0.000000   0.000000
   40       14.068861     14.416203   0.000000   0.000000
 
 -0.1428571E+00  0.1428571E+00  0.0000000E+00  0.5830904E-02
    1      -40.646236    -40.646043   1.000000   1.000000
    2      -40.636372    -40.636178   1.000000   1.000000
    3      -40.581716    -40.581528   1.000000   1.000000
    4      -40.573173    -40.572986   1.000000   1.000000
    5      -17.133442    -17.133491   1.000000   1.000000
    6      -16.504765    -16.504827   1.000000   1.000000
    7      -15.141017    -15.141090   1.000000   1.000000
    8      -15.087305    -15.087379   1.000000   1.000000
    9      -13.084913    -13.084966   1.000000   1.000000
   10      -11.479583    -11.479636   1.000000   1.000000
   11       -7.213973     -7.214002   1.000000   1.000000
   12       -3.980503     -3.980528   1.000000   1.000000
   13       -3.746207     -3.746238   1.000000   1.000000
   14       -3.138601     -3.138627   1.000000   1.000000
   15       -3.020452     -3.020481   1.000000   1.000000
   16       -1.958599     -1.958646   1.000000   1.000000
   17       -1.014330     -1.014360   1.000000   1.000000
   18       -0.966404     -0.966424   1.000000   1.000000
   19       -0.185084     -0.185118   1.000000   1.000000
   20        0.047071      0.047042   1.000000   1.000000
   21        0.283736      0.283702   1.000000   1.000000
   22        0.671084      0.671038   1.000000   1.000000
   23        0.913703      0.913650   1.000000   1.000000
   24        1.004270      1.004211   1.000000   1.000000
   25        1.159745      1.159701   1.000000   1.000000
   26        1.730851      1.730802   1.000000   1.000000
   27        1.815374      1.815333   1.000000   1.000000
   28        2.432781      2.432752   1.000000   1.000000
   29        8.093984      8.094010   0.000000   0.000000
   30        9.383891      9.383899   0.000000   0.000000
   31        9.681528      9.681563   0.000000   0.000000
   32       10.837683     10.837072   0.000000   0.000000
   33       10.996408     10.997094   0.000000   0.000000
   34       11.418083     11.417967   0.000000   0.000000
   35       11.839775     11.839862   0.000000   0.000000
   36       12.532419     12.532442   0.000000   0.000000
   37       12.936151     12.937513   0.000000   0.000000
   38       13.252771     13.239758   0.000000   0.000000
   39       13.399466     13.404840   0.000000   0.000000
   40       13.812859     13.952524   0.000000   0.000000
 
 -0.4454934E-16  0.2857143E+00  0.0000000E+00  0.5830904E-02
    1      -40.645858    -40.645664   1.000000   1.000000
    2      -40.636452    -40.636258   1.000000   1.000000
    3      -40.582262    -40.582074   1.000000   1.000000
    4      -40.572859    -40.572671   1.000000   1.000000
    5      -17.077615    -17.077665   1.000000   1.000000
    6      -16.563062    -16.563122   1.000000   1.000000
    7      -15.146205    -15.146277   1.000000   1.000000
    8      -15.098931    -15.099005   1.000000   1.000000
    9      -13.083702    -13.083755   1.000000   1.000000
   10      -11.475829    -11.475881   1.000000   1.000000
   11       -7.224150     -7.224178   1.000000   1.000000
   12       -4.014946     -4.014969   1.000000   1.000000
   13       -3.624803     -3.624835   1.000000   1.000000
   14       -3.238231     -3.238261   1.000000   1.000000
   15       -2.843739     -2.843771   1.000000   1.000000
   16       -2.049808     -2.049852   1.000000   1.000000
   17       -1.021271     -1.021298   1.000000   1.000000
   18       -0.515558     -0.515592   1.000000   1.000000
   19       -0.127876     -0.127910   1.000000   1.000000
   20        0.116293      0.116258   1.000000   1.000000
   21        0.218311      0.218281   1.000000   1.000000
   22        0.388811      0.388773   1.000000   1.000000
   23        0.698976      0.698933   1.000000   1.000000
   24        0.914434      0.914387   1.000000   1.000000
   25        1.047469      1.047420   1.000000   1.000000
   26        1.601547      1.601504   1.000000   1.000000
   27        1.988932      1.988880   1.000000   1.000000
   28        2.451373      2.451341   1.000000   1.000000
   29        8.573326      8.573342   0.000000   0.000000
   30        9.361677      9.361682   0.000000   0.000000
   31        9.909637      9.909641   0.000000   0.000000
   32       10.537798     10.537838   0.000000   0.000000
   33       10.918105     10.918135   0.000000   0.000000
   34       11.128969     11.128894   0.000000   0.000000
   35       11.512457     11.512437   0.000000   0.000000
   36       12.026739     12.026857   0.000000   0.000000
   37       12.440007     12.439896   0.000000   0.000000
   38       13.103925     13.104981   0.000000   0.000000
   39       13.137784     13.137680   0.000000   0.000000
   40       13.786852     13.765655   0.000000   0.000000
 
  0.1428571E+00  0.2857143E+00  0.0000000E+00  0.5830904E-02
    1      -40.645487    -40.645293   1.000000   1.000000
    2      -40.636739    -40.636545   1.000000   1.000000
    3      -40.582431    -40.582243   1.000000   1.000000
    4      -40.572806    -40.572618   1.000000   1.000000
    5      -17.042729    -17.042780   1.000000   1.000000
    6      -16.599773    -16.599832   1.000000   1.000000
    7      -15.167677    -15.167749   1.000000   1.000000
    8      -15.086215    -15.086289   1.000000   1.000000
    9      -13.082720    -13.082774   1.000000   1.000000
   10      -11.473732    -11.473785   1.000000   1.000000
   11       -7.227579     -7.227606   1.000000   1.000000
   12       -4.036079     -4.036100   1.000000   1.000000
   13       -3.538534     -3.538567   1.000000   1.000000
   14       -3.265789     -3.265823   1.000000   1.000000
   15       -2.765218     -2.765251   1.000000   1.000000
   16       -2.103980     -2.104022   1.000000   1.000000
   17       -0.892334     -0.892365   1.000000   1.000000
   18       -0.305464     -0.305512   1.000000   1.000000
   19       -0.188953     -0.188979   1.000000   1.000000