 running on   12 total cores
 distrk:  each k-point on   12 cores,    1 groups
 distr:  one band on    6 cores,    2 groups
 using from now: INCAR     
 vasp.6.1.2 22Jul20 (build Mar 20 2021 11:25:07) complex                        
  
 POSCAR found type information on POSCAR P N 
 POSCAR found :  2 types and      16 ions
 scaLAPACK will be used
 LDA part: xc-table for Pade appr. of Perdew
 generate k-points for:    7    7    4
 POSCAR, INCAR and KPOINTS ok, starting setup
 FFT: planning ...
 WAVECAR not read
 entering main loop
       N       E                     dE             d eps       ncg     rms          rms(c)
DAV:   1     0.466062346342E+03    0.46606E+03   -0.39570E+04 21384   0.135E+03
DAV:   2    -0.972598145047E+02   -0.56332E+03   -0.53977E+03 27360   0.301E+02
DAV:   3    -0.135936239591E+03   -0.38676E+02   -0.38331E+02 26712   0.844E+01
DAV:   4    -0.136751993830E+03   -0.81575E+00   -0.81235E+00 28048   0.127E+01
DAV:   5    -0.136772942774E+03   -0.20949E-01   -0.20919E-01 26412   0.195E+00    0.432E+01
DAV:   6    -0.117604429069E+03    0.19169E+02   -0.67608E+01 25042   0.317E+01    0.213E+01
DAV:   7    -0.120080457460E+03   -0.24760E+01   -0.96581E+00 26062   0.115E+01    0.711E+00
DAV:   8    -0.120318185435E+03   -0.23773E+00   -0.70102E-01 26030   0.385E+00    0.427E+00
DAV:   9    -0.120324958511E+03   -0.67731E-02   -0.73577E-02 25664   0.144E+00    0.211E+00
DAV:  10    -0.120323466253E+03    0.14923E-02   -0.24058E-02 28298   0.821E-01    0.449E-01
DAV:  11    -0.120325846183E+03   -0.23799E-02   -0.53418E-03 25022   0.391E-01    0.256E-01
DAV:  12    -0.120326291650E+03   -0.44547E-03   -0.59335E-04 28258   0.132E-01    0.153E-01
DAV:  13    -0.120326535216E+03   -0.24357E-03   -0.23873E-04 25538   0.767E-02    0.601E-02
DAV:  14    -0.120326589168E+03   -0.53952E-04   -0.35906E-05 21984   0.304E-02    0.186E-02
DAV:  15    -0.120326600921E+03   -0.11753E-04   -0.10534E-05 16522   0.168E-02    0.105E-02
DAV:  16    -0.120326604339E+03   -0.34177E-05   -0.43909E-06 14792   0.918E-03
   1 F= -.12032660E+03 E0= -.12032660E+03  d E =0.000000E+00  mag=    -0.0004
