 running on   12 total cores
 distrk:  each k-point on   12 cores,    1 groups
 distr:  one band on    6 cores,    2 groups
 using from now: INCAR     
 vasp.6.1.2 22Jul20 (build Mar 20 2021 11:25:07) complex                        
  
 POSCAR found type information on POSCAR LiO 
 POSCAR found :  2 types and       3 ions
 scaLAPACK will be used
 -----------------------------------------------------------------------------
|                                                                             |
|               ----> ADVICE to this user running VASP <----                  |
|                                                                             |
|     You have a (more or less) 'small supercell' and for smaller cells       |
|     it is recommended to use the reciprocal-space projection scheme!        |
|     The real-space optimization is not efficient for small cells and it     |
|     is also less accurate ...                                               |
|     Therefore, set LREAL=.FALSE. in the INCAR file.                         |
|                                                                             |
 -----------------------------------------------------------------------------

 LDA part: xc-table for Pade appr. of Perdew
 generate k-points for:   13   12   12
 POSCAR, INCAR and KPOINTS ok, starting setup
 FFT: planning ...
 WAVECAR not read
 entering main loop
       N       E                     dE             d eps       ncg     rms          rms(c)
DAV:   1     0.450257037374E+02    0.45026E+02   -0.57412E+03 24624   0.104E+03
DAV:   2    -0.973713380289E+01   -0.54763E+02   -0.52859E+02 29540   0.231E+02
DAV:   3    -0.152068527613E+02   -0.54697E+01   -0.54240E+01 45676   0.546E+01
DAV:   4    -0.152566378432E+02   -0.49785E-01   -0.49779E-01 28204   0.663E+00
DAV:   5    -0.152569985265E+02   -0.36068E-03   -0.36068E-03 34120   0.435E-01    0.117E+01
RMM:   6    -0.140689966094E+02    0.11880E+01   -0.34373E+00 26830   0.125E+01    0.493E+00
RMM:   7    -0.141869544622E+02   -0.11796E+00   -0.10996E-01 31813   0.277E+00    0.218E+00
RMM:   8    -0.141972578644E+02   -0.10303E-01   -0.46253E-02 35977   0.207E+00    0.117E+00
RMM:   9    -0.142088440106E+02   -0.11586E-01   -0.32135E-02 35594   0.200E+00    0.242E-01
RMM:  10    -0.142102943759E+02   -0.14504E-02   -0.10164E-02 40833   0.781E-01    0.135E-01
RMM:  11    -0.142110847435E+02   -0.79037E-03   -0.47341E-03 39282   0.554E-01    0.137E-01
RMM:  12    -0.142111013498E+02   -0.16606E-04   -0.17886E-03 40292   0.341E-01    0.652E-02
RMM:  13    -0.142111370741E+02   -0.35724E-04   -0.75193E-04 40092   0.223E-01    0.205E-02
WARNING in EDDRMM: call to ZHEGV failed, returncode =   6  3      3
WARNING in EDDRMM: call to ZHEGV failed, returncode =   6  3      4
RMM:  14    -0.142111797606E+02   -0.42686E-04   -0.33543E-04 39148   0.132E-01    0.353E-02
WARNING in EDDRMM: call to ZHEGV failed, returncode =   8  4      3
RMM:  15    -0.142111963123E+02   -0.16552E-04   -0.12755E-04 36396   0.857E-02    0.257E-02
WARNING in EDDRMM: call to ZHEGV failed, returncode =   6  3      3
RMM:  16    -0.142112011059E+02   -0.47937E-05   -0.61442E-05 33667   0.592E-02
   1 F= -.14211201E+02 E0= -.14211201E+02  d E =0.000000E+00  mag=     0.0000
