       N       E                     dE             d eps       ncg     rms          rms(c)
DAV:   1     0.445914960545E+02    0.44591E+02   -0.57460E+03 24616   0.104E+03
DAV:   2    -0.970940154947E+01   -0.54301E+02   -0.52417E+02 29476   0.229E+02
DAV:   3    -0.151826638431E+02   -0.54733E+01   -0.54279E+01 45892   0.547E+01
DAV:   4    -0.152325190123E+02   -0.49855E-01   -0.49848E-01 27936   0.660E+00
DAV:   5    -0.152328887018E+02   -0.36969E-03   -0.36968E-03 34316   0.437E-01    0.118E+01
RMM:   6    -0.140283534440E+02    0.12045E+01   -0.34373E+00 26838   0.126E+01    0.493E+00
RMM:   7    -0.141467133777E+02   -0.11836E+00   -0.10976E-01 32085   0.277E+00    0.219E+00
RMM:   8    -0.141577851544E+02   -0.11072E-01   -0.46275E-02 36195   0.207E+00    0.117E+00
RMM:   9    -0.141692340052E+02   -0.11449E-01   -0.32584E-02 35720   0.201E+00    0.243E-01
RMM:  10    -0.141707678785E+02   -0.15339E-02   -0.10650E-02 40964   0.798E-01    0.134E-01
RMM:  11    -0.141715408361E+02   -0.77296E-03   -0.46450E-03 39414   0.551E-01    0.131E-01
RMM:  12    -0.141715915946E+02   -0.50759E-04   -0.18760E-03 40521   0.345E-01    0.623E-02
RMM:  13    -0.141716383552E+02   -0.46761E-04   -0.76469E-04 40262   0.223E-01    0.207E-02
RMM:  14    -0.141716815230E+02   -0.43168E-04   -0.33906E-04 39293   0.133E-01    0.360E-02
RMM:  15    -0.141716985841E+02   -0.17061E-04   -0.12996E-04 36411   0.865E-02    0.255E-02
RMM:  16    -0.141717034954E+02   -0.49113E-05   -0.62216E-05 33786   0.594E-02
   1 F= -.14171703E+02 E0= -.14171703E+02  d E =0.000000E+00  mag=     0.0000
