 running on   12 total cores
 distrk:  each k-point on   12 cores,    1 groups
 distr:  one band on    6 cores,    2 groups
 using from now: INCAR     
 vasp.6.1.2 22Jul20 (build Mar 20 2021 11:25:07) complex                        
  
 POSCAR found type information on POSCAR Li
 POSCAR found :  1 types and       1 ions
 scaLAPACK will be used
 -----------------------------------------------------------------------------
|                                                                             |
|               ----> ADVICE to this user running VASP <----                  |
|                                                                             |
|     You have a (more or less) 'small supercell' and for smaller cells       |
|     it is recommended to use the reciprocal-space projection scheme!        |
|     The real-space optimization is not efficient for small cells and it     |
|     is also less accurate ...                                               |
|     Therefore, set LREAL=.FALSE. in the INCAR file.                         |
|                                                                             |
 -----------------------------------------------------------------------------

 LDA part: xc-table for Pade appr. of Perdew
 generate k-points for:   15   13   13
 POSCAR, INCAR and KPOINTS ok, starting setup
 FFT: planning ...
 WAVECAR not read
 entering main loop
       N       E                     dE             d eps       ncg     rms          rms(c)
DAV:   1     0.624128514791E+00    0.62413E+00   -0.72215E+02 16686   0.351E+02
DAV:   2    -0.150841385472E+01   -0.21325E+01   -0.20832E+01 23268   0.484E+01
DAV:   3    -0.158016831519E+01   -0.71754E-01   -0.71645E-01 20496   0.612E+00
DAV:   4    -0.158139679826E+01   -0.12285E-02   -0.12278E-02 23808   0.690E-01
DAV:   5    -0.158140327025E+01   -0.64720E-05   -0.64656E-05 21276   0.394E-02    0.545E+00
RMM:   6    -0.181109827623E+01   -0.22970E+00   -0.58290E-02 20196   0.229E+00    0.260E+00
RMM:   7    -0.188234769862E+01   -0.71249E-01   -0.17346E-02 18847   0.139E+00    0.162E-01
RMM:   8    -0.188372412186E+01   -0.13764E-02   -0.81096E-03 20623   0.847E-01    0.968E-02
RMM:   9    -0.188409856511E+01   -0.37444E-03   -0.23522E-03 25253   0.457E-01    0.362E-02
RMM:  10    -0.188442588512E+01   -0.32732E-03   -0.13342E-03 22613   0.345E-01    0.290E-02
RMM:  11    -0.188447947425E+01   -0.53589E-04   -0.28332E-04 25103   0.144E-01    0.241E-02
RMM:  12    -0.188449256928E+01   -0.13095E-04   -0.13576E-04 24026   0.106E-01    0.788E-03
RMM:  13    -0.188450294020E+01   -0.10371E-04   -0.36263E-05 23029   0.603E-02    0.615E-03
RMM:  14    -0.188450524714E+01   -0.23069E-05   -0.13952E-05 16281   0.379E-02
   1 F= -.18845052E+01 E0= -.18845052E+01  d E =0.000000E+00  mag=    -0.0001
 -----------------------------------------------------------------------------
|                                                                             |
|           W    W    AA    RRRRR   N    N  II  N    N   GGGG   !!!           |
|           W    W   A  A   R    R  NN   N  II  NN   N  G    G  !!!           |
|           W    W  A    A  R    R  N N  N  II  N N  N  G       !!!           |
|           W WW W  AAAAAA  RRRRR   N  N N  II  N  N N  G  GGG   !            |
|           WW  WW  A    A  R   R   N   NN  II  N   NN  G    G                |
|           W    W  A    A  R    R  N    N  II  N    N   GGGG   !!!           |
|                                                                             |
|     Tetrahedron method does not include variations of the Fermi             |
|     occupations, so forces and stress will be inaccurate. We suggest        |
|     using a different smearing scheme ISMEAR = 1 or 2 for metals in         |
|     relaxations.                                                            |
|                                                                             |
 -----------------------------------------------------------------------------

