 running on   48 total cores
 distrk:  each k-point on   48 cores,    1 groups
 distr:  one band on    6 cores,    8 groups
 using from now: INCAR     
 vasp.6.1.2 22Jul20 (build Mar 31 2021 18:09:49) complex                        
  
 POSCAR found type information on POSCAR LiP O 
 POSCAR found :  3 types and     100 ions
 scaLAPACK will be used
 LDA part: xc-table for Pade appr. of Perdew
 generate k-points for:    6    3    2
 POSCAR, INCAR and KPOINTS ok, starting setup
 FFT: planning ...
 WAVECAR not read
 entering main loop
       N       E                     dE             d eps       ncg     rms          rms(c)
DAV:   1     0.450424851628E+04    0.45042E+04   -0.25647E+05 27520   0.151E+03
DAV:   2    -0.257640470835E+03   -0.47619E+04   -0.45123E+04 32488   0.387E+02
DAV:   3    -0.711601662884E+03   -0.45396E+03   -0.45061E+03 34376   0.129E+02
DAV:   4    -0.742213425328E+03   -0.30612E+02   -0.30470E+02 47720   0.267E+01
DAV:   5    -0.748572866338E+03   -0.63594E+01   -0.63560E+01 44536   0.729E+00    0.107E+02
DAV:   6    -0.570691488304E+03    0.17788E+03   -0.43560E+02 33128   0.392E+01    0.594E+01
DAV:   7    -0.595351069665E+03   -0.24660E+02   -0.64608E+01 33888   0.142E+01    0.205E+01
DAV:   8    -0.611340089532E+03   -0.15989E+02   -0.11917E+01 33600   0.680E+00    0.122E+01
DAV:   9    -0.632134499642E+03   -0.20794E+02   -0.10154E+01 33488   0.539E+00    0.754E+00
DAV:  10    -0.656098037686E+03   -0.23964E+02   -0.22228E+01 33944   0.673E+00    0.407E+00
DAV:  11    -0.666112723708E+03   -0.10015E+02   -0.11566E+01 34384   0.471E+00    0.281E+00
DAV:  12    -0.668583358509E+03   -0.24706E+01   -0.33883E+00 33456   0.286E+00    0.175E+00
DAV:  13    -0.668765627722E+03   -0.18227E+00   -0.51043E-01 32048   0.126E+00    0.947E-01
DAV:  14    -0.668781569720E+03   -0.15942E-01   -0.73146E-02 34464   0.590E-01    0.569E-01
DAV:  15    -0.668780040519E+03    0.15292E-02   -0.17295E-02 31264   0.306E-01    0.279E-01
DAV:  16    -0.668780648368E+03   -0.60785E-03   -0.47269E-03 36896   0.154E-01    0.101E-01
DAV:  17    -0.668781182435E+03   -0.53407E-03   -0.15538E-03 34456   0.839E-02    0.546E-02
DAV:  18    -0.668781316786E+03   -0.13435E-03   -0.23702E-04 33752   0.391E-02    0.303E-02
DAV:  19    -0.668781349390E+03   -0.32604E-04   -0.56698E-05 29040   0.182E-02    0.140E-02
DAV:  20    -0.668781355984E+03   -0.65940E-05   -0.13511E-05 23088   0.983E-03
   1 F= -.66878136E+03 E0= -.66878136E+03  d E =0.000000E+00  mag=     0.0001
