       N       E                     dE             d eps       ncg     rms          rms(c)
DAV:   1     0.104770750241E+04    0.10477E+04   -0.68148E+04  5856   0.132E+03
DAV:   2    -0.283559558902E+02   -0.10761E+04   -0.99560E+03  6888   0.284E+02
DAV:   3    -0.165459902085E+03   -0.13710E+03   -0.13533E+03  7910   0.958E+01
DAV:   4    -0.181007616429E+03   -0.15548E+02   -0.15451E+02 10448   0.288E+01
DAV:   5    -0.184400774859E+03   -0.33932E+01   -0.33913E+01  9800   0.871E+00    0.322E+01
DAV:   6    -0.184916751515E+03   -0.51598E+00   -0.93327E+00  7704   0.713E+00    0.175E+01
DAV:   7    -0.187061813859E+03   -0.21451E+01   -0.31456E+00  7648   0.421E+00    0.104E+01
DAV:   8    -0.187932558324E+03   -0.87074E+00   -0.13566E+00  7144   0.301E+00    0.249E+00
DAV:   9    -0.188019753183E+03   -0.87195E-01   -0.20789E-01  8208   0.132E+00    0.106E+00
DAV:  10    -0.188035606121E+03   -0.15853E-01   -0.36738E-02  7904   0.505E-01    0.393E-01
DAV:  11    -0.188040384768E+03   -0.47786E-02   -0.58491E-03  7232   0.238E-01    0.205E-01
DAV:  12    -0.188043028818E+03   -0.26440E-02   -0.25130E-03  7568   0.139E-01    0.103E-01
DAV:  13    -0.188044164051E+03   -0.11352E-02   -0.91734E-04  7312   0.783E-02    0.414E-02
DAV:  14    -0.188044484158E+03   -0.32011E-03   -0.29088E-04  6904   0.422E-02    0.243E-02
DAV:  15    -0.188044587989E+03   -0.10383E-03   -0.11630E-04  6112   0.275E-02    0.115E-02
DAV:  16    -0.188044610078E+03   -0.22090E-04   -0.24837E-05  5848   0.144E-02    0.538E-03
DAV:  17    -0.188044615130E+03   -0.50516E-05   -0.60275E-06  4504   0.804E-03
   1 F= -.18804462E+03 E0= -.18804462E+03  d E =0.000000E+00  mag=    -0.0003
