 running on   48 total cores
 distrk:  each k-point on   48 cores,    1 groups
 distr:  one band on    6 cores,    8 groups
 using from now: INCAR     
 vasp.6.1.2 22Jul20 (build Mar 31 2021 18:09:49) complex                        
  
 POSCAR found type information on POSCAR LiP O 
 POSCAR found :  3 types and     100 ions
 scaLAPACK will be used
 LDA part: xc-table for Pade appr. of Perdew
 generate k-points for:    6    3    2
 POSCAR, INCAR and KPOINTS ok, starting setup
 FFT: planning ...
 WAVECAR not read
 entering main loop
       N       E                     dE             d eps       ncg     rms          rms(c)
DAV:   1     0.449788365996E+04    0.44979E+04   -0.25651E+05 27520   0.151E+03
DAV:   2    -0.261669512400E+03   -0.47596E+04   -0.45115E+04 32504   0.387E+02
DAV:   3    -0.713270864825E+03   -0.45160E+03   -0.44830E+03 34344   0.129E+02
DAV:   4    -0.743742676631E+03   -0.30472E+02   -0.30331E+02 47648   0.266E+01
DAV:   5    -0.750093407795E+03   -0.63507E+01   -0.63473E+01 44312   0.728E+00    0.107E+02
DAV:   6    -0.572507587251E+03    0.17759E+03   -0.43563E+02 33128   0.391E+01    0.584E+01
DAV:   7    -0.597283174949E+03   -0.24776E+02   -0.64035E+01 34216   0.141E+01    0.205E+01
DAV:   8    -0.613409875365E+03   -0.16127E+02   -0.12014E+01 33752   0.679E+00    0.121E+01
DAV:   9    -0.634498956586E+03   -0.21089E+02   -0.10430E+01 33448   0.544E+00    0.739E+00
DAV:  10    -0.658174775117E+03   -0.23676E+02   -0.22067E+01 33928   0.668E+00    0.406E+00
DAV:  11    -0.668249604582E+03   -0.10075E+02   -0.11877E+01 34360   0.476E+00    0.276E+00
DAV:  12    -0.670489594482E+03   -0.22400E+01   -0.31512E+00 33656   0.279E+00    0.172E+00
DAV:  13    -0.670653959707E+03   -0.16437E+00   -0.44743E-01 32328   0.120E+00    0.931E-01
DAV:  14    -0.670670303950E+03   -0.16344E-01   -0.67871E-02 34864   0.569E-01    0.557E-01
DAV:  15    -0.670668585253E+03    0.17187E-02   -0.15708E-02 31328   0.292E-01    0.269E-01
DAV:  16    -0.670669306019E+03   -0.72077E-03   -0.44985E-03 37712   0.151E-01    0.984E-02
DAV:  17    -0.670669775362E+03   -0.46934E-03   -0.15124E-03 33816   0.821E-02    0.528E-02
DAV:  18    -0.670669907675E+03   -0.13231E-03   -0.23389E-04 33712   0.382E-02    0.286E-02
DAV:  19    -0.670669937911E+03   -0.30236E-04   -0.54238E-05 28032   0.175E-02    0.134E-02
DAV:  20    -0.670669944673E+03   -0.67615E-05   -0.13184E-05 22648   0.966E-03
   1 F= -.67066994E+03 E0= -.67066994E+03  d E =0.000000E+00  mag=     0.0000
