    8    8    1    2
  0.8950226E+01  0.4579503E-09  0.4871811E-09  0.4871811E-09  0.5000000E-15
  1.000000000000000E-004
  CAR 
 unknown system                          
     36    362     26
 
  0.0000000E+00  0.0000000E+00  0.0000000E+00  0.1388889E-02
    1      -37.938255    -37.938090   1.000000   1.000000
    2      -37.907159    -37.906996   1.000000   1.000000
    3      -13.917557    -13.917584   1.000000   1.000000
    4       -9.299623     -9.299667   1.000000   1.000000
    5       -9.170326     -9.170371   1.000000   1.000000
    6       -8.724200     -8.724248   1.000000   1.000000
    7       -6.749722     -6.749752   1.000000   1.000000
    8       -2.104900     -2.104924   1.000000   1.000000
    9       -1.966538     -1.966562   1.000000   1.000000
   10       -1.312429     -1.312456   1.000000   1.000000
   11        1.327668      1.327639   1.000000   1.000000
   12        2.582744      2.582737   1.000000   1.000000
   13        2.742846      2.742826   1.000000   1.000000
   14        3.778608      3.778592   1.000000   1.000000
   15        3.861002      3.860977   1.000000   1.000000
   16        4.262004      4.261974   1.000000   1.000000
   17        4.385062      4.385039   1.000000   1.000000
   18        4.605614      4.605573   1.000000   1.000000
   19        9.199958      9.200002   0.000000   0.000000
   20       11.889092     11.889125   0.000000   0.000000
   21       14.094632     14.094712   0.000000   0.000000
   22       14.385996     14.386120   0.000000   0.000000
   23       14.462984     14.463457   0.000000   0.000000
   24       14.633337     14.634827   0.000000   0.000000
   25       15.721225     15.806693   0.000000   0.000000
   26       16.131328     16.445656   0.000000   0.000000
 
  0.1111111E+00 -0.1604036E-17  0.1604036E-17  0.2777778E-02
    1      -37.937373    -37.937207   1.000000   1.000000
    2      -37.907995    -37.907832   1.000000   1.000000
    3      -13.841146    -13.841177   1.000000   1.000000
    4       -9.635666     -9.635709   1.000000   1.000000
    5       -9.151458     -9.151503   1.000000   1.000000
    6       -8.766743     -8.766790   1.000000   1.000000
    7       -6.458076     -6.458109   1.000000   1.000000
    8       -2.105370     -2.105394   1.000000   1.000000
    9       -1.966724     -1.966749   1.000000   1.000000
   10       -1.216288     -1.216316   1.000000   1.000000
   11        1.250188      1.250162   1.000000   1.000000
   12        2.655588      2.655576   1.000000   1.000000
   13        2.743870      2.743853   1.000000   1.000000
   14        3.839848      3.839821   1.000000   1.000000
   15        3.881461      3.881433   1.000000   1.000000
   16        4.283692      4.283670   1.000000   1.000000
   17        4.334282      4.334245   1.000000   1.000000
   18        4.449033      4.449012   1.000000   1.000000
   19        9.511171      9.511213   0.000000   0.000000
   20       11.987037     11.987065   0.000000   0.000000
   21       13.675916     13.675937   0.000000   0.000000
   22       14.168618     14.168688   0.000000   0.000000
   23       14.366155     14.366198   0.000000   0.000000
   24       15.017895     15.018398   0.000000   0.000000
   25       15.216523     15.216467   0.000000   0.000000
   26       16.156796     16.170571   0.000000   0.000000
 
  0.2222222E+00 -0.1079697E-16 -0.1695860E-16  0.2777778E-02
    1      -37.934865    -37.934700   1.000000   1.000000
    2      -37.910341    -37.910179   1.000000   1.000000
    3      -13.617642    -13.617673   1.000000   1.000000
    4      -10.300500    -10.300540   1.000000   1.000000
    5       -9.205796     -9.205840   1.000000   1.000000
    6       -8.831014     -8.831060   1.000000   1.000000
    7       -5.870252     -5.870285   1.000000   1.000000
    8       -2.148571     -2.148596   1.000000   1.000000
    9       -1.870370     -1.870395   1.000000   1.000000
   10       -1.010771     -1.010801   1.000000   1.000000
   11        1.158608      1.158586   1.000000   1.000000
   12        2.674834      2.674816   1.000000   1.000000
   13        2.875124      2.875107   1.000000   1.000000
   14        3.342439      3.342417   1.000000   1.000000
   15        3.895606      3.895571   1.000000   1.000000
   16        4.074226      4.074192   1.000000   1.000000
   17        4.406464      4.406450   1.000000   1.000000
   18        4.815674      4.815647   1.000000   1.000000
   19       10.343296     10.343328   0.000000   0.000000
   20       12.167126     12.167154   0.000000   0.000000
   21       12.837542     12.837540   0.000000   0.000000
   22       13.810155     13.810170   0.000000   0.000000
   23       14.057159     14.057167   0.000000   0.000000
   24       15.161796     15.161521   0.000000   0.000000
   25       15.455380     15.453735   0.000000   0.000000
   26       16.536303     16.552737   0.000000   0.000000
 
  0.3333333E+00  0.8415672E-17 -0.6392682E-16  0.2777778E-02
    1      -37.931309    -37.931143   1.000000   1.000000
    2      -37.913764    -37.913602   1.000000   1.000000
    3      -13.271673    -13.271705   1.000000   1.000000
    4      -11.022417    -11.022455   1.000000   1.000000
    5       -9.260385     -9.260428   1.000000   1.000000
    6       -8.907248     -8.907293   1.000000   1.000000
    7       -5.321897     -5.321929   1.000000   1.000000
    8       -2.205772     -2.205800   1.000000   1.000000
    9       -1.624665     -1.624692   1.000000   1.000000
   10       -0.879867     -0.879897   1.000000   1.000000
   11        1.254106      1.254085   1.000000   1.000000
   12        2.460394      2.460377   1.000000   1.000000
   13        2.602055      2.602033   1.000000   1.000000
   14        3.070464      3.070445   1.000000   1.000000
   15        3.799800      3.799777   1.000000   1.000000
   16        3.968378      3.968345   1.000000   1.000000
   17        4.686939      4.686917   1.000000   1.000000
   18        5.265941      5.265904   1.000000   1.000000
   19       11.423638     11.423656   0.000000   0.000000
   20       12.066093     12.066101   0.000000   0.000000
   21       12.389874     12.389902   0.000000   0.000000
   22       13.518303     13.518285   0.000000   0.000000
   23       13.750844     13.750933   0.000000   0.000000
   24       15.311578     15.311512   0.000000   0.000000
   25       15.782112     15.760170   0.000000   0.000000
   26       16.547595     16.574051   0.000000   0.000000
 
  0.4444444E+00 -0.2159395E-16 -0.3391720E-16  0.2777778E-02
    1      -37.927849    -37.927681   1.000000   1.000000
    2      -37.917114    -37.916954   1.000000   1.000000
    3      -12.904479    -12.904512   1.000000   1.000000
    4      -11.595619    -11.595652   1.000000   1.000000
    5       -9.285183     -9.285225   1.000000   1.000000
    6       -8.966217     -8.966262   1.000000   1.000000
    7       -5.002873     -5.002903   1.000000   1.000000
    8       -2.209197     -2.209229   1.000000   1.000000
    9       -1.369771     -1.369802   1.000000   1.000000
   10       -0.894445     -0.894473   1.000000   1.000000
   11        1.540987      1.540969   1.000000   1.000000
   12        1.885175      1.885161   1.000000   1.000000
   13        2.283055      2.283033   1.000000   1.000000
   14        3.363586      3.363561   1.000000   1.000000
   15        3.684633      3.684608   1.000000   1.000000
   16        3.829355      3.829338   1.000000   1.000000
   17        4.939336      4.939306   1.000000   1.000000
   18        5.505969      5.505926   1.000000   1.000000
   19       11.598031     11.598037   0.000000   0.000000
   20       12.153865     12.153886   0.000000   0.000000
   21       12.912377     12.912380   0.000000   0.000000
   22       13.277184     13.277182   0.000000   0.000000
   23       13.723565     13.723552   0.000000   0.000000
   24       15.294380     15.295000   0.000000   0.000000
   25       15.738054     15.724969   0.000000   0.000000
   26       16.024294     16.447487   0.000000   0.000000
 
  0.3475122E-18  0.1250000E+00  0.2133945E-16  0.2777778E-02
    1      -37.937518    -37.937353   1.000000   1.000000
    2      -37.907899    -37.907736   1.000000   1.000000
    3      -13.845096    -13.845127   1.000000   1.000000
    4       -9.522966     -9.523008   1.000000   1.000000
    5       -9.240714     -9.240759   1.000000   1.000000
    6       -8.841477     -8.841523   1.000000   1.000000
    7       -6.380420     -6.380453   1.000000   1.000000
    8       -2.076373     -2.076397   1.000000   1.000000
    9       -1.962124     -1.962148   1.000000   1.000000
   10       -1.238531     -1.238559   1.000000   1.000000
   11        1.276867      1.276840   1.000000   1.000000
   12        2.687453      2.687439   1.000000   1.000000
   13        2.735218      2.735199   1.000000   1.000000
   14        3.632605      3.632577   1.000000   1.000000
   15        3.876650      3.876626   1.000000   1.000000
   16        4.197472      4.197453   1.000000   1.000000
   17        4.421408      4.421382   1.000000   1.000000
   18        4.551717      4.551685   1.000000   1.000000
   19        9.525585      9.525626   0.000000   0.000000
   20       12.103932     12.103955   0.000000   0.000000
   21       13.505697     13.505714   0.000000   0.000000
   22       13.713635     13.713637   0.000000   0.000000
   23       14.560232     14.560242   0.000000   0.000000
   24       14.902218     14.902227   0.000000   0.000000
   25       15.772458     15.771578   0.000000   0.000000
   26       16.304383     16.349454   0.000000   0.000000
 
  0.1111111E+00  0.1250000E+00 -0.2316494E-16  0.2777778E-02
    1      -37.936078    -37.935913   1.000000   1.000000
    2      -37.909261    -37.909099   1.000000   1.000000
    3      -13.719127    -13.719158   1.000000   1.000000
    4       -9.990982     -9.991022   1.000000   1.000000
    5       -9.207379     -9.207424   1.000000   1.000000
    6       -8.905620     -8.905665   1.000000   1.000000
    7       -5.973003     -5.973037   1.000000   1.000000
    8       -2.095439     -2.095463   1.000000   1.000000
    9       -1.839376     -1.839402   1.000000   1.000000
   10       -1.177166     -1.177195   1.000000   1.000000
   11        1.247992      1.247969   1.000000   1.000000
   12        2.642702      2.642685   1.000000   1.000000
   13        2.784261      2.784242   1.000000   1.000000
   14        3.498051      3.498025   1.000000   1.000000
   15        3.861196      3.861165   1.000000   1.000000
   16        4.182207      4.182176   1.000000   1.000000
   17        4.413755      4.413736   1.000000   1.000000
   18        4.544675      4.544653   1.000000   1.000000
   19       10.028108     10.028145   0.000000   0.000000
   20       12.095805     12.095829   0.000000   0.000000
   21       13.089864     13.089865   0.000000   0.000000
   22       13.678125     13.678138   0.000000   0.000000
   23       14.457336     14.457335   0.000000   0.000000
   24       14.923169     14.923053   0.000000   0.000000
   25       15.352941     15.353488   0.000000   0.000000
   26       16.206902     16.207518   0.000000   0.000000
 
  0.2222222E+00  0.1250000E+00  0.1579480E-16  0.2777778E-02
    1      -37.933201    -37.933035   1.000000   1.000000
    2      -37.911996    -37.911833   1.000000   1.000000
    3      -13.451087    -13.451121   1.000000   1.000000
    4      -10.655271    -10.655309   1.000000   1.000000
    5       -9.263724     -9.263766   1.000000   1.000000
    6       -8.946042     -8.946088   1.000000   1.000000
    7       -5.430048     -5.430081   1.000000   1.000000
    8       -2.208896     -2.208921   1.000000   1.000000
    9       -1.628286     -1.628313   1.000000   1.000000
   10       -0.993067     -0.993098   1.000000   1.000000
   11        1.266556      1.266535   1.000000   1.000000
   12        2.484836      2.484817   1.000000   1.000000
   13        2.621264      2.621246   1.000000   1.000000
   14        3.246604      3.246584   1.000000   1.000000
   15        3.758295      3.758264   1.000000   1.000000
   16        4.157306      4.157271   1.000000   1.000000
   17        4.586036      4.586017   1.000000   1.000000
   18        4.902022      4.901993   1.000000   1.000000
   19       10.930450     10.930477   0.000000   0.000000
   20       12.005346     12.005370   0.000000   0.000000
   21       12.555788     12.555792   0.000000   0.000000
   22       13.649017     13.649037   0.000000   0.000000
   23       13.993725     13.993691   0.000000   0.000000
   24       14.848690     14.848702   0.000000   0.000000
   25       15.478824     15.478291   0.000000   0.000000
   26       16.473985     16.446500   0.000000   0.000000
 
  0.3333333E+00  0.1250000E+00 -0.3417848E-17  0.2777778E-02
    1      -37.929493    -37.929326   1.000000   1.000000
    2      -37.915549    -37.915387   1.000000   1.000000
    3      -13.075044    -13.075074   1.000000   1.000000
    4      -11.322979    -11.323014   1.000000   1.000000
    5       -9.306713     -9.306755   1.000000   1.000000
    6       -9.002936     -9.002980   1.000000   1.000000
    7       -4.985270     -4.985302   1.000000   1.000000
    8       -2.302209     -2.302239   1.000000   1.000000
    9       -1.387983     -1.388011   1.000000   1.000000
   10       -0.889281     -0.889312   1.000000   1.000000
   11        1.460577      1.460558   1.000000   1.000000
   12        1.879181      1.879168   1.000000   1.000000
   13        2.537150      2.537130   1.000000   1.000000
   14        3.190809      3.190784   1.000000   1.000000
   15        3.759097      3.759075   1.000000   1.000000
   16        4.104734      4.104701   1.000000   1.000000
   17        4.782440      4.782415   1.000000   1.000000
   18        5.287624      5.287586   1.000000   1.000000
   19       11.741357     11.741383   0.000000   0.000000
   20       11.958415     11.958423   0.000000   0.000000
   21       12.335481     12.335501   0.000000   0.000000
   22       13.365822     13.365866   0.000000   0.000000
   23       13.918233     13.918216   0.000000   0.000000
   24       14.923210     14.922996   0.000000   0.000000
   25       15.956641     15.755565   0.000000   0.000000
   26       16.454682     16.430300   0.000000   0.000000
 
  0.4444444E+00  0.1250000E+00  0.1604420E-15  0.2777778E-02
    1      -37.926719    -37.926551   1.000000   1.000000
    2      -37.918234    -37.918075   1.000000   1.000000
    3      -12.760321    -12.760353   1.000000   1.000000
    4      -11.757551    -11.757585   1.000000   1.000000
    5       -9.321742     -9.321784   1.000000   1.000000
    6       -9.030052     -9.030096   1.000000   1.000000
    7       -4.804602     -4.804632   1.000000   1.000000
    8       -2.381112     -2.381145   1.000000   1.000000
    9       -1.263220     -1.263251   1.000000   1.000000
   10       -0.834318     -0.834347   1.000000   1.000000
   11        1.399237      1.399230   1.000000   1.000000
   12        1.863811      1.863787   1.000000   1.000000
   13        2.338673      2.338653   1.000000   1.000000
   14        3.355658      3.355628   1.000000   1.000000
   15        3.756205      3.756184   1.000000   1.000000
   16        3.992307      3.992282   1.000000   1.000000
   17        4.913294      4.913264   1.000000   1.000000
   18        5.445854      5.445811   1.000000   1.000000
   19       11.480811     11.480821   0.000000   0.000000
   20       12.254499     12.254514   0.000000   0.000000
   21       12.768819     12.768819   0.000000   0.000000
   22       13.280394     13.280404   0.000000   0.000000
   23       14.047336     14.047373   0.000000   0.000000
   24       15.205926     15.206447   0.000000   0.000000
   25       15.714375     15.638611   0.000000   0.000000
   26       16.053039     16.019616   0.000000   0.000000
 
 -0.4444444E+00  0.1250000E+00  0.1362329E-16  0.2777778E-02
    1      -37.928353    -37.928186   1.000000   1.000000
    2      -37.916587    -37.916426   1.000000   1.000000
    3      -12.950167    -12.950197   1.000000   1.000000
    4      -11.495873    -11.495908   1.000000   1.000000
    5       -9.316539     -9.316581   1.000000   1.000000
    6       -8.990190     -8.990234   1.000000   1.000000
    7       -4.960143     -4.960174   1.000000   1.000000
    8       -2.471529     -2.471559   1.000000   1.000000
    9       -1.368234     -1.368263   1.000000   1.000000
   10       -0.729087     -0.729117   1.000000   1.000000
   11        1.228242      1.228225   1.000000   1.000000
   12        1.991554      1.991542   1.000000   1.000000
   13        2.631283      2.631257   1.000000   1.000000
   14        3.481355      3.481326   1.000000   1.000000
   15        3.657929      3.657901   1.000000   1.000000
   16        3.949585      3.949567   1.000000   1.000000
   17        4.831839      4.831812   1.000000   1.000000
   18        5.395673      5.395632   1.000000   1.000000
   19       11.500339     11.500347   0.000000   0.000000
   20       12.110264     12.110274   0.000000   0.000000
   21       12.593046     12.593051   0.000000   0.000000
   22       13.498375     13.498396   0.000000   0.000000
   23       14.107561     14.107729   0.000000   0.000000
   24       15.260627     15.262567   0.000000   0.000000
   25       15.587252     15.596765   0.000000   0.000000
   26       15.893380     16.482517   0.000000   0.000000
 
 -0.3333333E+00  0.1250000E+00  0.4609674E-16  0.2777778E-02
    1      -37.932071    -37.931905   1.000000   1.000000
    2      -37.912992    -37.912830   1.000000   1.000000
    3      -13.338146    -13.338176   1.000000   1.000000
    4      -10.859726    -10.859763   1.000000   1.000000
    5       -9.281264     -9.281307   1.000000   1.000000
    6       -8.907562     -8.907607   1.000000   1.000000
    7       -5.399454     -5.399486   1.000000   1.000000
    8       -2.504585     -2.504609   1.000000   1.000000
    9       -1.543685     -1.543713   1.000000   1.000000
   10       -0.743626     -0.743657   1.000000   1.000000
   11        1.000707      1.000690   1.000000   1.000000
   12        2.591939      2.591919   1.000000   1.000000
   13        2.911690      2.911664   1.000000   1.000000
   14        3.272118      3.272100   1.000000   1.000000
   15        3.777222      3.777187   1.000000   1.000000
   16        3.969643      3.969618   1.000000   1.000000
   17        4.604102      4.604084   1.000000   1.000000
   18        5.133654      5.133621   1.000000   1.000000
   19       11.052072     11.052097   0.000000   0.000000
   20       12.172322     12.172341   0.000000   0.000000
   21       12.542466     12.542466   0.000000   0.000000
   22       13.623802     13.623834   0.000000   0.000000
   23       14.048221     14.048260   0.000000   0.000000
   24       15.055244     15.055764   0.000000   0.000000
   25       15.636958     15.636605   0.000000   0.000000
   26       16.317857     16.401683   0.000000   0.000000
 
 -0.2222222E+00  0.1250000E+00  0.1994520E-16  0.2777778E-02
    1      -37.935283    -37.935117   1.000000   1.000000
    2      -37.909912    -37.909750   1.000000   1.000000
    3      -13.646000    -13.646031   1.000000   1.000000
    4      -10.184554    -10.184594   1.000000   1.000000
    5       -9.228288     -9.228332   1.000000   1.000000
    6       -8.826776     -8.826822   1.000000   1.000000
    7       -5.953176     -5.953209   1.000000   1.000000
    8       -2.442142     -2.442164   1.000000   1.000000
    9       -1.705484     -1.705510   1.000000   1.000000
   10       -0.914542     -0.914573   1.000000   1.000000
   11        1.004649      1.004630   1.000000   1.000000
   12        2.853740      2.853717   1.000000   1.000000
   13        2.912580      2.912558   1.000000   1.000000
   14        3.506875      3.506855   1.000000   1.000000
   15        3.868005      3.867972   1.000000   1.000000
   16        4.064230      4.064195   1.000000   1.000000
   17        4.402433      4.402416   1.000000   1.000000
   18        4.753462      4.753441   1.000000   1.000000
   19       10.160682     10.160717   0.000000   0.000000
   20       12.294929     12.294949   0.000000   0.000000
   21       13.079660     13.079655   0.000000   0.000000
   22       13.852334     13.852353   0.000000   0.000000
   23       14.127999     14.128002   0.000000   0.000000
   24       14.659801     14.659812   0.000000   0.000000
   25       15.729425     15.729664   0.000000   0.000000
   26       16.163893     16.156755   0.000000   0.000000
 
 -0.1111111E+00  0.1250000E+00  0.5757093E-16  0.2777778E-02
    1      -37.937213    -37.937048   1.000000   1.000000
    2      -37.908102    -37.907939   1.000000   1.000000
    3      -13.819998    -13.820029   1.000000   1.000000
    4       -9.640259     -9.640302   1.000000   1.000000
    5       -9.228649     -9.228692   1.000000   1.000000
    6       -8.785467     -8.785514   1.000000   1.000000
    7       -6.374634     -6.374666   1.000000   1.000000
    8       -2.294176     -2.294199   1.000000   1.000000
    9       -1.834758     -1.834783   1.000000   1.000000
   10       -1.126504     -1.126533   1.000000   1.000000
   11        1.169428      1.169403   1.000000   1.000000
   12        2.721949      2.721934   1.000000   1.000000
   13        2.827544      2.827523   1.000000   1.000000
   14        3.643512      3.643486   1.000000   1.000000
   15        3.890295      3.890266   1.000000   1.000000
   16        4.223439      4.223422   1.000000   1.000000
   17        4.414366      4.414333   1.000000   1.000000
   18        4.560098      4.560073   1.000000   1.000000
   19        9.576904      9.576945   0.000000   0.000000
   20       12.164415     12.164434   0.000000   0.000000
   21       13.553287     13.553302   0.000000   0.000000
   22       13.991327     13.991334   0.000000   0.000000
   23       14.355642     14.355657   0.000000   0.000000
   24       14.486796     14.486947   0.000000   0.000000
   25       16.009200     16.120838   0.000000   0.000000
   26       16.550016     16.434647   0.000000   0.000000
 
  0.6950245E-18  0.2500000E+00  0.4267889E-16  0.2777778E-02
    1      -37.935505    -37.935340   1.000000   1.000000
    2      -37.909814    -37.909652   1.000000   1.000000
    3      -13.644740    -13.644771   1.000000   1.000000
    4      -10.171647    -10.171685   1.000000   1.000000
    5       -9.279812     -9.279856   1.000000   1.000000
    6       -8.942678     -8.942724   1.000000   1.000000
    7       -5.713736     -5.713769   1.000000   1.000000
    8       -2.042470     -2.042496   1.000000   1.000000
    9       -1.853075     -1.853101   1.000000   1.000000
   10       -1.095121     -1.095150   1.000000   1.000000
   11        1.239772      1.239749   1.000000   1.000000
   12        2.650115      2.650083   1.000000   1.000000
   13        2.759613      2.759590   1.000000   1.000000
   14        3.144020      3.144013   1.000000   1.000000
   15        3.869705      3.869674   1.000000   1.000000
   16        4.184242      4.184219   1.000000   1.000000
   17        4.366823      4.366803   1.000000   1.000000
   18        4.850341      4.850312   1.000000   1.000000
   19       10.400791     10.400822   0.000000   0.000000
   20       12.150248     12.150257   0.000000   0.000000
   21       12.760284     12.760310   0.000000   0.000000
   22       13.294670     13.294683   0.000000   0.000000
   23       14.265846     14.265845   0.000000   0.000000
   24       15.259536     15.259669   0.000000   0.000000
   25       15.719165     15.720092   0.000000   0.000000
   26       16.530065     16.605970   0.000000   0.000000
 
  0.1111111E+00  0.2500000E+00  0.8144123E-16  0.2777778E-02
    1      -37.933808    -37.933642   1.000000   1.000000
    2      -37.911444    -37.911282   1.000000   1.000000
    3      -13.484170    -13.484202   1.000000   1.000000
    4      -10.569295    -10.569332   1.000000   1.000000
    5       -9.292131     -9.292174   1.000000   1.000000
    6       -8.991262     -8.991307   1.000000   1.000000
    7       -5.365275     -5.365308   1.000000   1.000000
    8       -2.159998     -2.160024   1.000000   1.000000
    9       -1.584414     -1.584441   1.000000   1.000000
   10       -1.060014     -1.060045   1.000000   1.000000
   11        1.300512      1.300491   1.000000   1.000000
   12        2.366887      2.366862   1.000000   1.000000
   13        2.638124      2.638107   1.000000   1.000000
   14        3.222393      3.222376   1.000000   1.000000
   15        3.759122      3.759092   1.000000   1.000000
   16        4.162511      4.162479   1.000000   1.000000
   17        4.561504      4.561485   1.000000   1.000000
   18        4.894295      4.894266   1.000000   1.000000
   19       10.965402     10.965436   0.000000   0.000000
   20       11.902479     11.902496   0.000000   0.000000
   21       12.554123     12.554140   0.000000   0.000000
   22       13.344771     13.344789   0.000000   0.000000
   23       14.264900     14.264894   0.000000   0.000000
   24       15.045608     15.045481   0.000000   0.000000
   25       15.466344     15.466208   0.000000   0.000000
   26       16.455257     16.425591   0.000000   0.000000
 
  0.2222222E+00  0.2500000E+00  0.2818412E-16  0.2777778E-02
    1      -37.930845    -37.930679   1.000000   1.000000
    2      -37.914262    -37.914100   1.000000   1.000000
    3      -13.188549    -13.188580   1.000000   1.000000
    4      -11.107032    -11.107069   1.000000   1.000000
    5       -9.366341     -9.366383   1.000000   1.000000
    6       -9.037991     -9.038035   1.000000   1.000000
    7       -4.911083     -4.911116   1.000000   1.000000
    8       -2.372979     -2.373008   1.000000   1.000000
    9       -1.358233     -1.358260   1.000000   1.000000
   10       -0.894657     -0.894689   1.000000   1.000000
   11        1.392690      1.392671   1.000000   1.000000
   12        1.823416      1.823403   1.000000   1.000000
   13        2.551741      2.551721   1.000000   1.000000
   14        3.448796      3.448771   1.000000   1.000000
   15        3.689577      3.689547   1.000000   1.000000
   16        4.261355      4.261322   1.000000   1.000000
   17        4.743344      4.743317   1.000000   1.000000
   18        5.004744      5.004715   1.000000   1.000000
   19       11.615787     11.615805   0.000000   0.000000
   20       11.829165     11.829186   0.000000   0.000000
   21       12.271695     12.271705   0.000000   0.000000
   22       13.204465     13.204411   0.000000   0.000000
   23       14.362762     14.362781   0.000000   0.000000
   24       14.732532     14.732494   0.000000   0.000000
   25       15.464156     15.472184   0.000000   0.000000
   26       16.488181     16.574465   0.000000   0.000000
 
  0.3333333E+00  0.2500000E+00  0.1175299E-15  0.2777778E-02
    1      -37.927286    -37.927118   1.000000   1.000000
    2      -37.917701    -37.917541   1.000000   1.000000
    3      -12.789772    -12.789803   1.000000   1.000000
    4      -11.670897    -11.670932   1.000000   1.000000
    5       -9.400055     -9.400096   1.000000   1.000000
    6       -9.102452     -9.102495   1.000000   1.000000
    7       -4.535631     -4.535663   1.000000   1.000000
    8       -2.635326     -2.635360   1.000000   1.000000
    9       -1.180497     -1.180524   1.000000   1.000000
   10       -0.780883     -0.780915   1.000000   1.000000
   11        1.300532      1.300525   1.000000   1.000000
   12        1.775302      1.775281   1.000000   1.000000
   13        2.410131      2.410111   1.000000   1.000000
   14        3.426100      3.426069   1.000000   1.000000
   15        3.892521      3.892493   1.000000   1.000000
   16        4.314379      4.314346   1.000000   1.000000
   17        4.756166      4.756140   1.000000   1.000000
   18        5.207922      5.207885   1.000000   1.000000
   19       11.598160     11.598173   0.000000   0.000000
   20       12.050875     12.050915   0.000000   0.000000
   21       12.585739     12.585757   0.000000   0.000000
   22       12.903519     12.903524   0.000000   0.000000
   23       14.407108     14.406919   0.000000   0.000000
   24       14.993864     14.994130   0.000000   0.000000
   25       15.469464     15.468837   0.000000   0.000000
   26       16.299117     16.492512   0.000000   0.000000
 
  0.4444444E+00  0.2500000E+00  0.3158959E-16  0.2777778E-02
    1      -37.925349    -37.925179   1.000000   1.000000
    2      -37.919518    -37.919361   1.000000   1.000000
    3      -12.537718    -12.537751   1.000000   1.000000
    4      -11.962052    -11.962086   1.000000   1.000000
    5       -9.390455     -9.390496   1.000000   1.000000
    6       -9.131600     -9.131643   1.000000   1.000000
    7       -4.445231     -4.445263   1.000000   1.000000
    8       -2.881806     -2.881839   1.000000   1.000000
    9       -1.113083     -1.113110   1.000000   1.000000
   10       -0.643001     -0.643032   1.000000   1.000000
   11        1.199301      1.199292   1.000000   1.000000
   12        1.873166      1.873146   1.000000   1.000000
   13        2.470983      2.470961   1.000000   1.000000
   14        3.309061      3.309029   1.000000   1.000000
   15        4.076255      4.076227   1.000000   1.000000
   16        4.248037      4.248006   1.000000   1.000000
   17        4.803391      4.803365   1.000000   1.000000
   18        5.279591      5.279552   1.000000   1.000000
   19       11.481574     11.481586   0.000000   0.000000
   20       12.127957     12.127953   0.000000   0.000000
   21       12.606759     12.606775   0.000000   0.000000
   22       13.248664     13.248680   0.000000   0.000000
   23       14.628949     14.628928   0.000000   0.000000
   24       14.955434     14.956208   0.000000   0.000000
   25       15.473270     15.472871   0.000000   0.000000