 running on   12 total cores
 distrk:  each k-point on   12 cores,    1 groups
 distr:  one band on    6 cores,    2 groups
 using from now: INCAR     
 vasp.6.1.2 22Jul20 (build Mar 20 2021 11:25:07) complex                        
  
 POSCAR found type information on POSCAR LiP 
 POSCAR found :  2 types and      40 ions
 scaLAPACK will be used
 LDA part: xc-table for Pade appr. of Perdew
 generate k-points for:    4    3    3
 POSCAR, INCAR and KPOINTS ok, starting setup
 FFT: planning ...
 WAVECAR not read
 entering main loop
       N       E                     dE             d eps       ncg     rms          rms(c)
DAV:   1     0.106803537809E+04    0.10680E+04   -0.69017E+04  5856   0.133E+03
DAV:   2    -0.287134996252E+02   -0.10967E+04   -0.10119E+04  6840   0.290E+02
DAV:   3    -0.166414302750E+03   -0.13770E+03   -0.13588E+03  7910   0.970E+01
DAV:   4    -0.182376559919E+03   -0.15962E+02   -0.15862E+02 10616   0.291E+01
DAV:   5    -0.185416836412E+03   -0.30403E+01   -0.30387E+01  9520   0.838E+00    0.346E+01
DAV:   6    -0.185688378206E+03   -0.27154E+00   -0.93370E+00  7608   0.714E+00    0.191E+01
DAV:   7    -0.187882124416E+03   -0.21937E+01   -0.32672E+00  7568   0.441E+00    0.115E+01
DAV:   8    -0.188757976469E+03   -0.87585E+00   -0.14419E+00  7072   0.313E+00    0.248E+00
DAV:   9    -0.188832965783E+03   -0.74989E-01   -0.20241E-01  8120   0.136E+00    0.116E+00
DAV:  10    -0.188845781373E+03   -0.12816E-01   -0.41401E-02  7784   0.523E-01    0.416E-01
DAV:  11    -0.188849542157E+03   -0.37608E-02   -0.58522E-03  7176   0.246E-01    0.207E-01
DAV:  12    -0.188851326786E+03   -0.17846E-02   -0.20609E-03  7928   0.128E-01    0.107E-01
DAV:  13    -0.188852247287E+03   -0.92050E-03   -0.67856E-04  7072   0.678E-02    0.428E-02
DAV:  14    -0.188852557190E+03   -0.30990E-03   -0.29729E-04  7152   0.439E-02    0.227E-02
DAV:  15    -0.188852633614E+03   -0.76424E-04   -0.91436E-05  6944   0.245E-02    0.122E-02
DAV:  16    -0.188852652341E+03   -0.18727E-04   -0.19346E-05  5496   0.132E-02    0.544E-03
DAV:  17    -0.188852656845E+03   -0.45048E-05   -0.51250E-06  4480   0.745E-03
   1 F= -.18885266E+03 E0= -.18885266E+03  d E =0.000000E+00  mag=    -0.0003
