Automatically generated mesh
     362
Reciprocal lattice
    0.00000000000000    0.00000000000000    0.00000000000000             1
    0.12500000000000    0.00000000000000   -0.00000000000000             2
    0.25000000000000    0.00000000000000   -0.00000000000000             2
    0.37500000000000    0.00000000000000   -0.00000000000000             2
    0.50000000000000    0.00000000000000   -0.00000000000000             1
    0.00000000000000    0.11111111111111    0.00000000000000             2
    0.12500000000000    0.11111111111111    0.00000000000000             2
    0.25000000000000    0.11111111111111    0.00000000000000             2
    0.37500000000000    0.11111111111111    0.00000000000000             2
    0.50000000000000    0.11111111111111    0.00000000000000             2
   -0.37500000000000    0.11111111111111    0.00000000000000             2
   -0.25000000000000    0.11111111111111    0.00000000000000             2
   -0.12500000000000    0.11111111111111    0.00000000000000             2
   -0.00000000000000    0.22222222222222    0.00000000000001             2
    0.12500000000000    0.22222222222222    0.00000000000001             2
    0.25000000000000    0.22222222222222    0.00000000000001             2
    0.37500000000000    0.22222222222222    0.00000000000001             2
    0.50000000000000    0.22222222222222    0.00000000000001             2
   -0.37500000000000    0.22222222222222    0.00000000000001             2
   -0.25000000000000    0.22222222222222    0.00000000000001             2
   -0.12500000000000    0.22222222222222    0.00000000000001             2
   -0.00000000000000    0.33333333333334   -0.00000000000000             2
    0.12500000000000    0.33333333333334   -0.00000000000000             2
    0.25000000000000    0.33333333333334   -0.00000000000000             2
    0.37500000000000    0.33333333333334   -0.00000000000000             2
    0.50000000000000    0.33333333333334   -0.00000000000000             2
   -0.37500000000000    0.33333333333334   -0.00000000000000             2
   -0.25000000000000    0.33333333333334   -0.00000000000000             2
   -0.12500000000000    0.33333333333334   -0.00000000000000             2
   -0.00000000000000    0.44444444444444   -0.00000000000000             2
    0.12500000000000    0.44444444444444   -0.00000000000000             2
    0.25000000000000    0.44444444444444   -0.00000000000000             2
    0.37500000000000    0.44444444444444   -0.00000000000000             2
    0.50000000000000    0.44444444444444   -0.00000000000000             2
   -0.37500000000000    0.44444444444444   -0.00000000000000             2
   -0.25000000000000    0.44444444444444   -0.00000000000000             2
   -0.12500000000000    0.44444444444444   -0.00000000000000             2
    0.00000000000000   -0.00000000000000    0.10000000000000             2
    0.12500000000000   -0.00000000000000    0.10000000000000             2
    0.25000000000000   -0.00000000000000    0.10000000000000             2
    0.37500000000000   -0.00000000000000    0.10000000000000             2
    0.50000000000000    0.00000000000000    0.10000000000000             2
   -0.37500000000000   -0.00000000000000    0.10000000000000             2
   -0.25000000000000   -0.00000000000000    0.10000000000000             2
   -0.12500000000000   -0.00000000000000    0.10000000000000             2
    0.00000000000000    0.11111111111111    0.10000000000000             2
    0.12500000000000    0.11111111111111    0.10000000000000             2
    0.25000000000000    0.11111111111111    0.10000000000000             2
    0.37500000000000    0.11111111111111    0.10000000000000             2
    0.50000000000000    0.11111111111111    0.10000000000000             2
   -0.37500000000000    0.11111111111111    0.10000000000000             2
   -0.25000000000000    0.11111111111111    0.10000000000000             2
   -0.12500000000000    0.11111111111111    0.10000000000000             2
    0.00000000000000    0.22222222222222    0.10000000000000             2
    0.12500000000000    0.22222222222222    0.10000000000000             2
    0.25000000000000    0.22222222222222    0.10000000000000             2
    0.37500000000000    0.22222222222222    0.10000000000000             2
    0.50000000000000    0.22222222222222    0.10000000000000             2
   -0.37500000000000    0.22222222222222    0.10000000000000             2
   -0.25000000000000    0.22222222222222    0.10000000000000             2
   -0.12500000000000    0.22222222222222    0.10000000000000             2
    0.00000000000000    0.33333333333334    0.10000000000000             2
    0.12500000000000    0.33333333333334    0.10000000000000             2
    0.25000000000000    0.33333333333334    0.10000000000000             2
    0.37500000000000    0.33333333333334    0.10000000000000             2
    0.50000000000000    0.33333333333334    0.10000000000000             2
   -0.37500000000000    0.33333333333334    0.10000000000000             2
   -0.25000000000000    0.33333333333334    0.10000000000000             2
   -0.12500000000000    0.33333333333334    0.10000000000000             2
   -0.00000000000000    0.44444444444444    0.10000000000001             2
    0.12500000000000    0.44444444444444    0.10000000000001             2
    0.25000000000000    0.44444444444444    0.10000000000001             2
    0.37500000000000    0.44444444444444    0.10000000000001             2
    0.50000000000000    0.44444444444444    0.10000000000001             2
   -0.37500000000000    0.44444444444444    0.10000000000001             2
   -0.25000000000000    0.44444444444444    0.10000000000001             2
   -0.12500000000000    0.44444444444444    0.10000000000001             2
    0.00000000000000   -0.44444444444444    0.10000000000000             2
    0.12500000000000   -0.44444444444444    0.10000000000000             2
    0.25000000000000   -0.44444444444444    0.10000000000000             2
    0.37500000000000   -0.44444444444444    0.10000000000000             2
    0.50000000000000   -0.44444444444444    0.10000000000000             2
   -0.37500000000000   -0.44444444444444    0.10000000000000             2
   -0.25000000000000   -0.44444444444444    0.10000000000000             2
   -0.12500000000000   -0.44444444444444    0.10000000000000             2
    0.00000000000000   -0.33333333333334    0.10000000000000             2
    0.12500000000000   -0.33333333333334    0.10000000000000             2
    0.25000000000000   -0.33333333333334    0.10000000000000             2
    0.37500000000000   -0.33333333333334    0.10000000000000             2
    0.50000000000000   -0.33333333333334    0.10000000000000             2
   -0.37500000000000   -0.33333333333334    0.10000000000000             2
   -0.25000000000000   -0.33333333333334    0.10000000000000             2
   -0.12500000000000   -0.33333333333334    0.10000000000000             2
    0.00000000000000   -0.22222222222222    0.10000000000000             2
    0.12500000000000   -0.22222222222222    0.10000000000000             2
    0.25000000000000   -0.22222222222222    0.10000000000000             2
    0.37500000000000   -0.22222222222222    0.10000000000000             2
    0.50000000000000   -0.22222222222222    0.10000000000000             2
   -0.37500000000000   -0.22222222222222    0.10000000000000             2
   -0.25000000000000   -0.22222222222222    0.10000000000000             2
   -0.12500000000000   -0.22222222222222    0.10000000000000             2
   -0.00000000000000   -0.11111111111111    0.10000000000001             2
    0.12500000000000   -0.11111111111111    0.10000000000001             2
    0.25000000000000   -0.11111111111111    0.10000000000001             2
    0.37500000000000   -0.11111111111111    0.10000000000001             2
    0.50000000000000   -0.11111111111111    0.10000000000001             2
   -0.37500000000000   -0.11111111111111    0.10000000000001             2
   -0.25000000000000   -0.11111111111111    0.10000000000001             2
   -0.12500000000000   -0.11111111111111    0.10000000000001             2
    0.00000000000000   -0.00000000000000    0.20000000000000             2
    0.12500000000000   -0.00000000000000    0.20000000000000             2
    0.25000000000000   -0.00000000000000    0.20000000000000             2
    0.37500000000000   -0.00000000000000    0.20000000000000             2
    0.50000000000000    0.00000000000000    0.20000000000000             2
   -0.37500000000000   -0.00000000000000    0.20000000000000             2
   -0.25000000000000   -0.00000000000000    0.20000000000000             2
   -0.12500000000000   -0.00000000000000    0.20000000000000             2
    0.00000000000000    0.11111111111111    0.20000000000000             2
    0.12500000000000    0.11111111111111    0.20000000000000             2
    0.25000000000000    0.11111111111111    0.20000000000000             2
    0.37500000000000    0.11111111111111    0.20000000000000             2
    0.50000000000000    0.11111111111111    0.20000000000000             2
   -0.37500000000000    0.11111111111111    0.20000000000000             2
   -0.25000000000000    0.11111111111111    0.20000000000000             2
   -0.12500000000000    0.11111111111111    0.20000000000000             2
   -0.00000000000000    0.22222222222222    0.20000000000000             2
    0.12500000000000    0.22222222222222    0.20000000000000             2
    0.25000000000000    0.22222222222222    0.20000000000000             2
    0.37500000000000    0.22222222222222    0.20000000000000             2
    0.50000000000000    0.22222222222222    0.20000000000000             2
   -0.37500000000000    0.22222222222222    0.20000000000000             2
   -0.25000000000000    0.22222222222222    0.20000000000000             2
   -0.12500000000000    0.22222222222222    0.20000000000000             2
   -0.00000000000000    0.33333333333334    0.20000000000000             2
    0.12500000000000    0.33333333333334    0.20000000000000             2
    0.25000000000000    0.33333333333334    0.20000000000000             2
    0.37500000000000    0.33333333333334    0.20000000000000             2
    0.50000000000000    0.33333333333334    0.20000000000000             2
   -0.37500000000000    0.33333333333334    0.20000000000000             2
   -0.25000000000000    0.33333333333334    0.20000000000000             2
   -0.12500000000000    0.33333333333334    0.20000000000000             2
    0.00000000000000    0.44444444444444    0.20000000000000             2
    0.12500000000000    0.44444444444444    0.20000000000000             2
    0.25000000000000    0.44444444444444    0.20000000000000             2
    0.37500000000000    0.44444444444444    0.20000000000000             2
    0.50000000000000    0.44444444444444    0.20000000000000             2
   -0.37500000000000    0.44444444444444    0.20000000000000             2
   -0.25000000000000    0.44444444444444    0.20000000000000             2
   -0.12500000000000    0.44444444444444    0.20000000000000             2
    0.00000000000000   -0.44444444444444    0.20000000000000             2
    0.12500000000000   -0.44444444444444    0.20000000000000             2
    0.25000000000000   -0.44444444444444    0.20000000000000             2
    0.37500000000000   -0.44444444444444    0.20000000000000             2
    0.50000000000000   -0.44444444444444    0.20000000000000             2
   -0.37500000000000   -0.44444444444444    0.20000000000000             2
   -0.25000000000000   -0.44444444444444    0.20000000000000             2
   -0.12500000000000   -0.44444444444444    0.20000000000000             2
    0.00000000000000   -0.33333333333334    0.20000000000000             2
    0.12500000000000   -0.33333333333334    0.20000000000000             2
    0.25000000000000   -0.33333333333334    0.20000000000000             2
    0.37500000000000   -0.33333333333334    0.20000000000000             2
    0.50000000000000   -0.33333333333334    0.20000000000000             2
   -0.37500000000000   -0.33333333333334    0.20000000000000             2
   -0.25000000000000   -0.33333333333334    0.20000000000000             2
   -0.12500000000000   -0.33333333333334    0.20000000000000             2
    0.00000000000000   -0.22222222222222    0.20000000000000             2
    0.12500000000000   -0.22222222222222    0.20000000000000             2
    0.25000000000000   -0.22222222222222    0.20000000000000             2
    0.37500000000000   -0.22222222222222    0.20000000000000             2
    0.50000000000000   -0.22222222222222    0.20000000000000             2
   -0.37500000000000   -0.22222222222222    0.20000000000000             2
   -0.25000000000000   -0.22222222222222    0.20000000000000             2
   -0.12500000000000   -0.22222222222222    0.20000000000000             2
    0.00000000000000   -0.11111111111111    0.20000000000000             2
    0.12500000000000   -0.11111111111111    0.20000000000000             2
    0.25000000000000   -0.11111111111111    0.20000000000000             2
    0.37500000000000   -0.11111111111111    0.20000000000000             2
    0.50000000000000   -0.11111111111111    0.20000000000000             2
   -0.37500000000000   -0.11111111111111    0.20000000000000             2
   -0.25000000000000   -0.11111111111111    0.20000000000000             2
   -0.12500000000000   -0.11111111111111    0.20000000000000             2
    0.00000000000000   -0.00000000000000    0.30000000000000             2
    0.12500000000000   -0.00000000000000    0.30000000000000             2
    0.25000000000000   -0.00000000000000    0.30000000000000             2
    0.37500000000000    0.00000000000000    0.30000000000000             2
    0.50000000000000   -0.00000000000000    0.30000000000000             2
   -0.37500000000000   -0.00000000000000    0.30000000000000             2
   -0.25000000000000    0.00000000000000    0.30000000000000             2
   -0.12500000000000   -0.00000000000000    0.30000000000000             2
    0.00000000000000    0.11111111111111    0.30000000000000             2
    0.12500000000000    0.11111111111111    0.30000000000000             2
    0.25000000000000    0.11111111111111    0.30000000000000             2
    0.37500000000000    0.11111111111111    0.30000000000000             2
    0.50000000000000    0.11111111111111    0.30000000000000             2
   -0.37500000000000    0.11111111111111    0.30000000000000             2
   -0.25000000000000    0.11111111111111    0.30000000000000             2
   -0.12500000000000    0.11111111111111    0.30000000000000             2
    0.00000000000000    0.22222222222222    0.30000000000000             2
    0.12500000000000    0.22222222222222    0.30000000000000             2
    0.25000000000000    0.22222222222222    0.30000000000000             2
    0.37500000000000    0.22222222222222    0.30000000000000             2
    0.50000000000000    0.22222222222222    0.30000000000000             2
   -0.37500000000000    0.22222222222222    0.30000000000000             2
   -0.25000000000000    0.22222222222222    0.30000000000000             2
   -0.12500000000000    0.22222222222222    0.30000000000000             2
    0.00000000000000    0.33333333333334    0.30000000000000             2
    0.12500000000000    0.33333333333334    0.30000000000000             2
    0.25000000000000    0.33333333333334    0.30000000000000             2
    0.37500000000000    0.33333333333334    0.30000000000000             2
    0.50000000000000    0.33333333333334    0.30000000000000             2
   -0.37500000000000    0.33333333333334    0.30000000000000             2
   -0.25000000000000    0.33333333333334    0.30000000000000             2
   -0.12500000000000    0.33333333333334    0.30000000000000             2
   -0.00000000000000    0.44444444444444    0.30000000000000             2
    0.12500000000000    0.44444444444444    0.30000000000000             2
    0.25000000000000    0.44444444444444    0.30000000000000             2
    0.37500000000000    0.44444444444444    0.30000000000000             2
    0.50000000000000    0.44444444444444    0.30000000000000             2
   -0.37500000000000    0.44444444444444    0.30000000000000             2
   -0.25000000000000    0.44444444444444    0.30000000000000             2
   -0.12500000000000    0.44444444444444    0.30000000000000             2
    0.00000000000000   -0.44444444444444    0.30000000000000             2
    0.12500000000000   -0.44444444444444    0.30000000000000             2
    0.25000000000000   -0.44444444444444    0.30000000000000             2
    0.37500000000000   -0.44444444444444    0.30000000000000             2
    0.50000000000000   -0.44444444444444    0.30000000000000             2
   -0.37500000000000   -0.44444444444444    0.30000000000000             2
   -0.25000000000000   -0.44444444444444    0.30000000000000             2
   -0.12500000000000   -0.44444444444444    0.30000000000000             2
   -0.00000000000000   -0.33333333333334    0.30000000000000             2
    0.12500000000000   -0.33333333333334    0.30000000000000             2
    0.25000000000000   -0.33333333333334    0.30000000000000             2
    0.37500000000000   -0.33333333333334    0.30000000000000             2
    0.50000000000000   -0.33333333333334    0.30000000000000             2
   -0.37500000000000   -0.33333333333334    0.30000000000000             2
   -0.25000000000000   -0.33333333333334    0.30000000000000             2
   -0.12500000000000   -0.33333333333334    0.30000000000000             2
    0.00000000000000   -0.22222222222222    0.30000000000000             2
    0.12500000000000   -0.22222222222222    0.30000000000000             2
    0.25000000000000   -0.22222222222222    0.30000000000000             2
    0.37500000000000   -0.22222222222222    0.30000000000000             2
    0.50000000000000   -0.22222222222222    0.30000000000000             2
   -0.37500000000000   -0.22222222222222    0.30000000000000             2
   -0.25000000000000   -0.22222222222222    0.30000000000000             2
   -0.12500000000000   -0.22222222222222    0.30000000000000             2
   -0.00000000000000   -0.11111111111111    0.30000000000000             2
    0.12500000000000   -0.11111111111111    0.30000000000000             2
    0.25000000000000   -0.11111111111111    0.30000000000000             2
    0.37500000000000   -0.11111111111111    0.30000000000000             2
    0.50000000000000   -0.11111111111111    0.30000000000000             2
   -0.37500000000000   -0.11111111111111    0.30000000000000             2
   -0.25000000000000   -0.11111111111111    0.30000000000000             2
   -0.12500000000000   -0.11111111111111    0.30000000000000             2
    0.00000000000000   -0.00000000000000    0.40000000000000             2
    0.12500000000000   -0.00000000000000    0.40000000000000             2
    0.25000000000000   -0.00000000000000    0.40000000000000             2
    0.37500000000000   -0.00000000000000    0.40000000000000             2
    0.50000000000000   -0.00000000000000    0.40000000000000             2
   -0.37500000000000   -0.00000000000000    0.40000000000000             2
   -0.25000000000000   -0.00000000000000    0.40000000000000             2
   -0.12500000000000   -0.00000000000000    0.40000000000000             2
   -0.00000000000000    0.11111111111111    0.39999999999999             2
    0.12500000000000    0.11111111111111    0.39999999999999             2
    0.25000000000000    0.11111111111111    0.39999999999999             2
    0.37500000000000    0.11111111111111    0.39999999999999             2
    0.50000000000000    0.11111111111111    0.39999999999999             2
   -0.37500000000000    0.11111111111111    0.39999999999999             2
   -0.25000000000000    0.11111111111111    0.39999999999999             2
   -0.12500000000000    0.11111111111111    0.39999999999999             2
    0.00000000000000    0.22222222222222    0.40000000000000             2
    0.12500000000000    0.22222222222222    0.40000000000000             2
    0.25000000000000    0.22222222222222    0.40000000000000             2
    0.37500000000000    0.22222222222222    0.40000000000000             2
    0.50000000000000    0.22222222222222    0.40000000000000             2
   -0.37500000000000    0.22222222222222    0.40000000000000             2
   -0.25000000000000    0.22222222222222    0.40000000000000             2
   -0.12500000000000    0.22222222222222    0.40000000000000             2
    0.00000000000000    0.33333333333334    0.40000000000000             2
    0.12500000000000    0.33333333333334    0.40000000000000             2
    0.25000000000000    0.33333333333334    0.40000000000000             2
    0.37500000000000    0.33333333333334    0.40000000000000             2
    0.50000000000000    0.33333333333334    0.40000000000000             2
   -0.37500000000000    0.33333333333334    0.40000000000000             2
   -0.25000000000000    0.33333333333334    0.40000000000000             2
   -0.12500000000000    0.33333333333334    0.40000000000000             2
   -0.00000000000000    0.44444444444444    0.40000000000000             2
    0.12500000000000    0.44444444444444    0.40000000000000             2
    0.25000000000000    0.44444444444444    0.40000000000000             2
    0.37500000000000    0.44444444444444    0.40000000000000             2
    0.50000000000000    0.44444444444444    0.40000000000000             2
   -0.37500000000000    0.44444444444444    0.40000000000000             2
   -0.25000000000000    0.44444444444444    0.40000000000000             2
   -0.12500000000000    0.44444444444444    0.40000000000000             2
    0.00000000000000   -0.44444444444444    0.39999999999999             2
    0.12500000000000   -0.44444444444444    0.39999999999999             2
    0.25000000000000   -0.44444444444444    0.39999999999999             2
    0.37500000000000   -0.44444444444444    0.39999999999999             2
    0.50000000000000   -0.44444444444444    0.39999999999999             2
   -0.37500000000000   -0.44444444444444    0.39999999999999             2
   -0.25000000000000   -0.44444444444444    0.39999999999999             2
   -0.12500000000000   -0.44444444444444    0.39999999999999             2
    0.00000000000000   -0.33333333333334    0.40000000000000             2
    0.12500000000000   -0.33333333333334    0.40000000000000             2
    0.25000000000000   -0.33333333333334    0.40000000000000             2
    0.37500000000000   -0.33333333333334    0.40000000000000             2
    0.50000000000000   -0.33333333333334    0.40000000000000             2
   -0.37500000000000   -0.33333333333334    0.40000000000000             2
   -0.25000000000000   -0.33333333333334    0.40000000000000             2
   -0.12500000000000   -0.33333333333334    0.40000000000000             2
    0.00000000000000   -0.22222222222222    0.40000000000000             2
    0.12500000000000   -0.22222222222222    0.40000000000000             2
    0.25000000000000   -0.22222222222222    0.40000000000000             2
    0.37500000000000   -0.22222222222222    0.40000000000000             2
    0.50000000000000   -0.22222222222222    0.40000000000000             2
   -0.37500000000000   -0.22222222222222    0.40000000000000             2
   -0.25000000000000   -0.22222222222222    0.40000000000000             2
   -0.12500000000000   -0.22222222222222    0.40000000000000             2
    0.00000000000000   -0.11111111111111    0.40000000000000             2
    0.12500000000000   -0.11111111111111    0.40000000000000             2
    0.25000000000000   -0.11111111111111    0.40000000000000             2
    0.37500000000000   -0.11111111111111    0.40000000000000             2
    0.50000000000000   -0.11111111111111    0.40000000000000             2
   -0.37500000000000   -0.11111111111111    0.40000000000000             2
   -0.25000000000000   -0.11111111111111    0.40000000000000             2
   -0.12500000000000   -0.11111111111111    0.40000000000000             2
    0.00000000000000    0.00000000000000    0.50000000000000             1
    0.12500000000000   -0.00000000000000    0.50000000000000             2
    0.25000000000000   -0.00000000000000    0.50000000000000             2
    0.37500000000000   -0.00000000000000    0.50000000000000             2
    0.50000000000000   -0.00000000000000    0.50000000000000             1
    0.00000000000000    0.11111111111111    0.50000000000000             2
    0.12500000000000    0.11111111111111    0.50000000000000             2
    0.25000000000000    0.11111111111111    0.50000000000000             2
    0.37500000000000    0.11111111111111    0.50000000000000             2
    0.50000000000000    0.11111111111111    0.50000000000000             2
   -0.37500000000000    0.11111111111111    0.50000000000000             2
   -0.25000000000000    0.11111111111111    0.50000000000000             2
   -0.12500000000000    0.11111111111111    0.50000000000000             2
    0.00000000000000    0.22222222222222    0.50000000000001             2
    0.12500000000000    0.22222222222222    0.50000000000000             2
    0.25000000000000    0.22222222222222    0.50000000000001             2
    0.37500000000000    0.22222222222222    0.50000000000001             2
    0.50000000000000    0.22222222222222    0.50000000000001             2
   -0.37500000000000    0.22222222222222    0.50000000000001             2
   -0.25000000000000    0.22222222222222    0.50000000000001             2
   -0.12500000000000    0.22222222222222    0.50000000000000             2
   -0.00000000000000    0.33333333333334    0.50000000000000             2
    0.12500000000000    0.33333333333334    0.50000000000000             2
    0.25000000000000    0.33333333333334    0.50000000000000             2
    0.37500000000000    0.33333333333334    0.50000000000000             2
    0.50000000000000    0.33333333333334    0.50000000000000             2
   -0.37500000000000    0.33333333333334    0.50000000000000             2
   -0.25000000000000    0.33333333333334    0.50000000000000             2
   -0.12500000000000    0.33333333333334    0.50000000000000             2
    0.00000000000000    0.44444444444444    0.50000000000000             2
    0.12500000000000    0.44444444444444    0.50000000000000             2
    0.25000000000000    0.44444444444444    0.50000000000000             2
    0.37500000000000    0.44444444444444    0.50000000000000             2
    0.50000000000000    0.44444444444444    0.50000000000000             2
   -0.37500000000000    0.44444444444444    0.50000000000000             2
   -0.25000000000000    0.44444444444444    0.50000000000000             2
   -0.12500000000000    0.44444444444444    0.50000000000000             2
Tetrahedra
      2160    0.00023148148148
         2         1         2         7        38
         2         1         6         7        38
         2         6         7        38        46
         2         2         7        38        39
         2         7        38        39        47
         2         7        38        46        47
         2         2         3         8        39
         2         2         7         8        39
         2         7         8        39        47
         2         3         8        39        40
         2         8        39        40        48
         2         8        39        47        48
         2         3         4         9        40
         2         3         8         9        40
         2         8         9        40        48
         2         4         9        40        41
         2         9        40        41        49
         2         9        40        48        49
         2         4         5        10        41
         2         4         9        10        41
         2         9        10        41        49
         2         5        10        41        42
         2        10        41        42        50
         2        10        41        49        50
         2         4         5        11        42
         2         5        10        11        42
         2        10        11        42        50
         2         4        11        42        43
         2        11        42        43        51
         2        11        42        50        51
         2         3         4        12        43
         2         4        11        12        43
         2        11        12        43        51
         2         3        12        43        44
         2        12        43        44        52
         2        12        43        51        52
         2         2         3        13        44
         2         3        12        13        44
         2        12        13        44        52
         2         2        13        44        45
         2        13        44        45        53
         2        13        44        52        53
         2         1         2         6        45
         2         2         6        13        45
         2         6        13        45        53
         2         1         6        38        45
         2         6        38        45        46
         2         6        45        46        53
         2         6         7        15        46
         2         6        14        15        46
         2        14        15        46        54
         2         7        15        46        47
         2        15        46        47        55