       N       E                     dE             d eps       ncg     rms          rms(c)
DAV:   1     0.176278408233E+03    0.17628E+03   -0.16707E+04 34752   0.121E+03
DAV:   2    -0.396937115475E+02   -0.21597E+03   -0.20792E+03 47600   0.289E+02
DAV:   3    -0.501703030540E+02   -0.10477E+02   -0.10427E+02 46232   0.667E+01
DAV:   4    -0.502830732505E+02   -0.11277E+00   -0.11272E+00 42048   0.776E+00
DAV:   5    -0.502849627929E+02   -0.18895E-02   -0.18891E-02 46152   0.952E-01    0.299E+01
RMM:   6    -0.439280166281E+02    0.63569E+01   -0.17376E+01 35312   0.229E+01    0.127E+01
RMM:   7    -0.440732477941E+02   -0.14523E+00   -0.40518E+00 40950   0.118E+01    0.548E+00
RMM:   8    -0.440555820637E+02    0.17666E-01   -0.32806E-01 41228   0.400E+00    0.327E+00
RMM:   9    -0.440573323208E+02   -0.17503E-02   -0.97541E-02 40875   0.218E+00    0.832E-01
RMM:  10    -0.440570899447E+02    0.24238E-03   -0.17253E-02 44319   0.890E-01    0.215E-01
RMM:  11    -0.440573027561E+02   -0.21281E-03   -0.10940E-02 43630   0.583E-01    0.186E-01
RMM:  12    -0.440574225682E+02   -0.11981E-03   -0.12544E-03 43574   0.235E-01    0.989E-02
RMM:  13    -0.440574334436E+02   -0.10875E-04   -0.38561E-04 42540   0.137E-01    0.272E-02
RMM:  14    -0.440574461042E+02   -0.12661E-04   -0.78022E-05 42481   0.560E-02    0.153E-02
RMM:  15    -0.440574443803E+02    0.17239E-05   -0.14708E-05 31834   0.245E-02
   1 F= -.44057444E+02 E0= -.44057444E+02  d E =0.000000E+00  mag=    -0.0000
