Automatically generated mesh
      36
Reciprocal lattice
    0.00000000000000    0.00000000000000    0.00000000000000             1
    0.11111111111111    0.00000000000000    0.00000000000000             6
    0.22222222222222   -0.00000000000000    0.00000000000000             6
    0.33333333333334    0.00000000000000    0.00000000000000             6
    0.44444444444444   -0.00000000000000    0.00000000000000             6
    0.11111111111111    0.11111111111111    0.00000000000000             6
    0.22222222222222    0.11111111111111    0.00000000000000            12
    0.33333333333334    0.11111111111111    0.00000000000000            12
    0.44444444444444    0.11111111111111    0.00000000000000             6
    0.22222222222222    0.22222222222222    0.00000000000000             6
    0.33333333333334    0.22222222222222    0.00000000000000            12
    0.33333333333334    0.33333333333334    0.00000000000000             2
    0.00000000000000    0.00000000000000    0.25000000000000             2
    0.11111111111111    0.00000000000000    0.25000000000000            12
    0.22222222222222   -0.00000000000000    0.25000000000000            12
    0.33333333333334    0.00000000000000    0.25000000000000            12
    0.44444444444444   -0.00000000000000    0.25000000000000            12
    0.11111111111111    0.11111111111111    0.25000000000000            12
    0.22222222222222    0.11111111111111    0.25000000000000            24
    0.33333333333334    0.11111111111111    0.25000000000000            24
    0.44444444444444    0.11111111111111    0.25000000000000            12
    0.22222222222222    0.22222222222222    0.25000000000000            12
    0.33333333333334    0.22222222222222    0.25000000000000            24
    0.33333333333334    0.33333333333334    0.25000000000000             4
    0.00000000000000    0.00000000000000    0.50000000000000             1
    0.11111111111111    0.00000000000000    0.50000000000000             6
    0.22222222222222   -0.00000000000000    0.50000000000000             6
    0.33333333333334    0.00000000000000    0.50000000000000             6
    0.44444444444444   -0.00000000000000    0.50000000000000             6
    0.11111111111111    0.11111111111111    0.50000000000000             6
    0.22222222222222    0.11111111111111    0.50000000000000            12
    0.33333333333334    0.11111111111111    0.50000000000000            12
    0.44444444444444    0.11111111111111    0.50000000000000             6
    0.22222222222222    0.22222222222222    0.50000000000000             6
    0.33333333333334    0.22222222222222    0.50000000000000            12
    0.33333333333334    0.33333333333334    0.50000000000000             2
Tetrahedra
       328    0.00051440329218
         8         1         2         2        14
         8         2         2         6        14
         4         2         6        14        18
         4         1         2        13        14
         8         2        13        14        14
         8         2        14        14        18
         8         2         3         6        15
         8         3         6         7        15
         4         6         7        15        19
         4         2         6        14        15
         8         6        14        15        18
         8         6        15        18        19
         8         3         4         7        16
         8         4         7         8        16
         4         7         8        16        20
         4         3         7        15        16
         8         7        15        16        19
         8         7        16        19        20
         8         4         5         8        17
         8         5         8         9        17
         4         8         9        17        21
         4         4         8        16        17
         8         8        16        17        20
         8         8        17        20        21
         8         5         5         9        17
         4         8         9        17        20
         4         5         9        17        17
         4         9        17        17        21
         8         9        17        20        21
         8         4         5         8        16
         4         7         8        16        19
         4         5         8        16        17
         8         8        16        19        20
         8         3         4         7        15
         4         6         7        15        18
         4         4         7        15        16
         8         7        15        18        19
         8         2         3         6        14
         4         2         6        14        14
         4         3         6        14        15
         4         6        14        14        18
         4         1         2         2        13
         4         2         2        13        14
         8         2         3         6        18
         8         3         6         7        18
         4         3         7        18        19
         4         2         3        14        18
         8         3        14        15        18
         8         3        15        18        19
         8         6         7         7        19
         8         7         7        10        19
         4         7        10        19        22
         4         6         7        18        19
         8         7        18        19        19
         8         7        19        19        22
         8         7         8        10        20
         8         8        10        11        20
         4        10        11        20        23
         4         7        10        19        20
         8        10        19        20        22
         8        10        20        22        23
         8         8         9        11        21
         4         9        11        11        21
         4        11        11        21        23
         4         8        11        20        21
         8        11        20        21        23
         8        11        21        23        23
         8         8         9        11        20
         4        10        11        20        22
         4         9        11        20        21
         8        11        20        22        23
         8         7         8        10        19
         4         7        10        19        19
         4         8        10        19        20
         4        10        19        19        22
         4         6         7         7        18
         4         3         7        15        18
         4         7         7        18        19
         4         3         6        14        18
         8         3         4         7        19
         8         4         7         8        19
         4         4         8        19        20
         4         3         4        15        19
         8         4        15        16        19
         8         4        16        19        20
         8         7         8        10        22
         8         8        10        11        22
         4         8        11        22        23
         4         7         8        19        22
         8         8        19        20        22
         8         8        20        22        23
         8        10        11        11        23
        16        11        11        12        23
         8        11        12        23        24
         4        10        11        22        23
         8        11        22        23        23
        16        11        23        23        24
         8        11        12        23        23
         8        12        23        23        24
         4        10        11        11        22
         4         8        11        20        22
         4        11        11        22        23
         4         4         8        16        19
         4         8        10        19        22
         4         4         7        15        19
         8         4         5         8        20
         8         5         8         9        20
         4         5         9        20        21
         4         4         5        16        20
         8         5        16        17        20
         8         5        17        20        21
         8         8         9        11        23
         8         9        11        11        23
         4         9        11        23        23
         4         8         9        20        23
         8         9        20        21        23
         4         9        21        23        23
         8        11        11        12        24
         8        11        11        23        24
         4         9        11        21        23
         4         5         9        17        20
         4         9        11        20        23
         4         5         8        16        20
         4         5         5         9        21
         8         5         8         9        21
         4         5         8        20        21
         4         5         5        17        21
         8         5        17        17        21
         8         8        10        11        23
         4         8        10        22        23
         4         8         9        21        23
         8         8        20        21        23
         4         8        10        20        23
         4        10        11        23        23
         4        10        22        23        23
         4         5         8        17        21
         4         8        11        21        23
         4         5         9        17        21
         8         4         7         8        20
         4         4         7        19        20
         4         4         5        17        20
         8         4        16        17        20
         4         7         7        10        22
         4         7         7        19        22
         4         7         8        20        22
         8         7        19        20        22
         4         4         7        16        20
         4         7        10        20        22
         4         4         8        17        20
         8         3         6         7        19
         4         3         6        18        19
         4         3         4        16        19
         8         3        15        16        19
         4         3         6        15        19
         4         6         7        19        19
         4         6        18        19        19
         4         3         7        16        19
         4         2         2         6        18
         4         2         2        14        18
         4         2         3        15        18
         8         2        14        15        18
         4         2         6        15        18
         4         1         2        14        14
         4         1        13        14        14
         8        13        14        14        26
         8        14        14        18        26
         4        14        18        26        30
         4        13        14        25        26
         8        14        25        26        26
         8        14        26        26        30
         8        14        15        18        27
         8        15        18        19        27
         4        18        19        27        31
         4        14        18        26        27
         8        18        26        27        30
         8        18        27        30        31
         8        15        16        19        28
         8        16        19        20        28
         4        19        20        28        32
         4        15        19        27        28
         8        19        27        28        31
         8        19        28        31        32
         8        16        17        20        29
         8        17        20        21        29
         4        20        21        29        33
         4        16        20        28        29
         8        20        28        29        32
         8        20        29        32        33
         8        17        17        21        29
         4        20        21        29        32
         4        17        21        29        29
         4        21        29        29        33
         8        21        29        32        33
         8        16        17        20        28
         4        19        20        28        31
         4        17        20        28        29
         8        20        28        31        32
         8        15        16        19        27
         4        18        19        27        30
         4        16        19        27        28
         8        19        27        30        31
         8        14        15        18        26
         4        14        18        26        26
         4        15        18        26        27
         4        18        26        26        30
         4        13        14        14        25
         4        14        14        25        26
         8        14        15        18        30
         8        15        18        19        30
         4        15        19        30        31
         4        14        15        26        30
         8        15        26        27        30
         8        15        27        30        31
         8        18        19        19        31
         8        19        19        22        31
         4        19        22        31        34
         4        18        19        30        31
         8        19        30        31        31
         8        19        31        31        34
         8        19        20        22        32
         8        20        22        23        32
         4        22        23        32        35
         4        19        22        31        32
         8        22        31        32        34
         8        22        32        34        35
         8        20        21        23        33
         4        21        23        23        33
         4        23        23        33        35
         4        20        23        32        33
         8        23        32        33        35
         8        23        33        35        35
         8        20        21        23        32
         4        22        23        32        34
         4        21        23        32        33
         8        23        32        34        35
         8        19        20        22        31
         4        19        22        31        31
         4        20        22        31        32
         4        22        31        31        34
         4        18        19        19        30
         4        15        19        27        30
         4        19        19        30        31
         4        15        18        26        30
         8        15        16        19        31
         8        16        19        20        31
         4        16        20        31        32
         4        15        16        27        31
         8        16        27        28        31
         8        16        28        31        32
         8        19        20        22        34
         8        20        22        23        34
         4        20        23        34        35
         4        19        20        31        34
         8        20        31        32        34
         8        20        32        34        35
         8        22        23        23        35
        16        23        23        24        35
         8        23        24        35        36
         4        22        23        34        35
         8        23        34        35        35
        16        23        35        35        36
         8        23        24        35        35
         8        24        35        35        36
         4        22        23        23        34
         4        20        23        32        34
         4        23        23        34        35
         4        16        20        28        31
         4        20        22        31        34
         4        16        19        27        31
         8        16        17        20        32
         8        17        20        21        32
         4        17        21        32        33
         4        16        17        28        32
         8        17        28        29        32
         8        17        29        32        33
         8        20        21        23        35
         8        21        23        23        35
         4        21        23        35        35
         4        20        21        32        35
         8        21        32        33        35
         4        21        33        35        35
         8        23        23        24        36
         8        23        23        35        36
         4        21        23        33        35
         4        17        21        29        32
         4        21        23        32        35
         4        17        20        28        32
         4        17        17        21        33
         8        17        20        21        33
         4        17        20        32        33
         4        17        17        29        33
         8        17        29        29        33
         8        20        22        23        35
         4        20        22        34        35
         4        20        21        33        35
         8        20        32        33        35
         4        20        22        32        35
         4        22        23        35        35
         4        22        34        35        35
         4        17        20        29        33
         4        20        23        33        35
         4        17        21        29        33
         8        16        19        20        32
         4        16        19        31        32
         4        16        17        29        32
         8        16        28        29        32
         4        19        19        22        34
         4        19        19        31        34
         4        19        20        32        34
         8        19        31        32        34
         4        16        19        28        32
         4        19        22        32        34
         4        16        20        29        32
         8        15        18        19        31
         4        15        18        30        31
         4        15        16        28        31
         8        15        27        28        31
         4        15        18        27        31
         4        18        19        31        31
         4        18        30        31        31
         4        15        19        28        31
         4        14        14        18        30
         4        14        14        26        30
         4        14        15        27        30
         8        14        26        27        30
         4        14        18        27        30
         4        13        14        26        26
         4        13        25        26        26
