       N       E                     dE             d eps       ncg     rms          rms(c)
DAV:   1     0.157189836501E+03    0.15719E+03   -0.11771E+04  3456   0.117E+03
DAV:   2     0.187916699509E+01   -0.15531E+03   -0.14659E+03  3720   0.297E+02
DAV:   3    -0.233093484664E+02   -0.25189E+02   -0.24968E+02  5992   0.698E+01
DAV:   4    -0.263825066022E+02   -0.30732E+01   -0.30465E+01  5272   0.321E+01
DAV:   5    -0.266243961069E+02   -0.24189E+00   -0.24187E+00  5520   0.706E+00    0.148E+01
RMM:   6    -0.270774815884E+02   -0.45309E+00   -0.16665E+00  4151   0.602E+00    0.751E+00
RMM:   7    -0.277715096045E+02   -0.69403E+00   -0.48418E-01  4655   0.398E+00    0.276E+00
RMM:   8    -0.278494264027E+02   -0.77917E-01   -0.38318E-01  5303   0.282E+00    0.114E+00
RMM:   9    -0.278581308231E+02   -0.87044E-02   -0.90651E-02  5621   0.164E+00    0.496E-01
RMM:  10    -0.278657307814E+02   -0.76000E-02   -0.41837E-02  5887   0.978E-01    0.266E-01
RMM:  11    -0.278679301595E+02   -0.21994E-02   -0.15408E-02  6019   0.568E-01    0.194E-01
RMM:  12    -0.278686871801E+02   -0.75702E-03   -0.57039E-03  5834   0.434E-01    0.481E-02
RMM:  13    -0.278692764535E+02   -0.58927E-03   -0.32931E-03  6077   0.266E-01    0.212E-02
RMM:  14    -0.278694861769E+02   -0.20972E-03   -0.15943E-03  5979   0.169E-01    0.229E-02
RMM:  15    -0.278695722378E+02   -0.86061E-04   -0.73744E-04  5291   0.111E-01    0.177E-02
RMM:  16    -0.278696143293E+02   -0.42092E-04   -0.36292E-04  5189   0.788E-02    0.190E-02
RMM:  17    -0.278696580310E+02   -0.43702E-04   -0.22581E-04  5221   0.657E-02    0.413E-02
RMM:  18    -0.278696296890E+02    0.28342E-04   -0.16699E-04  4989   0.591E-02    0.745E-03
RMM:  19    -0.278696438444E+02   -0.14155E-04   -0.77022E-05  4513   0.402E-02    0.228E-03
RMM:  20    -0.278696473632E+02   -0.35189E-05   -0.45696E-05  4017   0.329E-02
   1 F= -.27869647E+02 E0= -.27869647E+02  d E =0.000000E+00  mag=    -0.0000
