 running on   12 total cores
 distrk:  each k-point on   12 cores,    1 groups
 distr:  one band on    6 cores,    2 groups
 using from now: INCAR     
 vasp.6.1.2 22Jul20 (build Mar 20 2021 11:25:07) complex                        
  
 POSCAR found type information on POSCAR LiP O 
 POSCAR found :  3 types and      16 ions
 scaLAPACK will be used
 LDA part: xc-table for Pade appr. of Perdew
 generate k-points for:    6    6    5
 POSCAR, INCAR and KPOINTS ok, starting setup
 FFT: planning ...
 WAVECAR not read
 entering main loop
       N       E                     dE             d eps       ncg     rms          rms(c)
DAV:   1     0.621797772764E+03    0.62180E+03   -0.36801E+04  9984   0.153E+03
DAV:   2    -0.416467435326E+02   -0.66344E+03   -0.62965E+03 11688   0.394E+02
DAV:   3    -0.102750628546E+03   -0.61104E+02   -0.60788E+02 13872   0.113E+02
DAV:   4    -0.108362826541E+03   -0.56122E+01   -0.55879E+01 17808   0.288E+01
DAV:   5    -0.108918366969E+03   -0.55554E+00   -0.55542E+00 14272   0.592E+00    0.362E+01
RMM:   6    -0.990728225590E+02    0.98455E+01   -0.42995E+01 10968   0.242E+01    0.145E+01
RMM:   7    -0.100187268462E+03   -0.11144E+01   -0.45992E+00 14427   0.850E+00    0.764E+00
RMM:   8    -0.100400368372E+03   -0.21310E+00   -0.10848E+00 16342   0.449E+00    0.383E+00
RMM:   9    -0.100473712979E+03   -0.73345E-01   -0.40035E-01 16361   0.323E+00    0.966E-01
RMM:  10    -0.100508918114E+03   -0.35205E-01   -0.28105E-01 18633   0.190E+00    0.370E-01
RMM:  11    -0.100526698859E+03   -0.17781E-01   -0.13769E-01 19158   0.121E+00    0.303E-01
RMM:  12    -0.100533985020E+03   -0.72862E-02   -0.52574E-02 19371   0.755E-01    0.197E-01
RMM:  13    -0.100536538271E+03   -0.25533E-02   -0.19851E-02 18899   0.516E-01    0.987E-02
RMM:  14    -0.100537869641E+03   -0.13314E-02   -0.11062E-02 19062   0.371E-01    0.334E-02
RMM:  15    -0.100538404197E+03   -0.53456E-03   -0.50152E-03 18739   0.234E-01    0.333E-02
RMM:  16    -0.100538636915E+03   -0.23272E-03   -0.23039E-03 18376   0.156E-01    0.243E-02
RMM:  17    -0.100538712385E+03   -0.75470E-04   -0.88318E-04 18196   0.111E-01    0.124E-02
RMM:  18    -0.100538768859E+03   -0.56474E-04   -0.53052E-04 17796   0.774E-02    0.994E-03
RMM:  19    -0.100538792239E+03   -0.23380E-04   -0.22704E-04 17187   0.536E-02    0.108E-02
RMM:  20    -0.100538804493E+03   -0.12254E-04   -0.99020E-05 15456   0.400E-02    0.249E-02
RMM:  21    -0.100538804394E+03    0.99570E-07   -0.22684E-05 12059   0.317E-02
   1 F= -.10053880E+03 E0= -.10053880E+03  d E =0.000000E+00  mag=     0.0001
