       N       E                     dE             d eps       ncg     rms          rms(c)
DAV:   1     0.399112061795E+03    0.39911E+03   -0.25848E+04 11520   0.132E+03
DAV:   2    -0.391712033174E+01   -0.40303E+03   -0.36870E+03 12680   0.319E+02
DAV:   3    -0.558964157922E+02   -0.51979E+02   -0.51301E+02 16544   0.886E+01
DAV:   4    -0.633894592879E+02   -0.74930E+01   -0.74157E+01 20016   0.325E+01
DAV:   5    -0.640262486949E+02   -0.63679E+00   -0.63650E+00 15968   0.731E+00    0.216E+01
RMM:   6    -0.653472424857E+02   -0.13210E+01   -0.22574E+00 14030   0.590E+00    0.118E+01
RMM:   7    -0.666360597419E+02   -0.12888E+01   -0.55437E-01 16587   0.363E+00    0.624E+00
RMM:   8    -0.668577309071E+02   -0.22167E+00   -0.87145E-01 18369   0.334E+00    0.115E+00
RMM:   9    -0.668967539639E+02   -0.39023E-01   -0.14154E-01 19562   0.170E+00    0.527E-01
RMM:  10    -0.669072434428E+02   -0.10489E-01   -0.73156E-02 20722   0.936E-01    0.273E-01
RMM:  11    -0.669103098254E+02   -0.30664E-02   -0.27079E-02 20800   0.598E-01    0.174E-01
RMM:  12    -0.669116645884E+02   -0.13548E-02   -0.12918E-02 21621   0.403E-01    0.112E-01
RMM:  13    -0.669123135006E+02   -0.64891E-03   -0.57559E-03 21613   0.273E-01    0.474E-02
RMM:  14    -0.669126657868E+02   -0.35229E-03   -0.30017E-03 21426   0.183E-01    0.149E-02
RMM:  15    -0.669128361360E+02   -0.17035E-03   -0.15163E-03 20035   0.127E-01    0.153E-02
RMM:  16    -0.669129246454E+02   -0.88509E-04   -0.77365E-04 19923   0.911E-02    0.210E-02
RMM:  17    -0.669129756493E+02   -0.51004E-04   -0.41509E-04 19050   0.684E-02    0.333E-02
RMM:  18    -0.669130015746E+02   -0.25925E-04   -0.21079E-04 16697   0.536E-02    0.384E-02
RMM:  19    -0.669130243092E+02   -0.22735E-04   -0.15358E-04 17358   0.463E-02    0.513E-02
RMM:  20    -0.669130402867E+02   -0.15978E-04   -0.94487E-05 15759   0.402E-02    0.622E-02
RMM:  21    -0.669130352481E+02    0.50387E-05   -0.32657E-05 12764   0.344E-02
   1 F= -.66913035E+02 E0= -.66913035E+02  d E =0.000000E+00  mag=     0.0000
