    6    6    1    2
  0.1337421E+02  0.4899377E-09  0.4899377E-09  0.4899377E-09  0.5000000E-15
  1.000000000000000E-004
  CAR 
 unknown system                          
     32    296     22
 
  0.0000000E+00  0.0000000E+00  0.0000000E+00  0.1562500E-02
    1      -19.925541    -19.925518   1.000000   1.000000
    2      -17.780922    -17.780843   1.000000   1.000000
    3      -14.080016    -14.079867   1.000000   1.000000
    4      -12.632449    -12.632262   1.000000   1.000000
    5      -11.655137    -11.655146   1.000000   1.000000
    6       -6.872791     -6.872778   1.000000   1.000000
    7       -5.731115     -5.731055   1.000000   1.000000
    8       -5.688787     -5.688735   1.000000   1.000000
    9       -2.670222     -2.670299   1.000000   1.000000
   10       -1.976756     -1.976793   1.000000   1.000000
   11       -0.938208     -0.938222   1.000000   1.000000
   12       -0.884256     -0.884173   1.000000   1.000000
   13        0.154054      0.154030   1.000000   1.000000
   14        0.398536      0.398539   1.000000   1.000000
   15        1.064211      1.064246   1.000000   1.000000
   16        1.776298      1.776253   1.000000   1.000000
   17        6.876576      6.876412   0.000002   0.000005
   18        7.283665      7.283358   0.000000   0.000000
   19        8.507753      8.507537   0.000000   0.000000
   20       10.016712     10.016243   0.000000   0.000000
   21       10.166879     10.166699   0.000000   0.000000
   22       11.352958     11.352726   0.000000   0.000000
 
  0.1250000E+00  0.9049103E-17 -0.2292689E-16  0.3125000E-02
    1      -19.902095    -19.902071   1.000000   1.000000
    2      -17.785235    -17.785156   1.000000   1.000000
    3      -14.152755    -14.152615   1.000000   1.000000
    4      -12.963202    -12.963052   1.000000   1.000000
    5      -11.189168    -11.189134   1.000000   1.000000
    6       -6.843771     -6.843756   1.000000   1.000000
    7       -5.773292     -5.773227   1.000000   1.000000
    8       -5.654933     -5.654875   1.000000   1.000000
    9       -2.643471     -2.643546   1.000000   1.000000
   10       -2.003970     -2.004006   1.000000   1.000000
   11       -1.098547     -1.098499   1.000000   1.000000
   12       -0.885456     -0.885460   1.000000   1.000000
   13        0.195952      0.195939   1.000000   1.000000
   14        0.332132      0.332125   1.000000   1.000000
   15        1.021641      1.021668   1.000000   1.000000
   16        1.770593      1.770555   1.000000   1.000000
   17        7.057605      7.057464  -0.000000  -0.000000
   18        7.390823      7.390545   0.000000   0.000000
   19        8.359339      8.359068   0.000000   0.000000
   20       10.097301     10.097085   0.000000   0.000000
   21       10.225110     10.224674   0.000000   0.000000
   22       11.223063     11.222841   0.000000   0.000000
 
  0.2500000E+00  0.1809821E-16 -0.4585378E-16  0.3125000E-02
    1      -19.843280    -19.843254   1.000000   1.000000
    2      -17.795856    -17.795778   1.000000   1.000000
    3      -14.366738    -14.366623   1.000000   1.000000
    4      -13.325149    -13.325000   1.000000   1.000000
    5      -10.442919    -10.442866   1.000000   1.000000
    6       -6.770565     -6.770544   1.000000   1.000000
    7       -5.904522     -5.904434   1.000000   1.000000
    8       -5.551784     -5.551717   1.000000   1.000000
    9       -2.573370     -2.573441   1.000000   1.000000
   10       -2.126756     -2.126795   1.000000   1.000000
   11       -1.477125     -1.477115   1.000000   1.000000
   12       -0.809854     -0.809871   1.000000   1.000000
   13        0.179007      0.179005   1.000000   1.000000
   14        0.256622      0.256602   1.000000   1.000000
   15        0.947573      0.947584   1.000000   1.000000
   16        1.722508      1.722485   1.000000   1.000000
   17        7.437309      7.437201   0.000000   0.000000
   18        7.461401      7.461178   0.000000   0.000000
   19        8.532713      8.532379   0.000000   0.000000
   20        9.884877      9.884644   0.000000   0.000000
   21       10.443891     10.443532   0.000000   0.000000
   22       11.156931     11.156091   0.000000   0.000000
 
  0.3750000E+00  0.2265679E-16 -0.2265679E-16  0.3125000E-02
    1      -19.781206    -19.781178   1.000000   1.000000
    2      -17.807165    -17.807088   1.000000   1.000000
    3      -14.610912    -14.610816   1.000000   1.000000
    4      -13.494801    -13.494646   1.000000   1.000000
    5       -9.821340     -9.821286   1.000000   1.000000
    6       -6.694920     -6.694891   1.000000   1.000000
    7       -6.048997     -6.048874   1.000000   1.000000
    8       -5.453368     -5.453294   1.000000   1.000000
    9       -2.508691     -2.508759   1.000000   1.000000
   10       -2.380771     -2.380835   1.000000   1.000000
   11       -1.700584     -1.700596   1.000000   1.000000
   12       -0.668106     -0.668127   1.000000   1.000000
   13       -0.014591     -0.014595   1.000000   1.000000
   14        0.200243      0.200210   1.000000   1.000000
   15        1.011888      1.011894   1.000000   1.000000
   16        1.589350      1.589336   1.000000   1.000000
   17        7.442567      7.442342   0.000000   0.000000
   18        7.808427      7.808342   0.000000   0.000000
   19        9.088612      9.088374   0.000000   0.000000
   20        9.667620      9.667266   0.000000   0.000000
   21       10.411850     10.411502   0.000000   0.000000
   22       11.354420     11.349650   0.000000   0.000000
 
  0.5000000E+00  0.3619641E-16 -0.9170756E-16  0.3125000E-02
    1      -19.754452    -19.754424   1.000000   1.000000
    2      -17.812138    -17.812061   1.000000   1.000000
    3      -14.714194    -14.714104   1.000000   1.000000
    4      -13.540698    -13.540540   1.000000   1.000000
    5       -9.570423     -9.570372   1.000000   1.000000
    6       -6.664478     -6.664444   1.000000   1.000000
    7       -6.114490     -6.114348   1.000000   1.000000
    8       -5.414725     -5.414648   1.000000   1.000000
    9       -2.588378     -2.588466   1.000000   1.000000
   10       -2.415217     -2.415277   1.000000   1.000000
   11       -1.752691     -1.752704   1.000000   1.000000
   12       -0.531868     -0.531891   1.000000   1.000000
   13       -0.205151     -0.205159   1.000000   1.000000
   14        0.183341      0.183302   1.000000   1.000000
   15        1.109793      1.109799   1.000000   1.000000
   16        1.475153      1.475143   1.000000   1.000000
   17        7.509205      7.508957   0.000000   0.000000
   18        7.920879      7.920827   0.000000   0.000000
   19        9.141827      9.141635   0.000000   0.000000
   20        9.996398      9.996041   0.000000   0.000000
   21       10.273580     10.273283   0.000000   0.000000
   22       11.222760     11.221686   0.000000   0.000000
 
 -0.5667588E-17  0.1250000E+00 -0.2986578E-16  0.3125000E-02
    1      -19.859546    -19.859521   1.000000   1.000000
    2      -17.879920    -17.879845   1.000000   1.000000
    3      -14.200254    -14.200114   1.000000   1.000000
    4      -12.645198    -12.645012   1.000000   1.000000
    5      -11.408622    -11.408620   1.000000   1.000000
    6       -6.903710     -6.903693   1.000000   1.000000
    7       -5.805211     -5.805161   1.000000   1.000000
    8       -5.556783     -5.556711   1.000000   1.000000
    9       -2.701897     -2.701974   1.000000   1.000000
   10       -1.985326     -1.985365   1.000000   1.000000
   11       -1.038671     -1.038669   1.000000   1.000000
   12       -0.899184     -0.899133   1.000000   1.000000
   13        0.189120      0.189102   1.000000   1.000000
   14        0.323575      0.323567   1.000000   1.000000
   15        0.969748      0.969774   1.000000   1.000000
   16        1.774930      1.774886   1.000000   1.000000
   17        7.127536      7.127405  -0.000000  -0.000001
   18        7.442894      7.442593   0.000000   0.000000
   19        8.578689      8.578478   0.000000   0.000000
   20        9.823991      9.823583   0.000000   0.000000
   21       10.222725     10.222468   0.000000   0.000000
   22       11.468020     11.467828   0.000000   0.000000
 
  0.1250000E+00  0.1250000E+00 -0.5973157E-16  0.3125000E-02
    1      -19.818512    -19.818487   1.000000   1.000000
    2      -17.891248    -17.891173   1.000000   1.000000
    3      -14.388383    -14.388258   1.000000   1.000000
    4      -12.893752    -12.893588   1.000000   1.000000
    5      -10.861554    -10.861518   1.000000   1.000000
    6       -6.878119     -6.878098   1.000000   1.000000
    7       -5.828890     -5.828828   1.000000   1.000000
    8       -5.538571     -5.538495   1.000000   1.000000
    9       -2.643915     -2.643989   1.000000   1.000000
   10       -2.074452     -2.074494   1.000000   1.000000
   11       -1.228894     -1.228867   1.000000   1.000000
   12       -0.910956     -0.910964   1.000000   1.000000
   13        0.140788      0.140772   1.000000   1.000000
   14        0.303493      0.303480   1.000000   1.000000
   15        0.874098      0.874116   1.000000   1.000000
   16        1.795296      1.795264   1.000000   1.000000
   17        7.356684      7.356570  -0.000000  -0.000001
   18        7.603663      7.603397   0.000000   0.000000
   19        8.560875      8.560612   0.000000   0.000000
   20        9.967076      9.966767   0.000000   0.000000
   21       10.207397     10.207045   0.000000   0.000000
   22       11.236839     11.236163   0.000000   0.000000
 
  0.2500000E+00  0.1250000E+00 -0.8116162E-16  0.3125000E-02
    1      -19.754128    -19.754101   1.000000   1.000000
    2      -17.908696    -17.908622   1.000000   1.000000
    3      -14.590113    -14.590005   1.000000   1.000000
    4      -13.213098    -13.212941   1.000000   1.000000
    5      -10.130735    -10.130683   1.000000   1.000000
    6       -6.878382     -6.878349   1.000000   1.000000
    7       -5.896623     -5.896536   1.000000   1.000000
    8       -5.452681     -5.452601   1.000000   1.000000
    9       -2.573291     -2.573361   1.000000   1.000000
   10       -2.260307     -2.260359   1.000000   1.000000
   11       -1.557657     -1.557663   1.000000   1.000000
   12       -0.817803     -0.817825   1.000000   1.000000
   13        0.093261      0.093249   1.000000   1.000000
   14        0.238813      0.238795   1.000000   1.000000
   15        0.814251      0.814257   1.000000   1.000000
   16        1.764061      1.764045   1.000000   1.000000
   17        7.524262      7.524095   0.000000   0.000000
   18        7.832484      7.832331   0.000000   0.000000
   19        8.806765      8.806477   0.000000   0.000000
   20        9.875255      9.874938   0.000000   0.000000
   21       10.297251     10.297019   0.000000   0.000000
   22       11.184470     11.186486   0.000000   0.000000
 
  0.3750000E+00  0.1250000E+00 -0.5796462E-16  0.6250000E-02
    1      -19.703537    -19.703508   1.000000   1.000000
    2      -17.922180    -17.922108   1.000000   1.000000
    3      -14.701615    -14.701519   1.000000   1.000000
    4      -13.438209    -13.438053   1.000000   1.000000
    5       -9.581501     -9.581448   1.000000   1.000000
    6       -6.932796     -6.932745   1.000000   1.000000
    7       -5.948704     -5.948597   1.000000   1.000000
    8       -5.363685     -5.363600   1.000000   1.000000
    9       -2.594707     -2.594786   1.000000   1.000000
   10       -2.414235     -2.414296   1.000000   1.000000
   11       -1.740962     -1.740984   1.000000   1.000000
   12       -0.635697     -0.635719   1.000000   1.000000
   13       -0.071047     -0.071050   1.000000   1.000000
   14        0.171440      0.171402   1.000000   1.000000
   15        0.936738      0.936738   1.000000   1.000000
   16        1.624960      1.624953   1.000000   1.000000
   17        7.601141      7.600919   0.000000   0.000000
   18        7.948491      7.948415   0.000000   0.000000
   19        9.048593      9.048362   0.000000   0.000000
   20        9.943936      9.943559   0.000000   0.000000
   21       10.352062     10.351919   0.000000   0.000000
   22       11.295895     11.294531   0.000000   0.000000
 
  0.5000000E+00  0.1250000E+00 -0.6851057E-16  0.6250000E-02
    1      -19.699994    -19.699965   1.000000   1.000000
    2      -17.922399    -17.922327   1.000000   1.000000
    3      -14.633817    -14.633723   1.000000   1.000000
    4      -13.575200    -13.575045   1.000000   1.000000
    5       -9.473347     -9.473295   1.000000   1.000000
    6       -6.965068     -6.965014   1.000000   1.000000
    7       -5.952624     -5.952513   1.000000   1.000000
    8       -5.332613     -5.332526   1.000000   1.000000
    9       -2.589630     -2.589709   1.000000   1.000000
   10       -2.460808     -2.460871   1.000000   1.000000
   11       -1.779777     -1.779799   1.000000   1.000000
   12       -0.586267     -0.586286   1.000000   1.000000
   13       -0.102907     -0.102915   1.000000   1.000000
   14        0.193821      0.193785   1.000000   1.000000
   15        1.123543      1.123542   1.000000   1.000000
   16        1.454601      1.454594   1.000000   1.000000
   17        7.469307      7.469087   0.000000   0.000000
   18        7.948083      7.947998   0.000000   0.000000
   19        9.072063      9.071841   0.000000   0.000000
   20       10.258947     10.258641   0.000000   0.000000
   21       10.328266     10.328007   0.000000   0.000000
   22       11.194468     11.193840   0.000000   0.000000
 
 -0.3750000E+00  0.1250000E+00 -0.1265105E-16  0.3125000E-02
    1      -19.745773    -19.745745   1.000000   1.000000
    2      -17.909179    -17.909106   1.000000   1.000000
    3      -14.379491    -14.379387   1.000000   1.000000
    4      -13.622894    -13.622744   1.000000   1.000000
    5       -9.859705     -9.859649   1.000000   1.000000
    6       -6.933703     -6.933667   1.000000   1.000000
    7       -5.910378     -5.910281   1.000000   1.000000
    8       -5.377221     -5.377138   1.000000   1.000000
    9       -2.590802     -2.590871   1.000000   1.000000
   10       -2.294388     -2.294440   1.000000   1.000000
   11       -1.703225     -1.703240   1.000000   1.000000
   12       -0.753623     -0.753643   1.000000   1.000000
   13        0.091192      0.091175   1.000000   1.000000
   14        0.271984      0.271971   1.000000   1.000000
   15        1.107535      1.107543   1.000000   1.000000
   16        1.530935      1.530919   1.000000   1.000000
   17        7.267552      7.267352   0.000000   0.000000
   18        7.770747      7.770622   0.000000   0.000000
   19        9.039732      9.039454   0.000000   0.000000
   20        9.817571      9.817287   0.000000   0.000000
   21       10.577468     10.576926   0.000000   0.000000
   22       11.393393     11.388431   0.000000   0.000000
 
 -0.2500000E+00  0.1250000E+00  0.6055421E-17  0.3125000E-02
    1      -19.810561    -19.810535   1.000000   1.000000
    2      -17.891737    -17.891662   1.000000   1.000000
    3      -14.114914    -14.114780   1.000000   1.000000
    4      -13.462011    -13.461878   1.000000   1.000000
    5      -10.513443    -10.513390   1.000000   1.000000
    6       -6.917099     -6.917077   1.000000   1.000000
    7       -5.839730     -5.839657   1.000000   1.000000
    8       -5.468797     -5.468720   1.000000   1.000000
    9       -2.677739     -2.677814   1.000000   1.000000
   10       -2.026986     -2.027017   1.000000   1.000000
   11       -1.441331     -1.441318   1.000000   1.000000
   12       -0.892267     -0.892286   1.000000   1.000000
   13        0.192125      0.192106   1.000000   1.000000
   14        0.340755      0.340752   1.000000   1.000000
   15        1.060203      1.060223   1.000000   1.000000
   16        1.676930      1.676902   1.000000   1.000000
   17        7.295964      7.295815   0.000000   0.000000
   18        7.443630      7.443444   0.000000   0.000000
   19        8.556949      8.556609   0.000000   0.000000
   20        9.939673      9.939476   0.000000   0.000000
   21       10.519024     10.518568   0.000000   0.000000
   22       11.229051     11.229499   0.000000   0.000000
 
 -0.1250000E+00  0.1250000E+00 -0.4880747E-17  0.3125000E-02
    1      -19.856376    -19.856351   1.000000   1.000000
    2      -17.880124    -17.880048   1.000000   1.000000
    3      -14.087167    -14.087020   1.000000   1.000000
    4      -12.976068    -12.975921   1.000000   1.000000
    5      -11.172349    -11.172318   1.000000   1.000000
    6       -6.917467     -6.917451   1.000000   1.000000
    7       -5.802042     -5.801987   1.000000   1.000000
    8       -5.535789     -5.535716   1.000000   1.000000
    9       -2.716604     -2.716681   1.000000   1.000000
   10       -1.959714     -1.959747   1.000000   1.000000
   11       -1.071724     -1.071675   1.000000   1.000000
   12       -0.968829     -0.968839   1.000000   1.000000
   13        0.227155      0.227140   1.000000   1.000000
   14        0.337681      0.337675   1.000000   1.000000
   15        1.032521      1.032547   1.000000   1.000000
   16        1.745831      1.745790   1.000000   1.000000
   17        7.135233      7.135106   0.000000   0.000000
   18        7.424827      7.424557   0.000000   0.000000
   19        8.411718      8.411441   0.000000   0.000000
   20        9.984138      9.983842   0.000000   0.000000
   21       10.245279     10.244892   0.000000   0.000000
   22       11.408753     11.409282   0.000000   0.000000
 
 -0.1133518E-16  0.2500000E+00 -0.5973157E-16  0.3125000E-02
    1      -19.667430    -19.667402   1.000000   1.000000
    2      -18.152090    -18.152024   1.000000   1.000000
    3      -14.423520    -14.423391   1.000000   1.000000
    4      -12.679319    -12.679138   1.000000   1.000000
    5      -10.847379    -10.847361   1.000000   1.000000
    6       -7.019810     -7.019781   1.000000   1.000000
    7       -5.797386     -5.797331   1.000000   1.000000
    8       -5.403019     -5.402929   1.000000   1.000000
    9       -2.774328     -2.774406   1.000000   1.000000
   10       -2.025077     -2.025118   1.000000   1.000000
   11       -1.204742     -1.204772   1.000000   1.000000
   12       -1.077852     -1.077825   1.000000   1.000000
   13        0.054306      0.054274   1.000000   1.000000
   14        0.404643      0.404640   1.000000   1.000000
   15        0.846344      0.846370   1.000000   1.000000
   16        1.757470      1.757432   1.000000   1.000000
   17        7.563755      7.563668   0.000000   0.000000
   18        7.841543      7.841261   0.000000   0.000000
   19        8.861693      8.861511   0.000000   0.000000
   20        9.760298      9.759934   0.000000   0.000000
   21       10.221290     10.220941   0.000000   0.000000
   22       11.368642     11.368373   0.000000   0.000000
 
  0.1250000E+00  0.2500000E+00 -0.5340604E-16  0.3125000E-02
    1      -19.614624    -19.614595   1.000000   1.000000
    2      -18.178279    -18.178214   1.000000   1.000000
    3      -14.582432    -14.582313   1.000000   1.000000
    4      -12.868210    -12.868041   1.000000   1.000000
    5      -10.342443    -10.342404   1.000000   1.000000
    6       -7.068937     -7.068900   1.000000   1.000000
    7       -5.791048     -5.790980   1.000000   1.000000
    8       -5.376104     -5.376013   1.000000   1.000000
    9       -2.717692     -2.717768   1.000000   1.000000
   10       -2.163286     -2.163333   1.000000   1.000000
   11       -1.376383     -1.376382   1.000000   1.000000
   12       -1.081760     -1.081799   1.000000   1.000000
   13        0.011769      0.011738   1.000000   1.000000
   14        0.404709      0.404707   1.000000   1.000000
   15        0.761646      0.761667   1.000000   1.000000
   16        1.793433      1.793409   1.000000   1.000000
   17        7.642573      7.642462   0.000000   0.000000
   18        8.001367      8.001128   0.000000   0.000000
   19        9.042209      9.042001   0.000000   0.000000
   20        9.859072      9.858846   0.000000   0.000000
   21       10.256796     10.256382   0.000000   0.000000
   22       11.085116     11.084853   0.000000   0.000000
 
  0.2500000E+00  0.2500000E+00 -0.1194631E-15  0.6250000E-02
    1      -19.553056    -19.553024   1.000000   1.000000
    2      -18.206945    -18.206881   1.000000   1.000000
    3      -14.676463    -14.676353   1.000000   1.000000
    4      -13.173956    -13.173798   1.000000   1.000000
    5       -9.678346     -9.678293   1.000000   1.000000
    6       -7.245988     -7.245938   1.000000   1.000000
    7       -5.768097     -5.768010   1.000000   1.000000
    8       -5.299224     -5.299131   1.000000   1.000000
    9       -2.722663     -2.722742   1.000000   1.000000
   10       -2.305516     -2.305566   1.000000   1.000000
   11       -1.644449     -1.644475   1.000000   1.000000
   12       -0.903806     -0.903845   1.000000   1.000000
   13        0.058145      0.058126   1.000000   1.000000
   14        0.243559      0.243540   1.000000   1.000000
   15        0.744035      0.744042   1.000000   1.000000
   16        1.785855      1.785849   1.000000   1.000000
   17        7.664507      7.664352   0.000000   0.000000
   18        8.192460      8.192304   0.000000   0.000000
   19        9.064203      9.063972   0.000000   0.000000
   20        9.971593      9.971402   0.000000   0.000000
   21       10.228495     10.228193   0.000000   0.000000
   22       11.331371     11.326640   0.000000   0.000000
 
  0.3750000E+00  0.2500000E+00 -0.1898678E-16  0.3125000E-02
    1      -19.520736    -19.520704   1.000000   1.000000
    2      -18.219794    -18.219732   1.000000   1.000000
    3      -14.642207    -14.642103   1.000000   1.000000
    4      -13.448382    -13.448229   1.000000   1.000000
    5       -9.191639     -9.191585   1.000000   1.000000
    6       -7.476201     -7.476139   1.000000   1.000000
    7       -5.730469     -5.730371   1.000000   1.000000
    8       -5.225496     -5.225400   1.000000   1.000000
    9       -2.737431     -2.737510   1.000000   1.000000
   10       -2.404082     -2.404132   1.000000   1.000000
   11       -1.812636     -1.812684   1.000000   1.000000
   12       -0.732609     -0.732638   1.000000   1.000000
   13       -0.019754     -0.019764   1.000000   1.000000
   14        0.222673      0.222643   1.000000   1.000000
   15        0.890167      0.890160   1.000000   1.000000
   16        1.653269      1.653274   1.000000   1.000000
   17        7.725301      7.725117   0.000000   0.000000
   18        8.063385      8.063278   0.000000   0.000000
   19        9.019304      9.019064   0.000000   0.000000
   20        9.980876      9.980692   0.000000   0.000000
   21       10.672609     10.672261   0.000000   0.000000
   22       11.465899     11.468116   0.000000   0.000000
 
  0.5000000E+00  0.2500000E+00 -0.1623232E-15  0.6250000E-02
    1      -19.540059    -19.540027   1.000000   1.000000
    2      -18.206977    -18.206914   1.000000   1.000000
    3      -14.439209    -14.439103   1.000000   1.000000
    4      -13.662904    -13.662754   1.000000   1.000000
    5       -9.221437     -9.221382   1.000000   1.000000
    6       -7.495098     -7.495042   1.000000   1.000000
    7       -5.695092     -5.694992   1.000000   1.000000
    8       -5.205064     -5.204965   1.000000   1.000000
    9       -2.629604     -2.629658   1.000000   1.000000
   10       -2.505451     -2.505523   1.000000   1.000000
   11       -1.834950     -1.835000   1.000000   1.000000
   12       -0.806239     -0.806266   1.000000   1.000000
   13        0.033879      0.033858   1.000000   1.000000
   14        0.322129      0.322118   1.000000   1.000000
   15        1.135544      1.135532   1.000000   1.000000
   16        1.466854      1.466861   1.000000   1.000000
   17        7.434562      7.434385   0.000000   0.000000
   18        8.079925      8.079802   0.000000   0.000000
   19        8.979270      8.979029   0.000000   0.000000
   20       10.294969     10.295016   0.000000   0.000000
   21       10.759035     10.757062   0.000000   0.000000
   22       11.346433     11.346068   0.000000   0.000000
 
 -0.3750000E+00  0.2500000E+00  0.4558581E-17  0.3125000E-02
    1      -19.597052    -19.597021   1.000000   1.000000
    2      -18.177955    -18.177890   1.000000   1.000000
    3      -14.121243    -14.121123   1.000000   1.000000
    4      -13.771219    -13.771078   1.000000   1.000000
    5       -9.710670     -9.710614   1.000000   1.000000
    6       -7.321445     -7.321407   1.000000   1.000000
    7       -5.681408     -5.681320   1.000000   1.000000
    8       -5.253537     -5.253437   1.000000   1.000000
    9       -2.745057     -2.745131   1.000000   1.000000
   10       -2.205738     -2.205772   1.000000   1.000000
   11       -1.748244     -1.748285   1.000000   1.000000
   12       -0.959715     -0.959742   1.000000   1.000000
   13        0.081798      0.081765   1.000000   1.000000
   14        0.446822      0.446826   1.000000   1.000000
   15        1.153772      1.153781   1.000000   1.000000
   16        1.539676      1.539667   1.000000   1.000000
   17        7.258270      7.258097   0.000000   0.000000
   18        7.875427      7.875281   0.000000   0.000000
   19        9.106194      9.105913   0.000000   0.000000
   20       10.061653     10.061219   0.000000   0.000000
   21       10.729950     10.729899   0.000000   0.000000
   22       11.384294     11.385568   0.000000   0.000000
 
 -0.2500000E+00  0.2500000E+00 -0.9761495E-17  0.3125000E-02
    1      -19.655449    -19.655420   1.000000   1.000000
    2      -18.151613    -18.151547   1.000000   1.000000
    3      -14.103106    -14.102964   1.000000   1.000000
    4      -13.427158    -13.427024   1.000000   1.000000
    5      -10.319467    -10.319418   1.000000   1.000000
    6       -7.166045     -7.166017   1.000000   1.000000
    7       -5.705740     -5.705672   1.000000   1.000000
    8       -5.332872     -5.332774   1.000000   1.000000
    9       -2.826959     -2.827040   1.000000   1.000000
   10       -1.966781     -1.966804   1.000000   1.000000
   11       -1.485360     -1.485370   1.000000   1.000000
   12       -1.062581     -1.062606   1.000000   1.000000
   13        0.124646      0.124615   1.000000   1.000000
   14        0.438821      0.438823   1.000000   1.000000
   15        1.042085      1.042105   1.000000   1.000000
   16        1.688852      1.688830   1.000000   1.000000
   17        7.390280      7.390127   0.000000   0.000000
   18        7.636649      7.636489   0.000000   0.000000
   19        8.868547      8.868222   0.000000   0.000000
   20       10.006714     10.006334   0.000000   0.000000
   21       10.423633     10.423116   0.000000   0.000000
   22       11.444510     11.428553   0.000000   0.000000
 
 -0.1250000E+00  0.2500000E+00 -0.1748484E-16  0.3125000E-02
    1      -19.683514    -19.683485   1.000000   1.000000
    2      -18.141651    -18.141585   1.000000   1.000000
    3      -14.252406    -14.252268   1.000000   1.000000
    4      -12.911462    -12.911302   1.000000   1.000000
    5      -10.806499    -10.806469   1.000000   1.000000
    6       -7.064002     -7.063978   1.000000   1.000000
    7       -5.763659     -5.763604   1.000000   1.000000
    8       -5.384633     -5.384541   1.000000   1.000000
    9       -2.826678     -2.826758   1.000000   1.000000
   10       -1.950835     -1.950868   1.000000   1.000000
   11       -1.231589     -1.231604   1.000000   1.000000
   12       -1.066186     -1.066172   1.000000   1.000000
   13        0.169910      0.169888   1.000000   1.000000
   14        0.362152      0.362144   1.000000   1.000000
   15        0.916775      0.916796   1.000000   1.000000
   16        1.742059      1.742024   1.000000   1.000000
   17        7.501443      7.501353   0.000000   0.000000
   18        7.682048      7.681802   0.000000   0.000000
   19        8.734280      8.734014   0.000000   0.000000
   20        9.808724      9.808408   0.000000   0.000000
   21       10.291131     10.290762   0.000000   0.000000
   22       11.524757     11.525105   0.000000   0.000000
 
  0.3007265E-16  0.3750000E+00 -0.8116162E-16  0.3125000E-02
    1      -19.369305    -19.369271   1.000000   1.000000
    2      -18.530196    -18.530141   1.000000   1.000000
    3      -14.590770    -14.590646   1.000000   1.000000
    4      -12.714489    -12.714310   1.000000   1.000000
    5      -10.280313    -10.280286   1.000000   1.000000
    6       -7.206626     -7.206578   1.000000   1.000000
    7       -5.682547     -5.682474   1.000000   1.000000
    8       -5.339944     -5.339851   1.000000   1.000000
    9       -2.863903     -2.863985   1.000000   1.000000
   10       -2.056510     -2.056539   1.000000   1.000000
   11       -1.407593     -1.407643   1.000000   1.000000
   12       -1.262029     -1.262059   1.000000   1.000000
   13       -0.086807     -0.086848   1.000000   1.000000
   14        0.545583      0.545588   1.000000   1.000000
   15        0.770492      0.770523   1.000000   1.000000
   16        1.734859      1.734828   1.000000   1.000000
   17        7.860996      7.860922   0.000000   0.000000
   18        8.323626      8.323372   0.000000   0.000000
   19        9.264757      9.264604   0.000000   0.000000
   20        9.680129      9.679911   0.000000   0.000000
   21       10.463678     10.463168   0.000000   0.000000
   22       10.973963     10.973546   0.000000   0.000000
 
  0.1250000E+00  0.3750000E+00 -0.6395199E-16  0.6250000E-02
    1      -19.313238    -19.313202   1.000000   1.000000
    2      -18.570576    -18.570523   1.000000   1.000000
    3      -14.656505    -14.656386   1.000000   1.000000
    4      -12.872152    -12.871983   1.000000   1.000000