       N       E                     dE             d eps       ncg     rms          rms(c)
DAV:   1     0.187195850925E+03    0.18720E+03   -0.16474E+04 26048   0.131E+03
DAV:   2    -0.378971956072E+02   -0.22509E+03   -0.21752E+03 36014   0.301E+02
DAV:   3    -0.497543100357E+02   -0.11857E+02   -0.11798E+02 33116   0.751E+01
DAV:   4    -0.499064763809E+02   -0.15217E+00   -0.15193E+00 32558   0.939E+00
DAV:   5    -0.499097075641E+02   -0.32312E-02   -0.32302E-02 32606   0.131E+00    0.269E+01
RMM:   6    -0.438981790729E+02    0.60115E+01   -0.20114E+01 26360   0.255E+01    0.116E+01
RMM:   7    -0.441617112278E+02   -0.26353E+00   -0.48169E+00 29882   0.134E+01    0.492E+00
RMM:   8    -0.441515128629E+02    0.10198E-01   -0.45890E-01 30282   0.488E+00    0.297E+00
RMM:   9    -0.441492932869E+02    0.22196E-02   -0.12586E-01 30222   0.260E+00    0.790E-01
RMM:  10    -0.441506594790E+02   -0.13662E-02   -0.29310E-02 33469   0.110E+00    0.254E-01
RMM:  11    -0.441511596239E+02   -0.50014E-03   -0.14255E-02 32057   0.711E-01    0.224E-01
RMM:  12    -0.441511454317E+02    0.14192E-04   -0.16788E-03 32660   0.302E-01    0.115E-01
RMM:  13    -0.441511224925E+02    0.22939E-04   -0.79798E-04 31872   0.197E-01    0.306E-02
RMM:  14    -0.441511336807E+02   -0.11188E-04   -0.12115E-04 33317   0.798E-02    0.212E-02
RMM:  15    -0.441511294233E+02    0.42573E-05   -0.26368E-05 24278   0.342E-02
   1 F= -.44151129E+02 E0= -.44151129E+02  d E =0.000000E+00  mag=    -0.0001
