       N       E                     dE             d eps       ncg     rms          rms(c)
DAV:   1     0.256209052398E+03    0.25621E+03   -0.17536E+04  5928   0.147E+03
DAV:   2    -0.148128732977E+02   -0.27102E+03   -0.26204E+03  7140   0.366E+02
DAV:   3    -0.374023556337E+02   -0.22589E+02   -0.22430E+02  9588   0.897E+01
DAV:   4    -0.392642882227E+02   -0.18619E+01   -0.18564E+01  8768   0.230E+01
DAV:   5    -0.393176281807E+02   -0.53340E-01   -0.53336E-01  8318   0.338E+00    0.178E+01
RMM:   6    -0.381969270328E+02    0.11207E+01   -0.50388E+00  6534   0.120E+01    0.786E+00
RMM:   7    -0.388161444440E+02   -0.61922E+00   -0.83202E-01  7369   0.575E+00    0.390E+00
RMM:   8    -0.388992395847E+02   -0.83095E-01   -0.38427E-01  8719   0.357E+00    0.156E+00
RMM:   9    -0.389114410828E+02   -0.12201E-01   -0.13366E-01  9103   0.233E+00    0.390E-01
RMM:  10    -0.389226585485E+02   -0.11217E-01   -0.71465E-02 10173   0.133E+00    0.196E-01
RMM:  11    -0.389270114859E+02   -0.43529E-02   -0.27461E-02 10453   0.788E-01    0.141E-01
RMM:  12    -0.389286620869E+02   -0.16506E-02   -0.12344E-02 10884   0.474E-01    0.107E-01
RMM:  13    -0.389291093021E+02   -0.44722E-03   -0.42719E-03 10172   0.344E-01    0.544E-02
RMM:  14    -0.389294857766E+02   -0.37647E-03   -0.24605E-03 10377   0.245E-01    0.140E-02
RMM:  15    -0.389296234852E+02   -0.13771E-03   -0.12446E-03  9790   0.144E-01    0.108E-02
RMM:  16    -0.389296766921E+02   -0.53207E-04   -0.49706E-04  9373   0.938E-02    0.101E-02
RMM:  17    -0.389296933589E+02   -0.16667E-04   -0.19428E-04  9137   0.651E-02    0.432E-03
RMM:  18    -0.389297014688E+02   -0.81099E-05   -0.78472E-05  7565   0.452E-02
   1 F= -.38929701E+02 E0= -.38929701E+02  d E =0.000000E+00  mag=    -0.0000
