 running on    8 total cores
 distrk:  each k-point on    8 cores,    1 groups
 distr:  one band on    4 cores,    2 groups
 using from now: INCAR     
 vasp.6.1.2 22Jul20 (build Mar 20 2021 11:25:07) complex                        
  
 POSCAR found type information on POSCAR LiP 
 POSCAR found :  2 types and      40 ions
 scaLAPACK will be used
 LDA part: xc-table for Pade appr. of Perdew
 generate k-points for:    4    3    3
 POSCAR, INCAR and KPOINTS ok, starting setup
 FFT: planning ...
 WAVECAR not read
 entering main loop
       N       E                     dE             d eps       ncg     rms          rms(c)
DAV:   1     0.106780124111E+04    0.10678E+04   -0.68688E+04  6832   0.133E+03
DAV:   2    -0.269875200956E+02   -0.10948E+04   -0.10102E+04  7960   0.289E+02
DAV:   3    -0.165364878903E+03   -0.13838E+03   -0.13647E+03  9174   0.974E+01
DAV:   4    -0.181386634113E+03   -0.16022E+02   -0.15917E+02 12352   0.293E+01
DAV:   5    -0.184528100860E+03   -0.31415E+01   -0.31397E+01 11240   0.854E+00    0.341E+01
DAV:   6    -0.184720645645E+03   -0.19254E+00   -0.95579E+00  8920   0.719E+00    0.187E+01
DAV:   7    -0.186882441295E+03   -0.21618E+01   -0.33369E+00  8704   0.439E+00    0.113E+01
DAV:   8    -0.187754286127E+03   -0.87184E+00   -0.14475E+00  8032   0.314E+00    0.252E+00
DAV:   9    -0.187833206554E+03   -0.78920E-01   -0.21672E-01  9648   0.135E+00    0.118E+00
DAV:  10    -0.187846635942E+03   -0.13429E-01   -0.40094E-02  8920   0.521E-01    0.453E-01
DAV:  11    -0.187850618832E+03   -0.39829E-02   -0.63259E-03  8264   0.252E-01    0.221E-01
DAV:  12    -0.187852632006E+03   -0.20132E-02   -0.24253E-03  9184   0.138E-01    0.106E-01
DAV:  13    -0.187853543503E+03   -0.91150E-03   -0.69016E-04  8608   0.702E-02    0.448E-02
DAV:  14    -0.187853853112E+03   -0.30961E-03   -0.26946E-04  8104   0.418E-02    0.258E-02
DAV:  15    -0.187853953809E+03   -0.10070E-03   -0.10861E-04  7112   0.266E-02    0.127E-02
DAV:  16    -0.187853974342E+03   -0.20534E-04   -0.22354E-05  6904   0.133E-02    0.612E-03
DAV:  17    -0.187853978874E+03   -0.45316E-05   -0.53772E-06  5160   0.742E-03
   1 F= -.18785398E+03 E0= -.18785398E+03  d E =0.000000E+00  mag=    -0.0002
