   16   16    1    2
  0.1205484E+02  0.4842109E-09  0.5043864E-09  0.9240513E-09  0.5000000E-15
  1.000000000000000E-004
  CAR 
 unknown system                          
     80     99     54
 
  0.0000000E+00  0.0000000E+00  0.0000000E+00  0.5102041E-02
    1      -16.414786    -16.414788   1.000000   1.000000
    2      -15.702144    -15.702149   1.000000   1.000000
    3      -14.529561    -14.529560   1.000000   1.000000
    4      -12.417550    -12.417556   1.000000   1.000000
    5      -12.068041    -12.068054   1.000000   1.000000
    6      -11.935512    -11.935530   1.000000   1.000000
    7      -11.838388    -11.838403   1.000000   1.000000
    8      -11.610909    -11.610921   1.000000   1.000000
    9      -11.578774    -11.578782   1.000000   1.000000
   10      -11.133337    -11.133360   1.000000   1.000000
   11       -8.438943     -8.438937   1.000000   1.000000
   12       -8.426338     -8.426328   1.000000   1.000000
   13       -8.278693     -8.278687   1.000000   1.000000
   14       -5.559583     -5.559580   1.000000   1.000000
   15       -5.407279     -5.407279   1.000000   1.000000
   16       -4.718587     -4.718590   1.000000   1.000000
   17       -4.145629     -4.145634   1.000000   1.000000
   18       -3.511427     -3.511431   1.000000   1.000000
   19       -3.026141     -3.026137   1.000000   1.000000
   20       -2.939690     -2.939686   1.000000   1.000000
   21       -2.196418     -2.196419   1.000000   1.000000
   22       -2.079622     -2.079618   1.000000   1.000000
   23       -2.061456     -2.061454   1.000000   1.000000
   24       -1.581028     -1.581034   1.000000   1.000000
   25        0.244182      0.244184   1.000000   1.000000
   26        0.706586      0.706577   1.000000   1.000000
   27        0.784533      0.784523   1.000000   1.000000
   28        0.926193      0.926192   1.000000   1.000000
   29        1.064817      1.064808   1.000000   1.000000
   30        1.489557      1.489550   1.000000   1.000000
   31        1.587246      1.587237   1.000000   1.000000
   32        1.666797      1.666793   1.000000   1.000000
   33        1.851098      1.851098   1.000000   1.000000
   34        2.347580      2.347580   1.000000   1.000000
   35        2.524092      2.524096   1.000000   1.000000
   36        3.004212      3.004198   1.000000   1.000000
   37        3.178754      3.178745   1.000000   1.000000
   38        3.472051      3.472049   1.000000   1.000000
   39        3.978272      3.978260   1.000000   1.000000
   40        4.375331      4.375322   1.000000   1.000000
   41        8.765892      8.765920   0.000000   0.000000
   42        9.154237      9.154273   0.000000   0.000000
   43        9.683642      9.683657   0.000000   0.000000
   44        9.686286      9.686299   0.000000   0.000000
   45        9.868162      9.868224   0.000000   0.000000
   46       10.082427     10.082441   0.000000   0.000000
   47       10.650424     10.650440   0.000000   0.000000
   48       10.892292     10.892331   0.000000   0.000000
   49       11.012391     11.012424   0.000000   0.000000
   50       11.144302     11.144285   0.000000   0.000000
   51       11.429840     11.429879   0.000000   0.000000
   52       12.150500     12.150514   0.000000   0.000000
   53       12.565500     12.566946   0.000000   0.000000
   54       12.647060     12.742151   0.000000   0.000000
 
  0.1428571E+00  0.1232479E-16  0.2402320E-16  0.1020408E-01
    1      -16.344941    -16.344943   1.000000   1.000000
    2      -15.680338    -15.680342   1.000000   1.000000
    3      -14.465269    -14.465269   1.000000   1.000000
    4      -12.828220    -12.828224   1.000000   1.000000
    5      -12.427214    -12.427225   1.000000   1.000000
    6      -11.919797    -11.919810   1.000000   1.000000
    7      -11.812482    -11.812498   1.000000   1.000000
    8      -11.512588    -11.512603   1.000000   1.000000
    9      -11.260814    -11.260827   1.000000   1.000000
   10      -11.117336    -11.117358   1.000000   1.000000
   11       -9.007146     -9.007134   1.000000   1.000000
   12       -8.118099     -8.118094   1.000000   1.000000
   13       -7.583859     -7.583853   1.000000   1.000000
   14       -5.849352     -5.849350   1.000000   1.000000
   15       -5.225295     -5.225294   1.000000   1.000000
   16       -4.677539     -4.677542   1.000000   1.000000
   17       -4.147658     -4.147663   1.000000   1.000000
   18       -3.653079     -3.653083   1.000000   1.000000
   19       -3.068592     -3.068587   1.000000   1.000000
   20       -2.778069     -2.778068   1.000000   1.000000
   21       -2.335931     -2.335927   1.000000   1.000000
   22       -2.098548     -2.098552   1.000000   1.000000
   23       -1.949406     -1.949399   1.000000   1.000000
   24       -1.559169     -1.559176   1.000000   1.000000
   25        0.152027      0.152029   1.000000   1.000000
   26        0.482044      0.482039   1.000000   1.000000
   27        0.707597      0.707586   1.000000   1.000000
   28        1.104642      1.104631   1.000000   1.000000
   29        1.212628      1.212621   1.000000   1.000000
   30        1.496842      1.496834   1.000000   1.000000
   31        1.588282      1.588275   1.000000   1.000000
   32        1.717591      1.717591   1.000000   1.000000
   33        1.830757      1.830752   1.000000   1.000000
   34        2.281608      2.281611   1.000000   1.000000
   35        2.671540      2.671539   1.000000   1.000000
   36        2.934884      2.934871   1.000000   1.000000
   37        3.113428      3.113418   1.000000   1.000000
   38        3.396255      3.396255   1.000000   1.000000
   39        3.919702      3.919689   1.000000   1.000000
   40        4.215968      4.215962   1.000000   1.000000
   41        8.831642      8.831675   0.000000   0.000000
   42        9.227718      9.227749   0.000000   0.000000
   43        9.310250      9.310287   0.000000   0.000000
   44        9.842436      9.842465   0.000000   0.000000
   45        9.932608      9.932642   0.000000   0.000000
   46       10.221726     10.221742   0.000000   0.000000
   47       10.445149     10.445168   0.000000   0.000000
   48       10.775242     10.775254   0.000000   0.000000
   49       11.057019     11.057049   0.000000   0.000000
   50       11.345951     11.345958   0.000000   0.000000
   51       11.713560     11.713591   0.000000   0.000000
   52       11.907672     11.907671   0.000000   0.000000
   53       12.002090     12.002102   0.000000   0.000000
   54       12.725329     12.728208   0.000000   0.000000
 
  0.2857143E+00  0.7493492E-17  0.8209162E-16  0.1020408E-01
    1      -16.151695    -16.151698   1.000000   1.000000
    2      -15.644273    -15.644278   1.000000   1.000000
    3      -14.315711    -14.315712   1.000000   1.000000
    4      -13.363755    -13.363757   1.000000   1.000000
    5      -12.905992    -12.905999   1.000000   1.000000
    6      -12.139137    -12.139148   1.000000   1.000000
    7      -11.777093    -11.777107   1.000000   1.000000
    8      -11.378821    -11.378840   1.000000   1.000000
    9      -11.115418    -11.115440   1.000000   1.000000
   10      -10.999804    -10.999823   1.000000   1.000000
   11       -9.076068     -9.076054   1.000000   1.000000
   12       -7.671510     -7.671506   1.000000   1.000000
   13       -6.937875     -6.937869   1.000000   1.000000
   14       -6.091641     -6.091640   1.000000   1.000000
   15       -5.066007     -5.066007   1.000000   1.000000
   16       -4.716494     -4.716497   1.000000   1.000000
   17       -4.141173     -4.141175   1.000000   1.000000
   18       -3.825995     -3.825999   1.000000   1.000000
   19       -3.070147     -3.070142   1.000000   1.000000
   20       -2.713228     -2.713230   1.000000   1.000000
   21       -2.305351     -2.305347   1.000000   1.000000
   22       -2.185308     -2.185310   1.000000   1.000000
   23       -1.808309     -1.808303   1.000000   1.000000
   24       -1.566753     -1.566762   1.000000   1.000000
   25        0.054271      0.054278   1.000000   1.000000
   26        0.170784      0.170778   1.000000   1.000000
   27        0.703002      0.702987   1.000000   1.000000
   28        0.893572      0.893567   1.000000   1.000000
   29        1.323887      1.323879   1.000000   1.000000
   30        1.517951      1.517941   1.000000   1.000000
   31        1.606405      1.606403   1.000000   1.000000
   32        1.849994      1.849990   1.000000   1.000000
   33        2.059810      2.059806   1.000000   1.000000
   34        2.286896      2.286900   1.000000   1.000000
   35        2.654767      2.654764   1.000000   1.000000
   36        2.834256      2.834246   1.000000   1.000000
   37        2.953368      2.953358   1.000000   1.000000
   38        3.281837      3.281839   1.000000   1.000000
   39        3.793942      3.793930   1.000000   1.000000
   40        4.003700      4.003696   1.000000   1.000000
   41        8.719916      8.719967   0.000000   0.000000
   42        8.927429      8.927464   0.000000   0.000000
   43        9.529419      9.529448   0.000000   0.000000
   44        9.701364      9.701401   0.000000   0.000000
   45       10.018140     10.018167   0.000000   0.000000
   46       10.482329     10.482339   0.000000   0.000000
   47       10.504948     10.504967   0.000000   0.000000
   48       10.963904     10.963902   0.000000   0.000000
   49       11.245854     11.245891   0.000000   0.000000
   50       11.486535     11.486544   0.000000   0.000000
   51       11.697107     11.697129   0.000000   0.000000
   52       11.835685     11.835678   0.000000   0.000000
   53       12.062448     12.062474   0.000000   0.000000
   54       12.554917     12.555014   0.000000   0.000000
 
  0.4285714E+00  0.1981829E-16  0.1194259E-15  0.1020408E-01
    1      -15.898043    -15.898047   1.000000   1.000000
    2      -15.685638    -15.685642   1.000000   1.000000
    3      -14.233496    -14.233498   1.000000   1.000000
    4      -13.584236    -13.584238   1.000000   1.000000
    5      -13.267538    -13.267540   1.000000   1.000000
    6      -12.365963    -12.365972   1.000000   1.000000
    7      -11.766432    -11.766446   1.000000   1.000000
    8      -11.264454    -11.264474   1.000000   1.000000
    9      -11.104443    -11.104465   1.000000   1.000000
   10      -11.046415    -11.046434   1.000000   1.000000
   11       -8.772911     -8.772898   1.000000   1.000000
   12       -7.310798     -7.310794   1.000000   1.000000
   13       -7.082387     -7.082382   1.000000   1.000000
   14       -5.623102     -5.623102   1.000000   1.000000
   15       -5.122251     -5.122252   1.000000   1.000000
   16       -4.870206     -4.870207   1.000000   1.000000
   17       -4.164634     -4.164635   1.000000   1.000000
   18       -3.879035     -3.879038   1.000000   1.000000
   19       -2.913189     -2.913189   1.000000   1.000000
   20       -2.738356     -2.738355   1.000000   1.000000
   21       -2.404287     -2.404292   1.000000   1.000000
   22       -2.088911     -2.088906   1.000000   1.000000
   23       -1.725078     -1.725075   1.000000   1.000000
   24       -1.649286     -1.649295   1.000000   1.000000
   25       -0.038227     -0.038228   1.000000   1.000000
   26        0.060204      0.060208   1.000000   1.000000
   27        0.429843      0.429829   1.000000   1.000000
   28        0.933330      0.933321   1.000000   1.000000
   29        1.254781      1.254776   1.000000   1.000000
   30        1.547749      1.547752   1.000000   1.000000
   31        1.725957      1.725947   1.000000   1.000000
   32        1.888548      1.888537   1.000000   1.000000
   33        2.112176      2.112172   1.000000   1.000000
   34        2.399058      2.399058   1.000000   1.000000
   35        2.440037      2.440035   1.000000   1.000000
   36        2.691258      2.691252   1.000000   1.000000
   37        2.962391      2.962381   1.000000   1.000000
   38        3.223136      3.223140   1.000000   1.000000
   39        3.658045      3.658037   1.000000   1.000000
   40        4.044350      4.044341   1.000000   1.000000
   41        8.247651      8.247710   0.000000   0.000000
   42        8.931247      8.931287   0.000000   0.000000
   43        9.722655      9.722676   0.000000   0.000000
   44        9.778131      9.778160   0.000000   0.000000
   45       10.198408     10.198429   0.000000   0.000000
   46       10.587435     10.587439   0.000000   0.000000
   47       10.947286     10.947319   0.000000   0.000000
   48       11.084354     11.084397   0.000000   0.000000
   49       11.392250     11.392263   0.000000   0.000000
   50       11.560729     11.560737   0.000000   0.000000
   51       11.613683     11.613706   0.000000   0.000000
   52       11.786871     11.786891   0.000000   0.000000
   53       12.165811     12.165792   0.000000   0.000000
   54       12.294481     12.294480   0.000000   0.000000
 
 -0.1554768E-17  0.1428571E+00  0.3462819E-16  0.1020408E-01
    1      -16.360685    -16.360687   1.000000   1.000000
    2      -15.698770    -15.698774   1.000000   1.000000
    3      -14.490515    -14.490515   1.000000   1.000000
    4      -12.678751    -12.678756   1.000000   1.000000
    5      -12.292446    -12.292456   1.000000   1.000000
    6      -11.997460    -11.997474   1.000000   1.000000
    7      -11.881445    -11.881462   1.000000   1.000000
    8      -11.577013    -11.577027   1.000000   1.000000
    9      -11.221175    -11.221188   1.000000   1.000000
   10      -11.122093    -11.122116   1.000000   1.000000
   11       -9.003478     -9.003466   1.000000   1.000000
   12       -8.132732     -8.132728   1.000000   1.000000
   13       -7.675245     -7.675239   1.000000   1.000000
   14       -5.775494     -5.775491   1.000000   1.000000
   15       -5.235421     -5.235421   1.000000   1.000000
   16       -4.714359     -4.714362   1.000000   1.000000
   17       -4.143836     -4.143841   1.000000   1.000000
   18       -3.658997     -3.659000   1.000000   1.000000
   19       -3.046176     -3.046171   1.000000   1.000000
   20       -2.737749     -2.737747   1.000000   1.000000
   21       -2.318247     -2.318243   1.000000   1.000000
   22       -2.180431     -2.180435   1.000000   1.000000
   23       -1.916778     -1.916773   1.000000   1.000000
   24       -1.593883     -1.593891   1.000000   1.000000
   25        0.083715      0.083718   1.000000   1.000000
   26        0.496773      0.496763   1.000000   1.000000
   27        0.772256      0.772244   1.000000   1.000000
   28        1.009915      1.009915   1.000000   1.000000
   29        1.322406      1.322397   1.000000   1.000000
   30        1.422722      1.422712   1.000000   1.000000
   31        1.579478      1.579475   1.000000   1.000000
   32        1.661059      1.661054   1.000000   1.000000
   33        1.934383      1.934382   1.000000   1.000000
   34        2.298461      2.298463   1.000000   1.000000
   35        2.625735      2.625734   1.000000   1.000000
   36        2.940703      2.940691   1.000000   1.000000
   37        3.122168      3.122159   1.000000   1.000000
   38        3.403951      3.403950   1.000000   1.000000
   39        3.913545      3.913533   1.000000   1.000000
   40        4.240112      4.240105   1.000000   1.000000
   41        8.927705      8.927735   0.000000   0.000000
   42        9.056399      9.056435   0.000000   0.000000
   43        9.342128      9.342160   0.000000   0.000000
   44        9.867953      9.867990   0.000000   0.000000
   45       10.064018     10.064043   0.000000   0.000000
   46       10.260846     10.260863   0.000000   0.000000
   47       10.411985     10.411996   0.000000   0.000000
   48       10.647837     10.647873   0.000000   0.000000
   49       11.033992     11.033999   0.000000   0.000000
   50       11.568439     11.568436   0.000000   0.000000
   51       11.656565     11.656594   0.000000   0.000000
   52       11.881041     11.881055   0.000000   0.000000
   53       12.434250     12.434274   0.000000   0.000000
   54       12.808977     12.809048   0.000000   0.000000
 
  0.1428571E+00  0.1428571E+00  0.1025514E-15  0.1020408E-01
    1      -16.295247    -16.295249   1.000000   1.000000
    2      -15.704657    -15.704662   1.000000   1.000000
    3      -14.364094    -14.364094   1.000000   1.000000
    4      -12.841072    -12.841078   1.000000   1.000000
    5      -12.509775    -12.509784   1.000000   1.000000
    6      -12.353753    -12.353760   1.000000   1.000000
    7      -11.711517    -11.711535   1.000000   1.000000
    8      -11.430152    -11.430167   1.000000   1.000000
    9      -11.311870    -11.311886   1.000000   1.000000
   10      -11.142016    -11.142039   1.000000   1.000000
   11       -8.235694     -8.235687   1.000000   1.000000
   12       -8.121845     -8.121837   1.000000   1.000000
   13       -7.976052     -7.976046   1.000000   1.000000
   14       -6.050949     -6.050946   1.000000   1.000000
   15       -4.888504     -4.888505   1.000000   1.000000
   16       -4.662570     -4.662572   1.000000   1.000000
   17       -4.084567     -4.084573   1.000000   1.000000
   18       -3.596468     -3.596471   1.000000   1.000000
   19       -3.166334     -3.166329   1.000000   1.000000
   20       -2.845708     -2.845710   1.000000   1.000000
   21       -2.276581     -2.276577   1.000000   1.000000
   22       -2.149669     -2.149662   1.000000   1.000000
   23       -1.999929     -1.999932   1.000000   1.000000
   24       -1.581570     -1.581576   1.000000   1.000000
   25        0.041434      0.041441   1.000000   1.000000
   26        0.441575      0.441562   1.000000   1.000000
   27        0.544998      0.544987   1.000000   1.000000
   28        1.029323      1.029322   1.000000   1.000000
   29        1.276862      1.276855   1.000000   1.000000
   30        1.523611      1.523600   1.000000   1.000000
   31        1.587212      1.587211   1.000000   1.000000
   32        1.834171      1.834165   1.000000   1.000000
   33        1.913868      1.913863   1.000000   1.000000
   34        2.342540      2.342540   1.000000   1.000000
   35        2.684431      2.684431   1.000000   1.000000
   36        2.891690      2.891678   1.000000   1.000000
   37        3.074878      3.074870   1.000000   1.000000
   38        3.349031      3.349029   1.000000   1.000000
   39        3.793557      3.793547   1.000000   1.000000
   40        4.136671      4.136664   1.000000   1.000000
   41        8.855134      8.855174   0.000000   0.000000
   42        9.185983      9.186024   0.000000   0.000000
   43        9.281275      9.281309   0.000000   0.000000
   44        9.615571      9.615598   0.000000   0.000000
   45       10.114532     10.114553   0.000000   0.000000
   46       10.233477     10.233500   0.000000   0.000000
   47       10.526481     10.526471   0.000000   0.000000
   48       10.761377     10.761410   0.000000   0.000000
   49       11.100997     11.101012   0.000000   0.000000
   50       11.210103     11.210084   0.000000   0.000000
   51       11.770483     11.770523   0.000000   0.000000
   52       12.114255     12.114271   0.000000   0.000000
   53       12.437149     12.437173   0.000000   0.000000
   54       12.664898     12.664910   0.000000   0.000000
 
  0.2857143E+00  0.1428571E+00  0.1161531E-15  0.1020408E-01
    1      -16.102352    -16.102355   1.000000   1.000000
    2      -15.673738    -15.673742   1.000000   1.000000
    3      -14.164658    -14.164660   1.000000   1.000000
    4      -13.337720    -13.337723   1.000000   1.000000
    5      -13.031446    -13.031451   1.000000   1.000000
    6      -12.503478    -12.503485   1.000000   1.000000
    7      -11.667461    -11.667478   1.000000   1.000000
    8      -11.319155    -11.319171   1.000000   1.000000
    9      -11.229540    -11.229559   1.000000   1.000000
   10      -11.105435    -11.105456   1.000000   1.000000
   11       -8.321477     -8.321469   1.000000   1.000000
   12       -7.693327     -7.693322   1.000000   1.000000
   13       -7.327087     -7.327081   1.000000   1.000000
   14       -6.251014     -6.251012   1.000000   1.000000
   15       -4.703379     -4.703382   1.000000   1.000000
   16       -4.616664     -4.616664   1.000000   1.000000
   17       -4.077906     -4.077911   1.000000   1.000000
   18       -3.723914     -3.723917   1.000000   1.000000
   19       -3.218276     -3.218271   1.000000   1.000000
   20       -2.894372     -2.894378   1.000000   1.000000
   21       -2.277220     -2.277215   1.000000   1.000000
   22       -2.081036     -2.081037   1.000000   1.000000
   23       -2.021025     -2.021021   1.000000   1.000000
   24       -1.536606     -1.536612   1.000000   1.000000
   25       -0.040861     -0.040852   1.000000   1.000000
   26        0.312954      0.312943   1.000000   1.000000
   27        0.452550      0.452541   1.000000   1.000000
   28        0.911644      0.911639   1.000000   1.000000
   29        1.214441      1.214437   1.000000   1.000000
   30        1.428615      1.428610   1.000000   1.000000
   31        1.581238      1.581229   1.000000   1.000000
   32        2.041004      2.040998   1.000000   1.000000
   33        2.127361      2.127358   1.000000   1.000000
   34        2.333291      2.333292   1.000000   1.000000
   35        2.677495      2.677487   1.000000   1.000000
   36        2.815901      2.815894   1.000000   1.000000
   37        2.985355      2.985348   1.000000   1.000000
   38        3.238596      3.238595   1.000000   1.000000
   39        3.676656      3.676645   1.000000   1.000000
   40        3.889289      3.889287   1.000000   1.000000
   41        8.694961      8.695011   0.000000   0.000000
   42        9.005232      9.005277   0.000000   0.000000
   43        9.401423      9.401453   0.000000   0.000000
   44        9.802008      9.802029   0.000000   0.000000
   45       10.004298     10.004326   0.000000   0.000000
   46       10.236035     10.236051   0.000000   0.000000
   47       10.566579     10.566598   0.000000   0.000000
   48       11.010004     11.009993   0.000000   0.000000
   49       11.183516     11.183535   0.000000   0.000000
   50       11.313877     11.313874   0.000000   0.000000
   51       11.841312     11.841325   0.000000   0.000000
   52       12.186566     12.186590   0.000000   0.000000
   53       12.448677     12.448704   0.000000   0.000000
   54       12.553151     12.553190   0.000000   0.000000
 
  0.4285714E+00  0.1428571E+00 -0.1008461E-15  0.1020408E-01
    1      -15.841693    -15.841698   1.000000   1.000000
    2      -15.684490    -15.684494   1.000000   1.000000
    3      -14.118616    -14.118618   1.000000   1.000000
    4      -13.643630    -13.643634   1.000000   1.000000
    5      -13.356490    -13.356491   1.000000   1.000000
    6      -12.583657    -12.583663   1.000000   1.000000
    7      -11.675942    -11.675958   1.000000   1.000000
    8      -11.266403    -11.266420   1.000000   1.000000
    9      -11.210484    -11.210503   1.000000   1.000000
   10      -11.107340    -11.107362   1.000000   1.000000
   11       -8.275196     -8.275186   1.000000   1.000000
   12       -7.333404     -7.333401   1.000000   1.000000
   13       -7.172079     -7.172074   1.000000   1.000000
   14       -5.776947     -5.776946   1.000000   1.000000
   15       -5.038733     -5.038736   1.000000   1.000000
   16       -4.651775     -4.651775   1.000000   1.000000
   17       -4.018147     -4.018149   1.000000   1.000000
   18       -3.941750     -3.941753   1.000000   1.000000
   19       -3.078529     -3.078528   1.000000   1.000000
   20       -2.830536     -2.830537   1.000000   1.000000
   21       -2.426246     -2.426249   1.000000   1.000000
   22       -2.073861     -2.073862   1.000000   1.000000
   23       -1.823354     -1.823349   1.000000   1.000000
   24       -1.544522     -1.544527   1.000000   1.000000
   25       -0.089912     -0.089912   1.000000   1.000000
   26        0.205479      0.205483   1.000000   1.000000
   27        0.422239      0.422224   1.000000   1.000000
   28        0.703848      0.703844   1.000000   1.000000
   29        1.315618      1.315612   1.000000   1.000000
   30        1.502837      1.502832   1.000000   1.000000
   31        1.588496      1.588491   1.000000   1.000000
   32        1.925269      1.925261   1.000000   1.000000
   33        2.198882      2.198879   1.000000   1.000000
   34        2.316730      2.316728   1.000000   1.000000
   35        2.382438      2.382436   1.000000   1.000000
   36        2.749993      2.749988   1.000000   1.000000
   37        3.028880      3.028872   1.000000   1.000000
   38        3.244838      3.244839   1.000000   1.000000
   39        3.587179      3.587170   1.000000   1.000000
   40        3.911526      3.911520   1.000000   1.000000
   41        8.295916      8.295973   0.000000   0.000000
   42        9.109470      9.109514   0.000000   0.000000
   43        9.544042      9.544063   0.000000   0.000000
   44        9.865398      9.865421   0.000000   0.000000
   45       10.113570     10.113593   0.000000   0.000000
   46       10.336373     10.336390   0.000000   0.000000
   47       10.539115     10.539142   0.000000   0.000000
   48       11.247353     11.247375   0.000000   0.000000
   49       11.456834     11.456853   0.000000   0.000000
   50       11.521213     11.521206   0.000000   0.000000
   51       11.887969     11.887971   0.000000   0.000000
   52       12.143051     12.143067   0.000000   0.000000
   53       12.260044     12.260040   0.000000   0.000000
   54       12.605198     12.605519   0.000000   0.000000
 
 -0.4285714E+00  0.1428571E+00  0.5908015E-16  0.1020408E-01
    1      -15.865666    -15.865670   1.000000   1.000000
    2      -15.600605    -15.600610   1.000000   1.000000
    3      -14.228395    -14.228396   1.000000   1.000000
    4      -13.792709    -13.792711   1.000000   1.000000
    5      -13.293402    -13.293406   1.000000   1.000000
    6      -12.336026    -12.336034   1.000000   1.000000
    7      -11.699460    -11.699476   1.000000   1.000000
    8      -11.317654    -11.317672   1.000000   1.000000
    9      -11.179704    -11.179722   1.000000   1.000000
   10      -11.121099    -11.121121   1.000000   1.000000
   11       -8.681993     -8.681982   1.000000   1.000000
   12       -7.077757     -7.077756   1.000000   1.000000
   13       -6.884769     -6.884764   1.000000   1.000000
   14       -5.541403     -5.541404   1.000000   1.000000
   15       -5.221466     -5.221465   1.000000   1.000000
   16       -4.937374     -4.937375   1.000000   1.000000
   17       -4.147448     -4.147451   1.000000   1.000000
   18       -4.028441     -4.028442   1.000000   1.000000
   19       -2.907252     -2.907251   1.000000   1.000000
   20       -2.821786     -2.821783   1.000000   1.000000
   21       -2.477718     -2.477722   1.000000   1.000000
   22       -1.975290     -1.975292   1.000000   1.000000
   23       -1.772148     -1.772148   1.000000   1.000000
   24       -1.526860     -1.526861   1.000000   1.000000
   25       -0.064923     -0.064933   1.000000   1.000000
   26        0.180428      0.180438   1.000000   1.000000
   27        0.423775      0.423762   1.000000   1.000000
   28        0.917843      0.917835   1.000000   1.000000
   29        1.268055      1.268051   1.000000   1.000000
   30        1.569935      1.569936   1.000000   1.000000
   31        1.632472      1.632460   1.000000   1.000000
   32        1.681973      1.681969   1.000000   1.000000
   33        2.042980      2.042980   1.000000   1.000000
   34        2.320639      2.320636   1.000000   1.000000
   35        2.514435      2.514437   1.000000   1.000000
   36        2.723492      2.723484   1.000000   1.000000
   37        2.926433      2.926423   1.000000   1.000000
   38        3.234998      3.235001   1.000000   1.000000
   39        3.632072      3.632063   1.000000   1.000000
   40        3.975501      3.975492   1.000000   1.000000
   41        8.328189      8.328247   0.000000   0.000000
   42        8.988003      8.988042   0.000000   0.000000
   43        9.693355      9.693386   0.000000   0.000000
   44        9.902925      9.902943   0.000000   0.000000
   45       10.148859     10.148886   0.000000   0.000000
   46       10.367802     10.367833   0.000000   0.000000
   47       10.492768     10.492782   0.000000   0.000000
   48       11.371088     11.371105   0.000000   0.000000
   49       11.439947     11.439978   0.000000   0.000000
   50       11.537298     11.537310   0.000000   0.000000
   51       11.920091     11.920110   0.000000   0.000000
   52       12.099843     12.099851   0.000000   0.000000
   53       12.280565     12.280552   0.000000   0.000000
   54       12.506774     12.506886   0.000000   0.000000
 
 -0.2857143E+00  0.1428571E+00  0.5421444E-16  0.1020408E-01
    1      -16.098880    -16.098883   1.000000   1.000000
    2      -15.564830    -15.564835   1.000000   1.000000
    3      -14.371284    -14.371284   1.000000   1.000000
    4      -13.574765    -13.574767   1.000000   1.000000
    5      -13.006915    -13.006921   1.000000   1.000000
    6      -11.917465    -11.917477   1.000000   1.000000
    7      -11.740782    -11.740799   1.000000   1.000000
    8      -11.484351    -11.484368   1.000000   1.000000
    9      -11.118524    -11.118546   1.000000   1.000000
   10      -11.012867    -11.012886   1.000000   1.000000
   11       -9.327265     -9.327249   1.000000   1.000000
   12       -7.306101     -7.306097   1.000000   1.000000
   13       -6.368574     -6.368570   1.000000   1.000000
   14       -6.019280     -6.019280   1.000000   1.000000
   15       -5.527332     -5.527331   1.000000   1.000000
   16       -4.678154     -4.678157   1.000000   1.000000
   17       -4.206252     -4.206254   1.000000   1.000000