       N       E                     dE             d eps       ncg     rms          rms(c)
DAV:   1     0.473319853356E+03    0.47332E+03   -0.40302E+04 21384   0.136E+03
DAV:   2    -0.100299134301E+03   -0.57362E+03   -0.54937E+03 27214   0.309E+02
DAV:   3    -0.137280616602E+03   -0.36981E+02   -0.36675E+02 26584   0.840E+01
DAV:   4    -0.137996795779E+03   -0.71618E+00   -0.71325E+00 27832   0.122E+01
DAV:   5    -0.138015516565E+03   -0.18721E-01   -0.18695E-01 26182   0.186E+00    0.474E+01
DAV:   6    -0.117787133803E+03    0.20228E+02   -0.67605E+01 24876   0.323E+01    0.238E+01
DAV:   7    -0.120016579417E+03   -0.22294E+01   -0.10912E+01 26072   0.119E+01    0.766E+00
DAV:   8    -0.120005994238E+03    0.10585E-01   -0.61370E-01 25452   0.364E+00    0.468E+00
DAV:   9    -0.120008726191E+03   -0.27320E-02   -0.69633E-02 25856   0.135E+00    0.228E+00
DAV:  10    -0.120007285798E+03    0.14404E-02   -0.28052E-02 25974   0.858E-01    0.481E-01
DAV:  11    -0.120010079670E+03   -0.27939E-02   -0.55600E-03 24538   0.409E-01    0.258E-01
DAV:  12    -0.120010590716E+03   -0.51105E-03   -0.54922E-04 27650   0.133E-01    0.147E-01
DAV:  13    -0.120010885183E+03   -0.29447E-03   -0.28093E-04 25528   0.834E-02    0.602E-02
DAV:  14    -0.120010954006E+03   -0.68823E-04   -0.44695E-05 23136   0.344E-02    0.194E-02
DAV:  15    -0.120010970125E+03   -0.16119E-04   -0.12337E-05 17048   0.181E-02    0.104E-02
DAV:  16    -0.120010974439E+03   -0.43142E-05   -0.52193E-06 16224   0.104E-02
   1 F= -.12001097E+03 E0= -.12001097E+03  d E =0.000000E+00  mag=    -0.0004
