    8    8    1    2
  0.9092950E+01  0.4800394E-09  0.4800394E-09  0.4800394E-09  0.5000000E-15
  1.000000000000000E-004
  CAR 
 unknown system                          
     36    169     32
 
  0.0000000E+00  0.0000000E+00  0.0000000E+00  0.1562500E-02
    1      -38.045297    -38.045017   1.000000   1.000000
    2      -38.017254    -38.016973   1.000000   1.000000
    3      -13.883283    -13.883305   1.000000   1.000000
    4       -9.241523     -9.241556   1.000000   1.000000
    5       -9.241523     -9.241556   1.000000   1.000000
    6       -8.975540     -8.975573   1.000000   1.000000
    7       -6.952548     -6.952570   1.000000   1.000000
    8       -2.081693     -2.081714   1.000000   1.000000
    9       -2.081693     -2.081714   1.000000   1.000000
   10       -1.393118     -1.393138   1.000000   1.000000
   11        1.268353      1.268333   1.000000   1.000000
   12        2.367747      2.367760   1.000000   1.000000
   13        2.595491      2.595479   1.000000   1.000000
   14        3.761623      3.761607   1.000000   1.000000
   15        3.761624      3.761608   1.000000   1.000000
   16        4.171497      4.171479   1.000000   1.000000
   17        4.171498      4.171479   1.000000   1.000000
   18        4.296607      4.296576   1.000000   1.000000
   19        9.000839      9.000866   0.000000   0.000000
   20       11.850044     11.850077   0.000000   0.000000
   21       14.092212     14.092200   0.000000   0.000000
   22       14.092212     14.092200   0.000000   0.000000
   23       14.213280     14.213288   0.000000   0.000000
   24       14.213280     14.213288   0.000000   0.000000
   25       15.275054     15.275062   0.000000   0.000000
   26       15.529978     15.529997   0.000000   0.000000
   27       15.887699     15.887746   0.000000   0.000000
   28       16.343324     16.343338   0.000000   0.000000
   29       18.250597     18.250584   0.000000   0.000000
   30       18.936358     18.936367   0.000000   0.000000
   31       18.936367     18.936369   0.000000   0.000000
   32       19.537012     19.537377   0.000000   0.000000
 
  0.1250000E+00 -0.1955491E-16 -0.8200670E-17  0.6250000E-02
    1      -38.044500    -38.044220   1.000000   1.000000
    2      -38.018014    -38.017733   1.000000   1.000000
    3      -13.803516    -13.803537   1.000000   1.000000
    4       -9.563199     -9.563230   1.000000   1.000000
    5       -9.265876     -9.265908   1.000000   1.000000
    6       -9.059390     -9.059422   1.000000   1.000000
    7       -6.572020     -6.572043   1.000000   1.000000
    8       -2.105639     -2.105659   1.000000   1.000000
    9       -2.056695     -2.056716   1.000000   1.000000
   10       -1.302124     -1.302144   1.000000   1.000000
   11        1.201779      1.201760   1.000000   1.000000
   12        2.492251      2.492258   1.000000   1.000000
   13        2.592711      2.592698   1.000000   1.000000
   14        3.605929      3.605910   1.000000   1.000000
   15        3.794679      3.794659   1.000000   1.000000
   16        4.101424      4.101407   1.000000   1.000000
   17        4.147815      4.147798   1.000000   1.000000
   18        4.304609      4.304589   1.000000   1.000000
   19        9.347463      9.347487   0.000000   0.000000
   20       12.101704     12.101736   0.000000   0.000000
   21       13.307204     13.307201   0.000000   0.000000
   22       13.516778     13.516775   0.000000   0.000000
   23       14.220647     14.220644   0.000000   0.000000
   24       14.606527     14.606530   0.000000   0.000000
   25       15.147716     15.147730   0.000000   0.000000
   26       16.039674     16.039704   0.000000   0.000000
   27       16.268805     16.268819   0.000000   0.000000
   28       16.536524     16.536538   0.000000   0.000000
   29       17.979473     17.979466   0.000000   0.000000
   30       18.422517     18.422543   0.000000   0.000000
   31       18.699703     18.699744   0.000000   0.000000
   32       19.629555     19.632112   0.000000   0.000000
 
  0.2500000E+00 -0.3910981E-16 -0.1640134E-16  0.6250000E-02
    1      -38.042367    -38.042086   1.000000   1.000000
    2      -38.020115    -38.019835   1.000000   1.000000
    3      -13.579410    -13.579432   1.000000   1.000000
    4      -10.284013    -10.284041   1.000000   1.000000
    5       -9.308645     -9.308676   1.000000   1.000000
    6       -9.124415     -9.124447   1.000000   1.000000
    7       -5.886584     -5.886608   1.000000   1.000000
    8       -2.170305     -2.170324   1.000000   1.000000
    9       -1.910548     -1.910569   1.000000   1.000000
   10       -1.136919     -1.136940   1.000000   1.000000
   11        1.140707      1.140691   1.000000   1.000000
   12        2.526767      2.526750   1.000000   1.000000
   13        2.685418      2.685400   1.000000   1.000000
   14        2.965252      2.965258   1.000000   1.000000
   15        3.717346      3.717325   1.000000   1.000000
   16        4.016683      4.016660   1.000000   1.000000
   17        4.238839      4.238832   1.000000   1.000000
   18        4.673133      4.673113   1.000000   1.000000
   19       10.277672     10.277689   0.000000   0.000000
   20       12.281390     12.281407   0.000000   0.000000
   21       12.539286     12.539302   0.000000   0.000000
   22       13.016003     13.015997   0.000000   0.000000
   23       13.751433     13.751427   0.000000   0.000000
   24       15.113763     15.113774   0.000000   0.000000
   25       15.297621     15.297637   0.000000   0.000000
   26       16.285656     16.285656   0.000000   0.000000
   27       16.362378     16.362385   0.000000   0.000000
   28       17.130988     17.130978   0.000000   0.000000
   29       17.345053     17.345101   0.000000   0.000000
   30       17.801745     17.801768   0.000000   0.000000
   31       18.388769     18.388835   0.000000   0.000000
   32       19.662391     19.661332   0.000000   0.000000
 
  0.3750000E+00 -0.2810274E-16 -0.2740841E-16  0.6250000E-02
    1      -38.039611    -38.039331   1.000000   1.000000
    2      -38.022749    -38.022468   1.000000   1.000000
    3      -13.278438    -13.278462   1.000000   1.000000
    4      -10.954969    -10.954995   1.000000   1.000000
    5       -9.329199     -9.329231   1.000000   1.000000
    6       -9.195156     -9.195187   1.000000   1.000000
    7       -5.336774     -5.336797   1.000000   1.000000
    8       -2.190262     -2.190284   1.000000   1.000000
    9       -1.648236     -1.648259   1.000000   1.000000
   10       -1.086292     -1.086314   1.000000   1.000000
   11        1.244703      1.244688   1.000000   1.000000
   12        1.933235      1.933221   1.000000   1.000000
   13        2.465742      2.465733   1.000000   1.000000
   14        3.095258      3.095249   1.000000   1.000000
   15        3.583966      3.583954   1.000000   1.000000
   16        3.872036      3.872017   1.000000   1.000000
   17        4.513728      4.513716   1.000000   1.000000
   18        5.055043      5.055017   1.000000   1.000000
   19       11.461229     11.461231   0.000000   0.000000
   20       11.614784     11.614796   0.000000   0.000000
   21       12.553815     12.553834   0.000000   0.000000
   22       13.057846     13.057859   0.000000   0.000000
   23       13.388803     13.388783   0.000000   0.000000
   24       15.070112     15.070136   0.000000   0.000000
   25       15.551895     15.551918   0.000000   0.000000
   26       15.919137     15.919136   0.000000   0.000000
   27       16.195405     16.195425   0.000000   0.000000
   28       16.600505     16.600499   0.000000   0.000000
   29       17.140828     17.140855   0.000000   0.000000
   30       18.036391     18.036416   0.000000   0.000000
   31       18.392689     18.392900   0.000000   0.000000
   32       19.496556     19.495172   0.000000   0.000000
 
  0.5000000E+00 -0.7821962E-16 -0.3280268E-16  0.6250000E-02
    1      -38.038147    -38.037867   1.000000   1.000000
    2      -38.024119    -38.023839   1.000000   1.000000
    3      -13.107422    -13.107446   1.000000   1.000000
    4      -11.257347    -11.257372   1.000000   1.000000
    5       -9.326222     -9.326253   1.000000   1.000000
    6       -9.234889     -9.234921   1.000000   1.000000
    7       -5.131956     -5.131978   1.000000   1.000000
    8       -2.177971     -2.177996   1.000000   1.000000
    9       -1.445487     -1.445513   1.000000   1.000000
   10       -1.155090     -1.155110   1.000000   1.000000
   11        1.330438      1.330431   1.000000   1.000000
   12        1.658949      1.658931   1.000000   1.000000
   13        2.253052      2.253045   1.000000   1.000000
   14        3.359529      3.359516   1.000000   1.000000
   15        3.467564      3.467546   1.000000   1.000000
   16        3.753988      3.753980   1.000000   1.000000
   17        4.665856      4.665839   1.000000   1.000000
   18        5.195059      5.195030   1.000000   1.000000
   19       11.273169     11.273178   0.000000   0.000000
   20       12.254807     12.254810   0.000000   0.000000
   21       12.667205     12.667202   0.000000   0.000000
   22       13.098040     13.098049   0.000000   0.000000
   23       13.324584     13.324570   0.000000   0.000000
   24       14.681534     14.681575   0.000000   0.000000
   25       15.132945     15.132924   0.000000   0.000000
   26       15.695092     15.695104   0.000000   0.000000
   27       16.187771     16.187747   0.000000   0.000000
   28       16.628714     16.628701   0.000000   0.000000
   29       17.481788     17.481796   0.000000   0.000000
   30       17.678325     17.678374   0.000000   0.000000
   31       18.580572     18.580583   0.000000   0.000000
   32       19.175811     19.174171   0.000000   0.000000
 
  0.1250000E+00  0.1250000E+00  0.8547835E-17  0.3125000E-02
    1      -38.043234    -38.042954   1.000000   1.000000
    2      -38.019256    -38.018976   1.000000   1.000000
    3      -13.675886    -13.675908   1.000000   1.000000
    4       -9.981280     -9.981309   1.000000   1.000000
    5       -9.310471     -9.310502   1.000000   1.000000
    6       -9.145055     -9.145087   1.000000   1.000000
    7       -6.087941     -6.087966   1.000000   1.000000
    8       -2.209838     -2.209857   1.000000   1.000000
    9       -1.827892     -1.827913   1.000000   1.000000
   10       -1.275779     -1.275799   1.000000   1.000000
   11        1.207986      1.207970   1.000000   1.000000
   12        2.541413      2.541400   1.000000   1.000000
   13        2.597027      2.597024   1.000000   1.000000
   14        3.220331      3.220320   1.000000   1.000000
   15        3.700335      3.700312   1.000000   1.000000
   16        4.071881      4.071860   1.000000   1.000000
   17        4.310237      4.310218   1.000000   1.000000
   18        4.359770      4.359759   1.000000   1.000000
   19        9.871505      9.871526   0.000000   0.000000
   20       12.206356     12.206385   0.000000   0.000000
   21       12.858513     12.858512   0.000000   0.000000
   22       13.013378     13.013376   0.000000   0.000000
   23       14.129898     14.129894   0.000000   0.000000
   24       14.729348     14.729357   0.000000   0.000000
   25       15.160642     15.160656   0.000000   0.000000
   26       15.975953     15.975964   0.000000   0.000000
   27       16.657462     16.657479   0.000000   0.000000
   28       17.129407     17.129423   0.000000   0.000000
   29       17.784513     17.784523   0.000000   0.000000
   30       17.974930     17.974976   0.000000   0.000000
   31       18.576864     18.576877   0.000000   0.000000
   32       19.342314     19.343360   0.000000   0.000000
 
  0.2500000E+00  0.1250000E+00 -0.2740841E-16  0.6250000E-02
    1      -38.040753    -38.040473   1.000000   1.000000
    2      -38.021651    -38.021371   1.000000   1.000000
    3      -13.415198    -13.415220   1.000000   1.000000
    4      -10.645773    -10.645801   1.000000   1.000000
    5       -9.362372     -9.362403   1.000000   1.000000
    6       -9.199940     -9.199972   1.000000   1.000000
    7       -5.471137     -5.471162   1.000000   1.000000
    8       -2.303359     -2.303379   1.000000   1.000000
    9       -1.608866     -1.608887   1.000000   1.000000
   10       -1.151064     -1.151087   1.000000   1.000000
   11        1.259149      1.259134   1.000000   1.000000
   12        2.153071      2.153058   1.000000   1.000000
   13        2.525563      2.525551   1.000000   1.000000
   14        3.030315      3.030311   1.000000   1.000000
   15        3.587582      3.587563   1.000000   1.000000
   16        4.077267      4.077244   1.000000   1.000000
   17        4.433578      4.433564   1.000000   1.000000
   18        4.739361      4.739341   1.000000   1.000000
   19       10.834011     10.834025   0.000000   0.000000
   20       11.912874     11.912888   0.000000   0.000000
   21       12.204500     12.204509   0.000000   0.000000
   22       13.141471     13.141467   0.000000   0.000000
   23       13.817750     13.817752   0.000000   0.000000
   24       14.757709     14.757725   0.000000   0.000000
   25       15.402763     15.402779   0.000000   0.000000
   26       16.187918     16.187914   0.000000   0.000000
   27       16.683254     16.683262   0.000000   0.000000
   28       17.005977     17.005985   0.000000   0.000000
   29       17.159254     17.159288   0.000000   0.000000
   30       17.991220     17.991266   0.000000   0.000000
   31       18.302342     18.302383   0.000000   0.000000
   32       19.362759     19.360864   0.000000   0.000000
 
  0.3750000E+00  0.1250000E+00 -0.8831383E-16  0.1250000E-01
    1      -38.038178    -38.037898   1.000000   1.000000
    2      -38.024126    -38.023846   1.000000   1.000000
    3      -13.117498    -13.117521   1.000000   1.000000
    4      -11.205596    -11.205622   1.000000   1.000000
    5       -9.380881     -9.380912   1.000000   1.000000
    6       -9.253684     -9.253716   1.000000   1.000000
    7       -5.043053     -5.043076   1.000000   1.000000
    8       -2.358906     -2.358929   1.000000   1.000000
    9       -1.394340     -1.394362   1.000000   1.000000
   10       -1.115240     -1.115262   1.000000   1.000000
   11        1.341242      1.341235   1.000000   1.000000
   12        1.648568      1.648554   1.000000   1.000000
   13        2.354406      2.354395   1.000000   1.000000
   14        3.162594      3.162579   1.000000   1.000000
   15        3.587149      3.587138   1.000000   1.000000
   16        4.007372      4.007353   1.000000   1.000000
   17        4.601875      4.601858   1.000000   1.000000
   18        5.043541      5.043514   1.000000   1.000000
   19       11.360320     11.360328   0.000000   0.000000
   20       11.994343     11.994349   0.000000   0.000000
   21       12.207861     12.207874   0.000000   0.000000
   22       12.946631     12.946628   0.000000   0.000000
   23       13.842974     13.842978   0.000000   0.000000
   24       14.797900     14.797934   0.000000   0.000000
   25       15.455494     15.455525   0.000000   0.000000
   26       15.721399     15.721407   0.000000   0.000000
   27       16.144657     16.144677   0.000000   0.000000
   28       16.672111     16.672099   0.000000   0.000000
   29       17.192411     17.192435   0.000000   0.000000
   30       17.718170     17.718196   0.000000   0.000000
   31       18.513222     18.514822   0.000000   0.000000
   32       19.533006     19.560759   0.000000   0.000000
 
  0.5000000E+00  0.1250000E+00  0.9496813E-16  0.1250000E-01
    1      -38.037646    -38.037366   1.000000   1.000000
    2      -38.024648    -38.024367   1.000000   1.000000
    3      -13.046797    -13.046821   1.000000   1.000000
    4      -11.315322    -11.315347   1.000000   1.000000
    5       -9.386673     -9.386703   1.000000   1.000000
    6       -9.250397     -9.250428   1.000000   1.000000
    7       -4.993338     -4.993361   1.000000   1.000000
    8       -2.425613     -2.425638   1.000000   1.000000
    9       -1.418938     -1.418962   1.000000   1.000000
   10       -1.009549     -1.009571   1.000000   1.000000
   11        1.166107      1.166100   1.000000   1.000000
   12        1.681464      1.681452   1.000000   1.000000
   13        2.390332      2.390320   1.000000   1.000000
   14        3.372260      3.372240   1.000000   1.000000
   15        3.565981      3.565968   1.000000   1.000000
   16        3.904273      3.904261   1.000000   1.000000
   17        4.617892      4.617876   1.000000   1.000000
   18        5.105730      5.105702   1.000000   1.000000
   19       11.236956     11.236963   0.000000   0.000000
   20       12.112224     12.112228   0.000000   0.000000
   21       12.662312     12.662315   0.000000   0.000000
   22       12.949910     12.949908   0.000000   0.000000
   23       13.799664     13.799667   0.000000   0.000000
   24       14.648578     14.648617   0.000000   0.000000
   25       15.267934     15.267965   0.000000   0.000000
   26       15.563534     15.563555   0.000000   0.000000
   27       15.880008     15.880018   0.000000   0.000000
   28       16.871154     16.871140   0.000000   0.000000
   29       17.203176     17.203175   0.000000   0.000000
   30       17.679659     17.679702   0.000000   0.000000
   31       18.602125     18.602147   0.000000   0.000000
   32       19.298572     19.298199   0.000000   0.000000
 
 -0.3750000E+00  0.1250000E+00 -0.3910981E-16  0.6250000E-02
    1      -38.039771    -38.039491   1.000000   1.000000
    2      -38.022579    -38.022298   1.000000   1.000000
    3      -13.298554    -13.298577   1.000000   1.000000
    4      -10.872553    -10.872580   1.000000   1.000000
    5       -9.377384     -9.377414   1.000000   1.000000
    6       -9.184418     -9.184450   1.000000   1.000000
    7       -5.349630     -5.349654   1.000000   1.000000
    8       -2.489330     -2.489350   1.000000   1.000000
    9       -1.617422     -1.617443   1.000000   1.000000
   10       -0.912964     -0.912986   1.000000   1.000000
   11        0.995917      0.995905   1.000000   1.000000
   12        2.071391      2.071379   1.000000   1.000000
   13        2.715221      2.715206   1.000000   1.000000
   14        3.229889      3.229881   1.000000   1.000000
   15        3.670944      3.670922   1.000000   1.000000
   16        3.885399      3.885383   1.000000   1.000000
   17        4.438019      4.438010   1.000000   1.000000
   18        4.923335      4.923311   1.000000   1.000000
   19       11.128398     11.128406   0.000000   0.000000
   20       11.742676     11.742688   0.000000   0.000000
   21       12.740734     12.740742   0.000000   0.000000
   22       13.109965     13.109968   0.000000   0.000000
   23       13.633615     13.633612   0.000000   0.000000
   24       14.791738     14.791765   0.000000   0.000000
   25       15.378753     15.378761   0.000000   0.000000
   26       15.868043     15.868046   0.000000   0.000000
   27       16.376708     16.376745   0.000000   0.000000
   28       16.756494     16.756511   0.000000   0.000000
   29       17.212794     17.212789   0.000000   0.000000
   30       17.898430     17.898458   0.000000   0.000000
   31       18.408629     18.408739   0.000000   0.000000
   32       19.413111     19.414087   0.000000   0.000000
 
 -0.2500000E+00  0.1250000E+00 -0.4731048E-16  0.6250000E-02
    1      -38.042449    -38.042169   1.000000   1.000000
    2      -38.019991    -38.019710   1.000000   1.000000
    3      -13.590497    -13.590519   1.000000   1.000000
    4      -10.218323    -10.218352   1.000000   1.000000
    5       -9.331844     -9.331875   1.000000   1.000000
    6       -9.103938     -9.103970   1.000000   1.000000
    7       -5.954555     -5.954580   1.000000   1.000000
    8       -2.456796     -2.456813   1.000000   1.000000
    9       -1.804354     -1.804376   1.000000   1.000000
   10       -0.995192     -0.995214   1.000000   1.000000
   11        0.946444      0.946430   1.000000   1.000000
   12        2.648632      2.648616   1.000000   1.000000
   13        2.794131      2.794114   1.000000   1.000000
   14        3.150505      3.150506   1.000000   1.000000
   15        3.780218      3.780194   1.000000   1.000000
   16        3.944831      3.944806   1.000000   1.000000
   17        4.270606      4.270598   1.000000   1.000000
   18        4.565320      4.565305   1.000000   1.000000
   19       10.120884     10.120903   0.000000   0.000000
   20       12.389895     12.389916   0.000000   0.000000
   21       12.818807     12.818803   0.000000   0.000000
   22       13.270741     13.270746   0.000000   0.000000
   23       13.774041     13.774042   0.000000   0.000000
   24       14.379588     14.379596   0.000000   0.000000
   25       15.557423     15.557433   0.000000   0.000000
   26       15.946960     15.946967   0.000000   0.000000
   27       16.864223     16.864225   0.000000   0.000000
   28       17.068351     17.068350   0.000000   0.000000
   29       17.374578     17.374616   0.000000   0.000000
   30       17.504240     17.504262   0.000000   0.000000
   31       18.538331     18.538320   0.000000   0.000000
   32       19.706819     19.639789   0.000000   0.000000
 
 -0.1250000E+00  0.1250000E+00 -0.2142453E-17  0.3125000E-02
    1      -38.044184    -38.043904   1.000000   1.000000
    2      -38.018232    -38.017951   1.000000   1.000000
    3      -13.773201    -13.773222   1.000000   1.000000
    4       -9.679274     -9.679305   1.000000   1.000000
    5       -9.279549     -9.279581   1.000000   1.000000
    6       -9.028621     -9.028654   1.000000   1.000000
    7       -6.505125     -6.505148   1.000000   1.000000
    8       -2.314579     -2.314598   1.000000   1.000000
    9       -1.947148     -1.947169   1.000000   1.000000
   10       -1.176659     -1.176680   1.000000   1.000000
   11        1.079484      1.079468   1.000000   1.000000
   12        2.551968      2.551971   1.000000   1.000000
   13        2.690694      2.690680   1.000000   1.000000
   14        3.572920      3.572904   1.000000   1.000000
   15        3.804546      3.804524   1.000000   1.000000
   16        4.081823      4.081797   1.000000   1.000000
   17        4.180601      4.180587   1.000000   1.000000
   18        4.304807      4.304796   1.000000   1.000000
   19        9.437026      9.437050   0.000000   0.000000
   20       12.222045     12.222074   0.000000   0.000000
   21       13.429244     13.429247   0.000000   0.000000
   22       13.674685     13.674676   0.000000   0.000000
   23       13.929649     13.929642   0.000000   0.000000
   24       14.164967     14.164981   0.000000   0.000000
   25       15.613232     15.613243   0.000000   0.000000
   26       15.929974     15.929987   0.000000   0.000000
   27       16.296935     16.296955   0.000000   0.000000
   28       16.620936     16.620958   0.000000   0.000000
   29       17.757102     17.757095   0.000000   0.000000
   30       18.149142     18.149170   0.000000   0.000000
   31       18.830045     18.830055   0.000000   0.000000
   32       19.640560     19.636092   0.000000   0.000000
 
  0.2500000E+00  0.2500000E+00  0.1709567E-16  0.6250000E-02
    1      -38.038188    -38.037908   1.000000   1.000000
    2      -38.024148    -38.023867   1.000000   1.000000
    3      -13.127304    -13.127327   1.000000   1.000000
    4      -11.150789    -11.150815   1.000000   1.000000
    5       -9.448281     -9.448311   1.000000   1.000000
    6       -9.262227     -9.262258   1.000000   1.000000
    7       -4.948118     -4.948143   1.000000   1.000000
    8       -2.528585     -2.528607   1.000000   1.000000
    9       -1.365777     -1.365798   1.000000   1.000000
   10       -1.063358     -1.063382   1.000000   1.000000
   11        1.433995      1.433982   1.000000   1.000000
   12        1.519864      1.519861   1.000000   1.000000
   13        2.408077      2.408062   1.000000   1.000000
   14        3.238785      3.238771   1.000000   1.000000
   15        3.636295      3.636276   1.000000   1.000000
   16        4.149601      4.149579   1.000000   1.000000
   17        4.593981      4.593959   1.000000   1.000000
   18        4.820986      4.820968   1.000000   1.000000
   19       11.378535     11.378544   0.000000   0.000000
   20       11.787238     11.787253   0.000000   0.000000
   21       11.971173     11.971178   0.000000   0.000000
   22       12.970112     12.970104   0.000000   0.000000
   23       14.297597     14.297614   0.000000   0.000000
   24       14.412441     14.412464   0.000000   0.000000
   25       15.330072     15.330088   0.000000   0.000000
   26       16.295861     16.295873   0.000000   0.000000
   27       16.427185     16.427191   0.000000   0.000000
   28       16.598610     16.598631   0.000000   0.000000
   29       17.236900     17.236900   0.000000   0.000000
   30       17.490329     17.490370   0.000000   0.000000
   31       18.534200     18.534218   0.000000   0.000000
   32       19.174752     19.192383   0.000000   0.000000
 
  0.3750000E+00  0.2500000E+00  0.3945698E-16  0.6250000E-02
    1      -38.035775    -38.035494   1.000000   1.000000
    2      -38.026453    -38.026172   1.000000   1.000000
    3      -12.834239    -12.834264   1.000000   1.000000
    4      -11.569815    -11.569841   1.000000   1.000000
    5       -9.473384     -9.473413   1.000000   1.000000
    6       -9.317240     -9.317271   1.000000   1.000000
    7       -4.591812     -4.591836   1.000000   1.000000
    8       -2.798504     -2.798530   1.000000   1.000000
    9       -1.205341     -1.205361   1.000000   1.000000
   10       -0.996904     -0.996926   1.000000   1.000000
   11        1.155554      1.155553   1.000000   1.000000
   12        1.708854      1.708839   1.000000   1.000000
   13        2.221994      2.221982   1.000000   1.000000
   14        3.244622      3.244602   1.000000   1.000000
   15        3.872421      3.872402   1.000000   1.000000
   16        4.212959      4.212939   1.000000   1.000000
   17        4.592324      4.592304   1.000000   1.000000
   18        4.930651      4.930627   1.000000   1.000000
   19       11.262407     11.262411   0.000000   0.000000
   20       12.087934     12.087941   0.000000   0.000000
   21       12.456188     12.456195   0.000000   0.000000
   22       12.635997     12.635991   0.000000   0.000000
   23       14.358481     14.358494   0.000000   0.000000
   24       14.749697     14.749735   0.000000   0.000000
   25       15.107016     15.107031   0.000000   0.000000
   26       15.680454     15.680480   0.000000   0.000000
   27       15.953566     15.953578   0.000000   0.000000
   28       16.537293     16.537297   0.000000   0.000000
   29       16.983830     16.983852   0.000000   0.000000
   30       17.542223     17.542244   0.000000   0.000000
   31       18.600535     18.600410   0.000000   0.000000
   32       19.300554     19.304690   0.000000   0.000000
 
  0.5000000E+00  0.2500000E+00 -0.5481682E-16  0.1250000E-01
    1      -38.036075    -38.035795   1.000000   1.000000
    2      -38.026125    -38.025845   1.000000   1.000000
    3      -12.868251    -12.868276   1.000000   1.000000
    4      -11.509918    -11.509945   1.000000   1.000000
    5       -9.455928     -9.455957   1.000000   1.000000
    6       -9.317605     -9.317636   1.000000   1.000000
    7       -4.660351     -4.660375   1.000000   1.000000
    8       -2.979149     -2.979171   1.000000   1.000000
    9       -1.230881     -1.230903   1.000000   1.000000
   10       -0.814333     -0.814354   1.000000   1.000000
   11        1.020115      1.020109   1.000000   1.000000
   12        1.711882      1.711875   1.000000   1.000000
   13        2.512817      2.512801   1.000000   1.000000
   14        3.196287      3.196265   1.000000   1.000000
   15        3.927720      3.927703   1.000000   1.000000
   16        4.165704      4.165684   1.000000   1.000000
   17        4.574340      4.574324   1.000000   1.000000
   18        4.932515      4.932489   1.000000   1.000000
   19       11.311093     11.311097   0.000000   0.000000
   20       11.905487     11.905494   0.000000   0.000000
   21       12.692116     12.692116   0.000000   0.000000
   22       13.076212     13.076212   0.000000   0.000000
   23       14.065274     14.065282   0.000000   0.000000
   24       14.634653     14.634699   0.000000   0.000000
   25       14.936869     14.936894   0.000000   0.000000
   26       15.365352     15.365355   0.000000   0.000000
   27       16.048276     16.048329   0.000000   0.000000
   28       16.454064     16.454086   0.000000   0.000000
   29       17.194910     17.194912   0.000000   0.000000
   30       17.913010     17.913156   0.000000   0.000000
   31       18.537667     18.537610   0.000000   0.000000
   32       19.353776     19.350533   0.000000   0.000000
 
 -0.3750000E+00  0.2500000E+00 -0.4731048E-16  0.6250000E-02
    1      -38.038659    -38.038378   1.000000   1.000000
    2      -38.023610    -38.023329   1.000000   1.000000
    3      -13.175131    -13.175155   1.000000   1.000000
    4      -11.029297    -11.029325   1.000000   1.000000
    5       -9.417736     -9.417766   1.000000   1.000000
    6       -9.258488     -9.258520   1.000000   1.000000
    7       -5.114109     -5.114134   1.000000   1.000000
    8       -2.949063     -2.949081   1.000000   1.000000
    9       -1.369626     -1.369648   1.000000   1.000000
   10       -0.709075     -0.709099   1.000000   1.000000
   11        0.797119      0.797111   1.000000   1.000000
   12        2.138760      2.138750   1.000000   1.000000
   13        2.901015      2.900997   1.000000   1.000000
   14        3.119078      3.119060   1.000000   1.000000
   15        3.792557      3.792540   1.000000   1.000000
   16        3.949199      3.949181   1.000000   1.000000