Automatically generated mesh
     169
Reciprocal lattice
    0.00000000000000    0.00000000000000    0.00000000000000             1
    0.12500000000000   -0.00000000000000   -0.00000000000000             4
    0.25000000000000   -0.00000000000000   -0.00000000000000             4
    0.37500000000000   -0.00000000000000   -0.00000000000000             4
    0.50000000000000   -0.00000000000000   -0.00000000000000             4
    0.12500000000000    0.12500000000000    0.00000000000000             2
    0.25000000000000    0.12500000000000   -0.00000000000000             4
    0.37500000000000    0.12500000000000   -0.00000000000000             8
    0.50000000000000    0.12500000000000    0.00000000000000             8
   -0.37500000000000    0.12500000000000   -0.00000000000000             4
   -0.25000000000000    0.12500000000000   -0.00000000000000             4
   -0.12500000000000    0.12500000000000   -0.00000000000000             2
    0.25000000000000    0.25000000000000    0.00000000000000             4
    0.37500000000000    0.25000000000000    0.00000000000000             4
    0.50000000000000    0.25000000000000   -0.00000000000000             8
   -0.37500000000000    0.25000000000000   -0.00000000000000             4
   -0.25000000000000    0.25000000000000   -0.00000000000000             2
    0.37500000000000    0.37500000000000   -0.00000000000000             2
    0.50000000000000    0.37500000000000    0.00000000000000             8
   -0.37500000000000    0.37500000000000   -0.00000000000000             2
    0.50000000000000    0.50000000000000    0.00000000000000             2
   -0.00000000000000    0.00000000000000    0.10000000000000             2
    0.12500000000000   -0.00000000000000    0.10000000000000             4
    0.25000000000000   -0.00000000000000    0.10000000000000             4
    0.37500000000000   -0.00000000000000    0.10000000000000             4
    0.50000000000000   -0.00000000000000    0.10000000000000             8
   -0.37500000000000    0.00000000000000    0.10000000000000             4
   -0.25000000000000    0.00000000000000    0.10000000000000             4
   -0.12500000000000    0.00000000000000    0.10000000000000             4
    0.12500000000000    0.12500000000000    0.10000000000000             2
    0.25000000000000    0.12500000000000    0.10000000000000             4
    0.37500000000000    0.12500000000000    0.10000000000000             8
    0.50000000000000    0.12500000000000    0.10000000000000             4
   -0.37500000000000    0.12500000000000    0.10000000000000             4
   -0.25000000000000    0.12500000000000    0.10000000000000             4
   -0.12500000000000    0.12500000000000    0.10000000000000             4
    0.25000000000000    0.25000000000000    0.10000000000000             4
    0.37500000000000    0.25000000000000    0.10000000000000             4
    0.50000000000000    0.25000000000000    0.10000000000000             4
   -0.37500000000000    0.25000000000000    0.10000000000000             4
   -0.25000000000000    0.25000000000000    0.10000000000000             4
   -0.12500000000000    0.25000000000000    0.10000000000000             4
    0.37500000000000    0.37500000000000    0.10000000000000             2
    0.50000000000000    0.37500000000000    0.10000000000000             4
   -0.37500000000000    0.37500000000000    0.10000000000000             4
   -0.25000000000000    0.37500000000000    0.10000000000000             4
   -0.12500000000000    0.37500000000000    0.10000000000000             4
    0.50000000000000    0.50000000000000    0.10000000000000             2
   -0.37500000000000    0.50000000000000    0.10000000000000             4
   -0.25000000000000    0.50000000000000    0.10000000000000             4
   -0.12500000000000    0.50000000000000    0.10000000000000             4
   -0.37500000000000   -0.37500000000000    0.10000000000000             2
   -0.25000000000000   -0.37500000000000    0.10000000000000             4
   -0.12500000000000   -0.37500000000000    0.10000000000000             8
   -0.25000000000000   -0.25000000000000    0.10000000000000             4
   -0.12500000000000   -0.25000000000000    0.10000000000000             4
   -0.12500000000000   -0.12500000000000    0.10000000000000             2
   -0.00000000000000    0.00000000000000    0.20000000000000             2
    0.12500000000000   -0.00000000000000    0.20000000000000             4
    0.25000000000000   -0.00000000000000    0.20000000000000             4
    0.37500000000000    0.00000000000000    0.20000000000000             4
    0.50000000000000   -0.00000000000000    0.20000000000000             8
   -0.37500000000000    0.00000000000000    0.20000000000000             4
   -0.25000000000000    0.00000000000000    0.20000000000000             4
   -0.12500000000000    0.00000000000000    0.20000000000000             4
    0.12500000000000    0.12500000000000    0.20000000000000             2
    0.25000000000000    0.12500000000000    0.20000000000000             4
    0.37500000000000    0.12500000000000    0.20000000000000             8
    0.50000000000000    0.12500000000000    0.20000000000000             4
   -0.37500000000000    0.12500000000000    0.20000000000000             4
   -0.25000000000000    0.12500000000000    0.20000000000000             4
   -0.12500000000000    0.12500000000000    0.20000000000000             4
    0.25000000000000    0.25000000000000    0.20000000000000             4
    0.37500000000000    0.25000000000000    0.20000000000000             4
    0.50000000000000    0.25000000000000    0.20000000000000             4
   -0.37500000000000    0.25000000000000    0.20000000000000             4
   -0.25000000000000    0.25000000000000    0.20000000000000             4
   -0.12500000000000    0.25000000000000    0.20000000000000             4
    0.37500000000000    0.37500000000000    0.20000000000000             2
    0.50000000000000    0.37500000000000    0.20000000000000             4
   -0.37500000000000    0.37500000000000    0.20000000000000             4
   -0.25000000000000    0.37500000000000    0.20000000000000             4
   -0.12500000000000    0.37500000000000    0.20000000000000             4
    0.50000000000000    0.50000000000000    0.20000000000000             2
   -0.37500000000000    0.50000000000000    0.20000000000000             4
   -0.25000000000000    0.50000000000000    0.20000000000000             4
   -0.12500000000000    0.50000000000000    0.20000000000000             4
   -0.37500000000000   -0.37500000000000    0.20000000000000             2
   -0.25000000000000   -0.37500000000000    0.20000000000000             4
   -0.12500000000000   -0.37500000000000    0.20000000000000             8
   -0.25000000000000   -0.25000000000000    0.20000000000000             4
   -0.12500000000000   -0.25000000000000    0.20000000000000             4
   -0.12500000000000   -0.12500000000000    0.20000000000000             2
   -0.00000000000000    0.00000000000000    0.30000000000000             2
    0.12500000000000   -0.00000000000000    0.30000000000000             4
    0.25000000000000   -0.00000000000000    0.30000000000000             4
    0.37500000000000   -0.00000000000000    0.30000000000000             4
   -0.37500000000000    0.00000000000000    0.30000000000000             4
   -0.25000000000000    0.00000000000000    0.30000000000000             4
   -0.12500000000000    0.00000000000000    0.30000000000000             4
    0.12500000000000    0.12500000000000    0.30000000000000             2
    0.25000000000000    0.12500000000000    0.30000000000000             4
    0.50000000000000    0.12500000000000    0.30000000000000             4
   -0.37500000000000    0.12500000000000    0.30000000000000             4
   -0.25000000000000    0.12500000000000    0.30000000000000             4
   -0.12500000000000    0.12500000000000    0.30000000000000             4
    0.37500000000000    0.25000000000000    0.30000000000000             4
    0.50000000000000    0.25000000000000    0.30000000000000             4
   -0.37500000000000    0.25000000000000    0.30000000000000             4
   -0.25000000000000    0.25000000000000    0.30000000000000             4
   -0.12500000000000    0.25000000000000    0.30000000000000             4
    0.37500000000000    0.37500000000000    0.30000000000000             2
    0.50000000000000    0.37500000000000    0.30000000000000             4
   -0.37500000000000    0.37500000000000    0.30000000000000             4
   -0.25000000000000    0.37500000000000    0.30000000000000             4
   -0.12500000000000    0.37500000000000    0.30000000000000             4
    0.50000000000000    0.50000000000000    0.30000000000000             2
   -0.37500000000000    0.50000000000000    0.30000000000000             4
   -0.25000000000000    0.50000000000000    0.30000000000000             4
   -0.12500000000000    0.50000000000000    0.30000000000000             4
   -0.37500000000000   -0.37500000000000    0.30000000000000             2
   -0.25000000000000   -0.37500000000000    0.30000000000000             4
   -0.12500000000000   -0.25000000000000    0.30000000000000             4
   -0.12500000000000   -0.12500000000000    0.30000000000000             2
   -0.00000000000000    0.00000000000000    0.40000000000000             2
    0.12500000000000   -0.00000000000000    0.40000000000000             4
    0.25000000000000   -0.00000000000000    0.40000000000000             4
    0.37500000000000   -0.00000000000000    0.40000000000000             4
   -0.37500000000000    0.00000000000000    0.40000000000000             4
   -0.25000000000000    0.00000000000000    0.40000000000000             4
   -0.12500000000000    0.00000000000000    0.40000000000000             4
    0.12500000000000    0.12500000000000    0.40000000000000             2
    0.25000000000000    0.12500000000000    0.40000000000000             4
    0.50000000000000    0.12500000000000    0.40000000000000             4
   -0.37500000000000    0.12500000000000    0.40000000000000             4
   -0.25000000000000    0.12500000000000    0.40000000000000             4
   -0.12500000000000    0.12500000000000    0.40000000000000             4
    0.37500000000000    0.25000000000000    0.40000000000000             4
    0.50000000000000    0.25000000000000    0.40000000000000             4
   -0.37500000000000    0.25000000000000    0.40000000000000             4
   -0.25000000000000    0.25000000000000    0.40000000000000             4
   -0.12500000000000    0.25000000000000    0.40000000000000             4
    0.37500000000000    0.37500000000000    0.40000000000000             2
    0.50000000000000    0.37500000000000    0.40000000000000             4
   -0.37500000000000    0.37500000000000    0.40000000000000             4
   -0.25000000000000    0.37500000000000    0.40000000000000             4
   -0.12500000000000    0.37500000000000    0.40000000000000             4
    0.50000000000000    0.50000000000000    0.40000000000000             2
   -0.37500000000000    0.50000000000000    0.40000000000000             4
   -0.25000000000000    0.50000000000000    0.40000000000000             4
   -0.12500000000000    0.50000000000000    0.40000000000000             4
   -0.37500000000000   -0.37500000000000    0.40000000000000             2
   -0.25000000000000   -0.37500000000000    0.40000000000000             4
   -0.12500000000000   -0.25000000000000    0.40000000000000             4
   -0.12500000000000   -0.12500000000000    0.40000000000000             2
    0.12500000000000    0.12500000000000    0.50000000000000             2
    0.25000000000000    0.12500000000000    0.50000000000000             4
    0.50000000000000    0.12500000000000    0.50000000000000             4
   -0.37500000000000    0.12500000000000    0.50000000000000             4
   -0.25000000000000    0.12500000000000    0.50000000000000             4
   -0.12500000000000    0.12500000000000    0.50000000000000             2
    0.37500000000000    0.25000000000000    0.50000000000000             4
    0.50000000000000    0.25000000000000    0.50000000000000             4
   -0.37500000000000    0.25000000000000    0.50000000000000             4
   -0.25000000000000    0.25000000000000    0.50000000000000             2
    0.37500000000000    0.37500000000000    0.50000000000000             2
    0.50000000000000    0.37500000000000    0.50000000000000             4
   -0.37500000000000    0.37500000000000    0.50000000000000             2
    0.50000000000000    0.50000000000000    0.50000000000000             1
Tetrahedra
       959    0.00026041666667
         4         1         2         6        22
         4         2         6        22        23
         4         6        22        23        30
         4         2         3         7        23
         4         2         6         7        23
         4         6         7        23        30
         4         3         7        23        24
         4         7        23        24        31
         4         7        23        30        31
         4         3         4         8        24
         4         3         7         8        24
         4         7         8        24        31
         4         4         8        24        25
         4         8        24        25        32
         4         8        24        31        32
         4         4         5         9        25
         4         4         8         9        25
         4         8         9        25        32
         4         5         9        25        26
         4         9        25        26        33
         4         9        25        32        33
         4         4         5        10        26
         4         5         9        10        26
         4         9        10        26        33
         4         4        10        26        27
         4        10        26        27        34
         4        10        26        33        34
         4         3         4        11        27
         4         4        10        11        27
         4        10        11        27        34
         4         3        11        27        28
         4        11        27        28        35
         4        11        27        34        35
         4         2         3        12        28
         4         3        11        12        28
         4        11        12        28        35
         4         2        12        28        29
         4        12        28        29        36
         4        12        28        35        36
         4         1         2         2        29
         4         2         2        12        29
         4         2        12        29        36
         4         1         2        22        29
         4         2        22        23        29
         4         2        23        29        36
         4         6         7        13        30
         4         7        13        30        31
         4        13        30        31        37
         4         7         8        14        31
         4         7        13        14        31
         4        13        14        31        37
         4         8        14        31        32
         4        14        31        32        38
         4        14        31        37        38
         8         8         9        15        32
         4         8        14        15        32
         4        14        15        32        38
         4         9        15        32        33
         4        15        32        33        39
         4        15        32        38        39
         4         9        10        16        33
         4         9        15        16        33
         4        15        16        33        39
         4        10        16        33        34
         4        16        33        34        40
         4        16        33        39        40
         4        10        11        17        34
         4        10        16        17        34
         4        16        17        34        40
         4        11        17        34        35
         4        17        34        35        41
         4        17        34        40        41
         4        11        11        12        35
         4        11        11        17        35
         4        11        17        35        41
         4        11        12        35        36
         4        11        35        36        42
         4        11        35        41        42
         4         2         3        12        36
         4         3        11        12        36
         4         3        11        36        42
         4         2         3        23        36
         4         3        23        24        36
         4         3        24        36        42
         4        13        14        18        37
         4        14        18        37        38
         4        18        37        38        43
         4        14        15        19        38
         4        14        18        19        38
         4        18        19        38        43
         4        15        19        38        39
         4        19        38        39        44
         4        19        38        43        44
         4        15        16        20        39
         4        15        19        20        39
         4        19        20        39        44
         4        16        20        39        40
         4        20        39        40        45
         4        20        39        44        45
         4        16        16        17        40
         4        16        16        20        40
         4        16        20        40        45
         4        16        17        40        41
         4        16        40        41        46
         4        16        40        45        46
         4        10        11        17        41
         4        10        16        17        41
         4        10        16        41        46
         4        10        11        41        42
         4        10        41        42        47
         4        10        41        46        47
         4         3         4        11        42
         4         4        10        11        42
         4         4        10        42        47
         4         3         4        24        42
         4         4        24        25        42
         4         4        25        42        47
         4        18        19        21        43
         4        19        21        43        44
         4        21        43        44        48
         4        19        19        20        44
         4        19        19        21        44
         4        19        21        44        48
         4        19        20        44        45
         4        19        44        45        49
         4        19        44        48        49
         4        15        16        20        45
         4        15        19        20        45
         4        15        19        45        49
         4        15        16        45        46
         4        15        45        46        50
         4        15        45        49        50
         4         9        10        16        46
         4         9        15        16        46
         4         9        15        46        50
         4         9        10        46        47
         4         9        46        47        51
         4         9        46        50        51
         4         4         5        10        47
         4         5         9        10        47
         4         5         9        47        51
         4         4         5        25        47
         4         5        25        26        47
         4         5        26        47        51
         4        18        19        21        48
         4        18        19        48        49
         4        18        48        49        52
         4        14        15        19        49
         4        14        18        19        49
         4        14        18        49        52
         4        14        15        49        50
         4        14        49        50        53
         4        14        49        52        53
         4         8         9        15        50
         4         8        14        15        50
         4         8        14        50        53
         4         8         9        50        51
         4         8        50        51        54
         4         8        50        53        54
         4         4         5         9        51
         4         4         8         9        51
         4         4         8        51        54
         4         4         5        26        51
         4         4        26        27        51
         4         4        27        51        54
         4        13        14        18        52
         4        13        14        52        53
         4        13        52        53        55
         4         7         8        14        53
         4         7        13        14        53
         4         7        13        53        55
         4         7         8        53        54
         4         7        53        54        56
         4         7        53        55        56
         4         3         4         8        54
         4         3         7         8        54
         4         3         7        54        56
         4         3         4        27        54
         4         3        27        28        54
         4         3        28        54        56
         4         6         7        13        55
         4         6         7        55        56
         4         6        55        56        57
         4         2         3         7        56
         4         2         6         7        56
         4         2         6        56        57
         4         2         3        28        56
         4         2        28        29        56
         4         2        29        56        57
         4         1         2         6        57
         4         1         2        29        57
         4         1        22        29        57
         4        22        23        30        58
         4        23        30        58        59
         4        30        58        59        66
         4        23        24        31        59
         4        23        30        31        59
         4        30        31        59        66
         4        24        31        59        60
         4        31        59        60        67
         4        31        59        66        67
         4        24        25        32        60
         4        24        31        32        60
         4        31        32        60        67
         4        25        32        60        61
         4        32        60        61        68
         4        32        60        67        68
         4        25        26        33        61
         4        25        32        33        61
         4        32        33        61        68
         4        26        33        61        62
         4        33        61        62        69
         4        33        61        68        69
         4        26        27        34        62
         4        26        33        34        62
         4        33        34        62        69
         4        27        34        62        63
         4        34        62        63        70
         4        34        62        69        70
         4        27        28        35        63
         4        27        34        35        63
         4        34        35        63        70
         4        28        35        63        64
         4        35        63        64        71
         4        35        63        70        71
         4        28        29        36        64
         4        28        35        36        64
         4        35        36        64        71
         4        29        36        64        65
         4        36        64        65        72
         4        36        64        71        72
         4        22        23        29        65
         4        23        29        36        65
         4        23        36        65        72
         4        22        23        58        65
         4        23        58        59        65
         4        23        59        65        72
         4        30        31        37        66
         4        31        37        66        67
         4        37        66        67        73
         4        31        32        38        67
         4        31        37        38        67
         4        37        38        67        73
         4        32        38        67        68
         4        38        67        68        74
         4        38        67        73        74
         4        32        33        39        68
         4        32        38        39        68
         4        38        39        68        74
         4        33        39        68        69
         4        39        68        69        75
         4        39        68        74        75
         4        33        34        40        69
         4        33        39        40        69
         4        39        40        69        75
         4        34        40        69        70
         4        40        69        70        76
         4        40        69        75        76
         4        34        35        41        70
         4        34        40        41        70
         4        40        41        70        76
         4        35        41        70        71
         4        41        70        71        77
         4        41        70        76        77
         4        35        36        42        71
         4        35        41        42        71
         4        41        42        71        77
         4        36        42        71        72
         4        42        71        72        78
         4        42        71        77        78
         4        23        24        36        72
         4        24        36        42        72
         4        24        42        72        78
         4        23        24        59        72
         4        24        59        60        72
         4        24        60        72        78
         4        37        38        43        73
         4        38        43        73        74
         4        43        73        74        79
         4        38        39        44        74
         4        38        43        44        74
         4        43        44        74        79
         4        39        44        74        75
         4        44        74        75        80
         4        44        74        79        80
         4        39        40        45        75
         4        39        44        45        75
         4        44        45        75        80
         4        40        45        75        76
         4        45        75        76        81
         4        45        75        80        81
         4        40        41        46        76
         4        40        45        46        76
         4        45        46        76        81
         4        41        46        76        77
         4        46        76        77        82
         4        46        76        81        82
         4        41        42        47        77
         4        41        46        47        77
         4        46        47        77        82
         4        42        47        77        78
         4        47        77        78        83
         4        47        77        82        83
         4        24        25        42        78
         4        25        42        47        78
         4        25        47        78        83
         4        24        25        60        78
         4        25        60        61        78
         4        25        61        78        83
         4        43        44        48        79
         4        44        48        79        80
         4        48        79        80        84
         4        44        45        49        80
         4        44        48        49        80
         4        48        49        80        84
         4        45        49        80        81
         4        49        80        81        85
         4        49        80        84        85
         4        45        46        50        81
         4        45        49        50        81
         4        49        50        81        85
         4        46        50        81        82
         4        50        81        82        86
         4        50        81        85        86
         4        46        47        51        82
         4        46        50        51        82
         4        50        51        82        86
         4        47        51        82        83
         4        51        82        83        87
         4        51        82        86        87
         4        25        26        47        83
         4        26        47        51        83
         4        26        51        83        87
         4        25        26        61        83
         4        26        61        62        83
         4        26        62        83        87
         4        48        49        52        84