 running on   12 total cores
 distrk:  each k-point on   12 cores,    1 groups
 distr:  one band on    6 cores,    2 groups
 using from now: INCAR     
 vasp.6.1.2 22Jul20 (build Mar 20 2021 11:25:07) complex                        
  
 POSCAR found type information on POSCAR LiP 
 POSCAR found :  2 types and       8 ions
 scaLAPACK will be used
 -----------------------------------------------------------------------------
|                                                                             |
|               ----> ADVICE to this user running VASP <----                  |
|                                                                             |
|     You have a (more or less) 'small supercell' and for smaller cells       |
|     it is recommended to use the reciprocal-space projection scheme!        |
|     The real-space optimization is not efficient for small cells and it     |
|     is also less accurate ...                                               |
|     Therefore, set LREAL=.FALSE. in the INCAR file.                         |
|                                                                             |
 -----------------------------------------------------------------------------

 LDA part: xc-table for Pade appr. of Perdew
 generate k-points for:    8    9    4
 POSCAR, INCAR and KPOINTS ok, starting setup
 FFT: planning ...
 WAVECAR not read
 entering main loop
       N       E                     dE             d eps       ncg     rms          rms(c)
DAV:   1     0.153669480977E+03    0.15367E+03   -0.12037E+04  9768   0.128E+03
DAV:   2     0.181987708156E+01   -0.15185E+03   -0.14372E+03 10650   0.312E+02
DAV:   3    -0.230220964362E+02   -0.24842E+02   -0.24676E+02 16968   0.738E+01
DAV:   4    -0.261357763259E+02   -0.31137E+01   -0.30900E+01 15178   0.355E+01
DAV:   5    -0.264301852671E+02   -0.29441E+00   -0.29437E+00 15786   0.813E+00    0.148E+01
RMM:   6    -0.268676516699E+02   -0.43747E+00   -0.18881E+00 12133   0.694E+00    0.746E+00
RMM:   7    -0.275727984963E+02   -0.70515E+00   -0.61044E-01 13619   0.481E+00    0.272E+00
RMM:   8    -0.276536832456E+02   -0.80885E-01   -0.49364E-01 15743   0.322E+00    0.119E+00
RMM:   9    -0.276635925519E+02   -0.99093E-02   -0.11400E-01 16458   0.197E+00    0.556E-01
RMM:  10    -0.276727931988E+02   -0.92006E-02   -0.57055E-02 17146   0.119E+00    0.278E-01
RMM:  11    -0.276757491642E+02   -0.29560E-02   -0.22735E-02 17532   0.705E-01    0.214E-01
RMM:  12    -0.276768593550E+02   -0.11102E-02   -0.91089E-03 17227   0.523E-01    0.551E-02
RMM:  13    -0.276775999005E+02   -0.74055E-03   -0.48427E-03 17516   0.332E-01    0.243E-02
RMM:  14    -0.276779245363E+02   -0.32464E-03   -0.27540E-03 16710   0.228E-01    0.271E-02
RMM:  15    -0.276780715515E+02   -0.14702E-03   -0.13225E-03 15166   0.159E-01    0.218E-02
RMM:  16    -0.276781540371E+02   -0.82486E-04   -0.76151E-04 15123   0.118E-01    0.282E-02
RMM:  17    -0.276781963056E+02   -0.42268E-04   -0.44340E-04 14792   0.968E-02    0.234E-02
RMM:  18    -0.276782267416E+02   -0.30436E-04   -0.28810E-04 13194   0.748E-02    0.241E-02
RMM:  19    -0.276782461084E+02   -0.19367E-04   -0.19599E-04 13070   0.634E-02    0.251E-02
RMM:  20    -0.276782591605E+02   -0.13052E-04   -0.13310E-04 12126   0.544E-02    0.252E-02
RMM:  21    -0.276782681458E+02   -0.89853E-05   -0.91128E-05 11551   0.479E-02
   1 F= -.27678268E+02 E0= -.27678268E+02  d E =0.000000E+00  mag=    -0.0000
