 running on   12 total cores
 distrk:  each k-point on   12 cores,    1 groups
 distr:  one band on    6 cores,    2 groups
 using from now: INCAR     
 vasp.6.1.2 22Jul20 (build Mar 20 2021 11:25:07) complex                        
  
 POSCAR found type information on POSCAR LiP 
 POSCAR found :  2 types and       8 ions
 scaLAPACK will be used
 -----------------------------------------------------------------------------
|                                                                             |
|               ----> ADVICE to this user running VASP <----                  |
|                                                                             |
|     You have a (more or less) 'small supercell' and for smaller cells       |
|     it is recommended to use the reciprocal-space projection scheme!        |
|     The real-space optimization is not efficient for small cells and it     |
|     is also less accurate ...                                               |
|     Therefore, set LREAL=.FALSE. in the INCAR file.                         |
|                                                                             |
 -----------------------------------------------------------------------------

 LDA part: xc-table for Pade appr. of Perdew
 -----------------------------------------------------------------------------
|                                                                             |
|           W    W    AA    RRRRR   N    N  II  N    N   GGGG   !!!           |
|           W    W   A  A   R    R  NN   N  II  NN   N  G    G  !!!           |
|           W    W  A    A  R    R  N N  N  II  N N  N  G       !!!           |
|           W WW W  AAAAAA  RRRRR   N  N N  II  N  N N  G  GGG   !            |
|           WW  WW  A    A  R   R   N   NN  II  N   NN  G    G                |
|           W    W  A    A  R    R  N    N  II  N    N   GGGG   !!!           |
|                                                                             |
|     The determination of the symmetry of your systems shows a strong        |
|     dependence on the tolerance parameter SYMPREC. This is often the        |
|     result of "noise" in the structural parameters (lattice vectors         |
|     and/or ionic positions). Set NWRITE=3 for more details.                 |
|                                                                             |
 -----------------------------------------------------------------------------

 generate k-points for:    9    9    4
 POSCAR, INCAR and KPOINTS ok, starting setup
 FFT: planning ...
 WAVECAR not read
 entering main loop
       N       E                     dE             d eps       ncg     rms          rms(c)
DAV:   1     0.157279533927E+03    0.15728E+03   -0.12077E+04  3168   0.129E+03
DAV:   2     0.139000665183E+01   -0.15589E+03   -0.14777E+03  3562   0.318E+02
DAV:   3    -0.235962649918E+02   -0.24986E+02   -0.24828E+02  5526   0.737E+01
DAV:   4    -0.264227403480E+02   -0.28265E+01   -0.28070E+01  4772   0.338E+01
DAV:   5    -0.266654142471E+02   -0.24267E+00   -0.24265E+00  5098   0.773E+00    0.149E+01
RMM:   6    -0.271189692713E+02   -0.45356E+00   -0.18287E+00  3864   0.698E+00    0.754E+00
RMM:   7    -0.278264232547E+02   -0.70745E+00   -0.58947E-01  4276   0.481E+00    0.285E+00
RMM:   8    -0.279049886642E+02   -0.78565E-01   -0.51688E-01  4972   0.327E+00    0.123E+00
RMM:   9    -0.279148002596E+02   -0.98116E-02   -0.11130E-01  5204   0.199E+00    0.581E-01
RMM:  10    -0.279233546415E+02   -0.85544E-02   -0.53661E-02  5485   0.116E+00    0.277E-01
RMM:  11    -0.279260914715E+02   -0.27368E-02   -0.20823E-02  5582   0.679E-01    0.215E-01
RMM:  12    -0.279270673748E+02   -0.97590E-03   -0.80459E-03  5492   0.495E-01    0.542E-02
RMM:  13    -0.279277136287E+02   -0.64625E-03   -0.42209E-03  5587   0.312E-01    0.219E-02
RMM:  14    -0.279279851820E+02   -0.27155E-03   -0.23488E-03  5289   0.211E-01    0.246E-02
RMM:  15    -0.279281104261E+02   -0.12524E-03   -0.11444E-03  4774   0.146E-01    0.203E-02
RMM:  16    -0.279281798467E+02   -0.69421E-04   -0.65513E-04  4694   0.108E-01    0.287E-02
RMM:  17    -0.279282131277E+02   -0.33281E-04   -0.37909E-04  4643   0.890E-02    0.180E-02
RMM:  18    -0.279282371972E+02   -0.24069E-04   -0.24071E-04  4090   0.674E-02    0.158E-02
RMM:  19    -0.279282527805E+02   -0.15583E-04   -0.16715E-04  4107   0.573E-02    0.145E-02
RMM:  20    -0.279282630898E+02   -0.10309E-04   -0.10300E-04  3607   0.474E-02    0.160E-02
RMM:  21    -0.279282693011E+02   -0.62113E-05   -0.75031E-05  3539   0.432E-02
   1 F= -.27928269E+02 E0= -.27928269E+02  d E =0.000000E+00  mag=    -0.0001
