 running on   12 total cores
 distrk:  each k-point on   12 cores,    1 groups
 distr:  one band on    6 cores,    2 groups
 using from now: INCAR     
 vasp.6.1.2 22Jul20 (build Mar 20 2021 11:25:07) complex                        
  
 POSCAR found type information on POSCAR P O 
 POSCAR found :  2 types and      14 ions
 scaLAPACK will be used
 LDA part: xc-table for Pade appr. of Perdew
 -----------------------------------------------------------------------------
|                                                                             |
|           W    W    AA    RRRRR   N    N  II  N    N   GGGG   !!!           |
|           W    W   A  A   R    R  NN   N  II  NN   N  G    G  !!!           |
|           W    W  A    A  R    R  N N  N  II  N N  N  G       !!!           |
|           W WW W  AAAAAA  RRRRR   N  N N  II  N  N N  G  GGG   !            |
|           WW  WW  A    A  R   R   N   NN  II  N   NN  G    G                |
|           W    W  A    A  R    R  N    N  II  N    N   GGGG   !!!           |
|                                                                             |
|     The determination of the symmetry of your systems shows a strong        |
|     dependence on the tolerance parameter SYMPREC. This is often the        |
|     result of "noise" in the structural parameters (lattice vectors         |
|     and/or ionic positions). Set NWRITE=3 for more details.                 |
|                                                                             |
 -----------------------------------------------------------------------------

 generate k-points for:    7    7    7
 POSCAR, INCAR and KPOINTS ok, starting setup
 FFT: planning ...
 WAVECAR not read
 entering main loop
       N       E                     dE             d eps       ncg     rms          rms(c)
DAV:   1     0.543017225907E+03    0.54302E+03   -0.42752E+04 13384   0.142E+03
DAV:   2    -0.722935186159E+02   -0.61531E+03   -0.59851E+03 16672   0.334E+02
DAV:   3    -0.109987787130E+03   -0.37694E+02   -0.37444E+02 16160   0.890E+01
DAV:   4    -0.110573670673E+03   -0.58588E+00   -0.58342E+00 16596   0.118E+01
DAV:   5    -0.110586772631E+03   -0.13102E-01   -0.13078E-01 16216   0.168E+00    0.423E+01
DAV:   6    -0.937224019263E+02    0.16864E+02   -0.56450E+01 15152   0.351E+01    0.212E+01
DAV:   7    -0.976681405752E+02   -0.39457E+01   -0.95016E+00 15796   0.124E+01    0.648E+00
DAV:   8    -0.983743265452E+02   -0.70619E+00   -0.16697E+00 15880   0.529E+00    0.285E+00
DAV:   9    -0.983688196282E+02    0.55069E-02   -0.72869E-02 15872   0.168E+00    0.134E+00
DAV:  10    -0.983683911559E+02    0.42847E-03   -0.28483E-02 18264   0.102E+00    0.402E-01
DAV:  11    -0.983694604996E+02   -0.10693E-02   -0.45106E-03 15516   0.358E-01    0.248E-01
DAV:  12    -0.983698768112E+02   -0.41631E-03   -0.17258E-03 17200   0.226E-01    0.100E-01
DAV:  13    -0.983699507891E+02   -0.73978E-04   -0.13994E-04 15924   0.761E-02    0.443E-02
DAV:  14    -0.983699703709E+02   -0.19582E-04   -0.11363E-04 16736   0.583E-02    0.182E-02
DAV:  15    -0.983699736040E+02   -0.32331E-05   -0.97473E-06 10300   0.201E-02
   1 F= -.98369974E+02 E0= -.98369974E+02  d E =0.000000E+00  mag=    -0.0003
