    8    8    1    2
  0.8569365E+01  0.4384630E-09  0.4871811E-09  0.4871811E-09  0.5000000E-15
  1.000000000000000E-004
  CAR 
 unknown system                          
     36    362     26
 
  0.0000000E+00  0.0000000E+00  0.0000000E+00  0.1388889E-02
    1      -37.487140    -37.487004   1.000000   1.000000
    2      -37.447111    -37.446981   1.000000   1.000000
    3      -13.901915    -13.901941   1.000000   1.000000
    4       -9.160334     -9.160373   1.000000   1.000000
    5       -8.923899     -8.923940   1.000000   1.000000
    6       -8.284873     -8.284916   1.000000   1.000000
    7       -6.237403     -6.237433   1.000000   1.000000
    8       -1.941038     -1.941057   1.000000   1.000000
    9       -1.686337     -1.686357   1.000000   1.000000
   10       -1.058048     -1.058071   1.000000   1.000000
   11        1.559063      1.559045   1.000000   1.000000
   12        3.043782      3.043785   1.000000   1.000000
   13        3.074825      3.074816   1.000000   1.000000
   14        4.028985      4.028980   1.000000   1.000000
   15        4.198591      4.198571   1.000000   1.000000
   16        4.592241      4.592220   1.000000   1.000000
   17        4.842821      4.842811   1.000000   1.000000
   18        5.245307      5.245274   1.000000   1.000000
   19        9.639963      9.640007   0.000000   0.000000
   20       12.329132     12.329154   0.000000   0.000000
   21       14.486730     14.486766   0.000000   0.000000
   22       14.918743     14.918773   0.000000   0.000000
   23       15.118476     15.118474   0.000000   0.000000
   24       15.447640     15.447696   0.000000   0.000000
   25       16.385127     16.384606   0.000000   0.000000
   26       17.003518     17.020863   0.000000   0.000000
 
  0.1111111E+00 -0.1540937E-17  0.2293957E-16  0.2777778E-02
    1      -37.485961    -37.485825   1.000000   1.000000
    2      -37.448183    -37.448053   1.000000   1.000000
    3      -13.816046    -13.816072   1.000000   1.000000
    4       -9.530725     -9.530762   1.000000   1.000000
    5       -8.862910     -8.862951   1.000000   1.000000
    6       -8.333364     -8.333406   1.000000   1.000000
    7       -5.982330     -5.982360   1.000000   1.000000
    8       -1.937327     -1.937347   1.000000   1.000000
    9       -1.677865     -1.677884   1.000000   1.000000
   10       -0.939563     -0.939586   1.000000   1.000000
   11        1.461554      1.461539   1.000000   1.000000
   12        2.985449      2.985442   1.000000   1.000000
   13        3.152471      3.152470   1.000000   1.000000
   14        4.174594      4.174576   1.000000   1.000000
   15        4.243501      4.243477   1.000000   1.000000
   16        4.634809      4.634796   1.000000   1.000000
   17        4.899357      4.899336   1.000000   1.000000
   18        4.936141      4.936123   1.000000   1.000000
   19        9.989814      9.989855   0.000000   0.000000
   20       12.386971     12.386992   0.000000   0.000000
   21       14.284534     14.284530   0.000000   0.000000
   22       14.691372     14.691395   0.000000   0.000000
   23       14.944042     14.944154   0.000000   0.000000
   24       15.823846     15.822568   0.000000   0.000000
   25       16.197063     16.197921   0.000000   0.000000
   26       16.859356     16.829224   0.000000   0.000000
 
  0.2222222E+00  0.6576067E-17  0.3622120E-16  0.2777778E-02
    1      -37.482727    -37.482591   1.000000   1.000000
    2      -37.451230    -37.451101   1.000000   1.000000
    3      -13.562498    -13.562528   1.000000   1.000000
    4      -10.224270    -10.224304   1.000000   1.000000
    5       -8.917584     -8.917625   1.000000   1.000000
    6       -8.411860     -8.411901   1.000000   1.000000
    7       -5.446369     -5.446399   1.000000   1.000000
    8       -1.951137     -1.951157   1.000000   1.000000
    9       -1.577529     -1.577550   1.000000   1.000000
   10       -0.680942     -0.680967   1.000000   1.000000
   11        1.352315      1.352304   1.000000   1.000000
   12        2.931848      2.931838   1.000000   1.000000
   13        3.261940      3.261936   1.000000   1.000000
   14        3.877353      3.877334   1.000000   1.000000
   15        4.287410      4.287384   1.000000   1.000000
   16        4.430330      4.430302   1.000000   1.000000
   17        4.870320      4.870313   1.000000   1.000000
   18        5.324916      5.324901   1.000000   1.000000
   19       10.900051     10.900082   0.000000   0.000000
   20       12.514648     12.514670   0.000000   0.000000
   21       13.455264     13.455267   0.000000   0.000000
   22       14.499505     14.499518   0.000000   0.000000
   23       14.815565     14.815595   0.000000   0.000000
   24       15.788437     15.788197   0.000000   0.000000
   25       16.259241     16.257442   0.000000   0.000000
   26       17.031002     16.985084   0.000000   0.000000
 
  0.3333333E+00 -0.3860946E-16  0.6117199E-16  0.2777778E-02
    1      -37.478028    -37.477889   1.000000   1.000000
    2      -37.455705    -37.455578   1.000000   1.000000
    3      -13.156750    -13.156780   1.000000   1.000000
    4      -11.001960    -11.001992   1.000000   1.000000
    5       -8.996873     -8.996912   1.000000   1.000000
    6       -8.506356     -8.506395   1.000000   1.000000
    7       -4.934172     -4.934200   1.000000   1.000000
    8       -1.991847     -1.991870   1.000000   1.000000
    9       -1.298608     -1.298632   1.000000   1.000000
   10       -0.516049     -0.516074   1.000000   1.000000
   11        1.488345      1.488333   1.000000   1.000000
   12        2.789304      2.789297   1.000000   1.000000
   13        3.006804      3.006792   1.000000   1.000000
   14        3.420680      3.420667   1.000000   1.000000
   15        4.205288      4.205278   1.000000   1.000000
   16        4.317770      4.317741   1.000000   1.000000
   17        5.208679      5.208664   1.000000   1.000000
   18        5.839660      5.839634   1.000000   1.000000
   19       11.980370     11.980388   0.000000   0.000000
   20       12.594198     12.594210   0.000000   0.000000
   21       12.845916     12.845932   0.000000   0.000000
   22       14.188794     14.188803   0.000000   0.000000
   23       14.664939     14.664979   0.000000   0.000000
   24       15.887996     15.889233   0.000000   0.000000
   25       16.415259     16.426504   0.000000   0.000000
   26       17.153411     17.254893   0.000000   0.000000
 
  0.4444444E+00  0.1315213E-16  0.7244240E-16  0.2777778E-02
    1      -37.473427    -37.473284   1.000000   1.000000
    2      -37.460152    -37.460029   1.000000   1.000000
    3      -12.664635    -12.664666   1.000000   1.000000
    4      -11.699739    -11.699769   1.000000   1.000000
    5       -9.037333     -9.037372   1.000000   1.000000
    6       -8.580434     -8.580472   1.000000   1.000000
    7       -4.636558     -4.636584   1.000000   1.000000
    8       -1.978641     -1.978668   1.000000   1.000000
    9       -1.025030     -1.025057   1.000000   1.000000
   10       -0.515600     -0.515624   1.000000   1.000000
   11        1.900389      1.900375   1.000000   1.000000
   12        2.204490      2.204495   1.000000   1.000000
   13        2.593264      2.593245   1.000000   1.000000
   14        3.715248      3.715231   1.000000   1.000000
   15        4.085067      4.085052   1.000000   1.000000
   16        4.165873      4.165865   1.000000   1.000000
   17        5.493872      5.493847   1.000000   1.000000
   18        6.091951      6.091920   0.999998   1.000000
   19       12.146776     12.146785   0.000000   0.000000
   20       12.487531     12.487546   0.000000   0.000000
   21       13.533614     13.533607   0.000000   0.000000
   22       14.018569     14.018578   0.000000   0.000000
   23       14.587999     14.587928   0.000000   0.000000
   24       15.902874     15.903061   0.000000   0.000000
   25       16.518537     16.524481   0.000000   0.000000
   26       17.114370     17.068557   0.000000   0.000000
 
  0.5632360E-17  0.1250000E+00  0.2246651E-16  0.2777778E-02
    1      -37.486353    -37.486217   1.000000   1.000000
    2      -37.447902    -37.447772   1.000000   1.000000
    3      -13.833417    -13.833444   1.000000   1.000000
    4       -9.385059     -9.385096   1.000000   1.000000
    5       -8.963380     -8.963420   1.000000   1.000000
    6       -8.410812     -8.410854   1.000000   1.000000
    7       -5.890182     -5.890213   1.000000   1.000000
    8       -1.888909     -1.888928   1.000000   1.000000
    9       -1.681791     -1.681811   1.000000   1.000000
   10       -0.984650     -0.984673   1.000000   1.000000
   11        1.509874      1.509858   1.000000   1.000000
   12        3.045023      3.045014   1.000000   1.000000
   13        3.155768      3.155765   1.000000   1.000000
   14        3.933980      3.933963   1.000000   1.000000
   15        4.175474      4.175459   1.000000   1.000000
   16        4.526981      4.526971   1.000000   1.000000
   17        4.914250      4.914239   1.000000   1.000000
   18        5.146354      5.146323   1.000000   1.000000
   19        9.959933      9.959974   0.000000   0.000000
   20       12.491661     12.491675   0.000000   0.000000
   21       14.011949     14.011972   0.000000   0.000000
   22       14.370476     14.370483   0.000000   0.000000
   23       15.082569     15.082589   0.000000   0.000000
   24       15.743875     15.743941   0.000000   0.000000
   25       16.441183     16.441130   0.000000   0.000000
   26       17.086845     17.140521   0.000000   0.000000
 
  0.1111111E+00  0.1250000E+00  0.5111305E-16  0.2777778E-02
    1      -37.484505    -37.484368   1.000000   1.000000
    2      -37.449608    -37.449479   1.000000   1.000000
    3      -13.694393    -13.694420   1.000000   1.000000
    4       -9.878466     -9.878502   1.000000   1.000000
    5       -8.897469     -8.897510   1.000000   1.000000
    6       -8.501029     -8.501070   1.000000   1.000000
    7       -5.509704     -5.509736   1.000000   1.000000
    8       -1.825124     -1.825144   1.000000   1.000000
    9       -1.628319     -1.628340   1.000000   1.000000
   10       -0.877295     -0.877319   1.000000   1.000000
   11        1.444026      1.444014   1.000000   1.000000
   12        2.932320      2.932312   1.000000   1.000000
   13        3.200839      3.200830   1.000000   1.000000
   14        3.920589      3.920572   1.000000   1.000000
   15        4.262299      4.262275   1.000000   1.000000
   16        4.595518      4.595499   1.000000   1.000000
   17        4.797646      4.797634   1.000000   1.000000
   18        5.041118      5.041105   1.000000   1.000000
   19       10.521389     10.521425   0.000000   0.000000
   20       12.466889     12.466906   0.000000   0.000000
   21       13.654745     13.654752   0.000000   0.000000
   22       14.279649     14.279663   0.000000   0.000000
   23       15.241254     15.241246   0.000000   0.000000
   24       15.621320     15.621105   0.000000   0.000000
   25       16.025797     16.025537   0.000000   0.000000
   26       17.095023     17.119113   0.000000   0.000000
 
  0.2222222E+00  0.1250000E+00  0.1828626E-16  0.2777778E-02
    1      -37.480785    -37.480648   1.000000   1.000000
    2      -37.453087    -37.452959   1.000000   1.000000
    3      -13.391782    -13.391808   1.000000   1.000000
    4      -10.574080    -10.574113   1.000000   1.000000
    5       -8.975417     -8.975457   1.000000   1.000000
    6       -8.548821     -8.548861   1.000000   1.000000
    7       -5.011954     -5.011984   1.000000   1.000000
    8       -1.935742     -1.935763   1.000000   1.000000
    9       -1.381498     -1.381520   1.000000   1.000000
   10       -0.631670     -0.631696   1.000000   1.000000
   11        1.456868      1.456858   1.000000   1.000000
   12        2.797864      2.797855   1.000000   1.000000
   13        2.948770      2.948762   1.000000   1.000000
   14        3.721446      3.721433   1.000000   1.000000
   15        4.172631      4.172607   1.000000   1.000000
   16        4.519073      4.519045   1.000000   1.000000
   17        5.030942      5.030931   1.000000   1.000000
   18        5.435100      5.435082   1.000000   1.000000
   19       11.490127     11.490155   0.000000   0.000000
   20       12.448030     12.448051   0.000000   0.000000
   21       13.088383     13.088386   0.000000   0.000000
   22       14.362175     14.362212   0.000000   0.000000
   23       14.751411     14.751428   0.000000   0.000000
   24       15.494224     15.494176   0.000000   0.000000
   25       16.046901     16.044684   0.000000   0.000000
   26       17.715035     17.311867   0.000000   0.000000
 
  0.3333333E+00  0.1250000E+00  0.1265038E-15  0.2777778E-02
    1      -37.476027    -37.475887   1.000000   1.000000
    2      -37.457668    -37.457542   1.000000   1.000000
    3      -12.944886    -12.944914   1.000000   1.000000
    4      -11.310796    -11.310828   1.000000   1.000000
    5       -9.043451     -9.043490   1.000000   1.000000
    6       -8.618676     -8.618714   1.000000   1.000000
    7       -4.606362     -4.606390   1.000000   1.000000
    8       -2.029575     -2.029600   1.000000   1.000000
    9       -1.089254     -1.089278   1.000000   1.000000
   10       -0.502548     -0.502574   1.000000   1.000000
   11        1.707422      1.707411   1.000000   1.000000
   12        2.214825      2.214821   1.000000   1.000000
   13        2.861073      2.861061   1.000000   1.000000
   14        3.574952      3.574934   1.000000   1.000000
   15        4.159925      4.159914   1.000000   1.000000
   16        4.474049      4.474023   1.000000   1.000000
   17        5.273052      5.273034   1.000000   1.000000
   18        5.870793      5.870765   1.000000   1.000000
   19       12.153772     12.153796   0.000000   0.000000
   20       12.589270     12.589273   0.000000   0.000000
   21       12.916656     12.916669   0.000000   0.000000
   22       14.131269     14.131232   0.000000   0.000000
   23       14.559368     14.559376   0.000000   0.000000
   24       15.587996     15.588032   0.000000   0.000000
   25       16.392885     16.388615   0.000000   0.000000
   26       17.055896     17.156939   0.000000   0.000000
 
  0.4444444E+00  0.1250000E+00  0.2161132E-15  0.2777778E-02
    1      -37.472432    -37.472287   1.000000   1.000000
    2      -37.461115    -37.460994   1.000000   1.000000
    3      -12.475014    -12.475044   1.000000   1.000000
    4      -11.899754    -11.899783   1.000000   1.000000
    5       -9.068653     -9.068691   1.000000   1.000000
    6       -8.655036     -8.655074   1.000000   1.000000
    7       -4.450157     -4.450183   1.000000   1.000000
    8       -2.113706     -2.113735   1.000000   1.000000
    9       -0.945101     -0.945127   1.000000   1.000000
   10       -0.440251     -0.440276   1.000000   1.000000
   11        1.702628      1.702629   1.000000   1.000000
   12        2.241741      2.241725   1.000000   1.000000
   13        2.654424      2.654412   1.000000   1.000000
   14        3.692966      3.692945   1.000000   1.000000
   15        4.159829      4.159821   1.000000   1.000000
   16        4.333901      4.333883   1.000000   1.000000
   17        5.442583      5.442559   1.000000   1.000000
   18        6.033412      6.033381   1.000000   1.000000
   19       12.001596     12.001595   0.000000   0.000000
   20       12.620642     12.620647   0.000000   0.000000
   21       13.415337     13.415336   0.000000   0.000000
   22       14.113150     14.112877   0.000000   0.000000
   23       14.690619     14.690704   0.000000   0.000000
   24       15.805845     15.805813   0.000000   0.000000
   25       16.468392     16.442930   0.000000   0.000000
   26       16.998881     17.077924   0.000000   0.000000
 
 -0.4444444E+00  0.1250000E+00 -0.4646777E-17  0.2777778E-02
    1      -37.474495    -37.474354   1.000000   1.000000
    2      -37.459112    -37.458987   1.000000   1.000000
    3      -12.771522    -12.771551   1.000000   1.000000
    4      -11.529915    -11.529946   1.000000   1.000000
    5       -9.058931     -9.058969   1.000000   1.000000
    6       -8.607789     -8.607828   1.000000   1.000000
    7       -4.606437     -4.606464   1.000000   1.000000
    8       -2.237693     -2.237717   1.000000   1.000000
    9       -1.038414     -1.038439   1.000000   1.000000
   10       -0.350422     -0.350447   1.000000   1.000000
   11        1.531263      1.531252   1.000000   1.000000
   12        2.378270      2.378269   1.000000   1.000000
   13        2.968105      2.968085   1.000000   1.000000
   14        3.845024      3.845004   1.000000   1.000000
   15        4.010799      4.010778   1.000000   1.000000
   16        4.295434      4.295429   1.000000   1.000000
   17        5.373013      5.372993   1.000000   1.000000
   18        5.984734      5.984705   1.000001   1.000000
   19       12.018688     12.018695   0.000000   0.000000
   20       12.587024     12.587033   0.000000   0.000000
   21       13.105388     13.105391   0.000000   0.000000
   22       14.181491     14.181457   0.000000   0.000000
   23       14.966297     14.966344   0.000000   0.000000
   24       15.963122     15.962899   0.000000   0.000000
   25       16.309176     16.266136   0.000000   0.000000
   26       16.979494     16.929250   0.000000   0.000000
 
 -0.3333333E+00  0.1250000E+00  0.1064608E-16  0.2777778E-02
    1      -37.479242    -37.479104   1.000000   1.000000
    2      -37.454499    -37.454372   1.000000   1.000000
    3      -13.251464    -13.251493   1.000000   1.000000
    4      -10.799991    -10.800025   1.000000   1.000000
    5       -9.007139     -9.007178   1.000000   1.000000
    6       -8.504645     -8.504685   1.000000   1.000000
    7       -5.028046     -5.028075   1.000000   1.000000
    8       -2.303958     -2.303976   1.000000   1.000000
    9       -1.211685     -1.211709   1.000000   1.000000
   10       -0.392447     -0.392473   1.000000   1.000000
   11        1.229167      1.229158   1.000000   1.000000
   12        2.981489      2.981477   1.000000   1.000000
   13        3.304458      3.304443   1.000000   1.000000
   14        3.634973      3.634962   1.000000   1.000000
   15        4.129185      4.129156   1.000000   1.000000
   16        4.334396      4.334382   1.000000   1.000000
   17        5.115148      5.115136   1.000000   1.000000
   18        5.703750      5.703728   1.000000   1.000000
   19       11.595012     11.595033   0.000000   0.000000
   20       12.722732     12.722746   0.000000   0.000000
   21       12.944203     12.944202   0.000000   0.000000
   22       14.253498     14.253537   0.000000   0.000000
   23       14.917996     14.917992   0.000000   0.000000
   24       15.867406     15.868647   0.000000   0.000000
   25       16.274174     16.290215   0.000000   0.000000
   26       17.198808     17.006860   0.000000   0.000000
 
 -0.2222222E+00  0.1250000E+00  0.7061989E-17  0.2777778E-02
    1      -37.483420    -37.483283   1.000000   1.000000
    2      -37.450547    -37.450418   1.000000   1.000000
    3      -13.605644    -13.605673   1.000000   1.000000
    4      -10.076113    -10.076149   1.000000   1.000000
    5       -8.941259     -8.941299   1.000000   1.000000
    6       -8.402715     -8.402757   1.000000   1.000000
    7       -5.544617     -5.544647   1.000000   1.000000
    8       -2.258609     -2.258626   1.000000   1.000000
    9       -1.389404     -1.389426   1.000000   1.000000
   10       -0.612275     -0.612301   1.000000   1.000000
   11        1.218898      1.218888   1.000000   1.000000
   12        3.141918      3.141905   1.000000   1.000000
   13        3.288723      3.288715   1.000000   1.000000
   14        3.956043      3.956026   1.000000   1.000000
   15        4.241563      4.241540   1.000000   1.000000
   16        4.506801      4.506777   1.000000   1.000000
   17        4.850139      4.850129   1.000000   1.000000
   18        5.266763      5.266754   1.000000   1.000000
   19       10.666135     10.666167   0.000000   0.000000
   20       12.651383     12.651396   0.000000   0.000000
   21       13.664112     13.664118   0.000000   0.000000
   22       14.440278     14.440299   0.000000   0.000000
   23       14.898589     14.898564   0.000000   0.000000
   24       15.528778     15.527656   0.000000   0.000000
   25       16.522710     16.434446   0.000000   0.000000
   26       17.832097     16.860630   0.000000   0.000000
 
 -0.1111111E+00  0.1250000E+00  0.4994234E-16  0.2777778E-02
    1      -37.485947    -37.485811   1.000000   1.000000
    2      -37.448199    -37.448069   1.000000   1.000000
    3      -13.803141    -13.803169   1.000000   1.000000
    4       -9.494724     -9.494761   1.000000   1.000000
    5       -8.963119     -8.963158   1.000000   1.000000
    6       -8.347266     -8.347308   1.000000   1.000000
    7       -5.912073     -5.912103   1.000000   1.000000
    8       -2.116868     -2.116885   1.000000   1.000000
    9       -1.534457     -1.534477   1.000000   1.000000
   10       -0.871695     -0.871719   1.000000   1.000000
   11        1.406635      1.406620   1.000000   1.000000
   12        3.088769      3.088761   1.000000   1.000000
   13        3.202877      3.202870   1.000000   1.000000
   14        3.945538      3.945521   1.000000   1.000000
   15        4.219610      4.219588   1.000000   1.000000
   16        4.561968      4.561961   1.000000   1.000000
   17        4.944870      4.944858   1.000000   1.000000
   18        5.140711      5.140685   1.000000   1.000000
   19       10.020464     10.020510   0.000000   0.000000
   20       12.548630     12.548643   0.000000   0.000000
   21       14.019447     14.019474   0.000000   0.000000
   22       14.740998     14.741006   0.000000   0.000000
   23       14.891291     14.891571   0.000000   0.000000
   24       15.338555     15.338584   0.000000   0.000000
   25       16.654636     16.657723   0.000000   0.000000
   26       17.312417     17.257720   0.000000   0.000000
 
  0.1126472E-16  0.2500000E+00  0.4493301E-16  0.2777778E-02
    1      -37.484252    -37.484116   1.000000   1.000000
    2      -37.449897    -37.449767   1.000000   1.000000
    3      -13.646330    -13.646357   1.000000   1.000000
    4       -9.974580     -9.974615   1.000000   1.000000
    5       -8.998187     -8.998227   1.000000   1.000000
    6       -8.550197     -8.550237   1.000000   1.000000
    7       -5.254380     -5.254412   1.000000   1.000000
    8       -1.760085     -1.760107   1.000000   1.000000
    9       -1.605547     -1.605568   1.000000   1.000000
   10       -0.840523     -0.840546   1.000000   1.000000
   11        1.476560      1.476546   1.000000   1.000000
   12        3.013159      3.013134   1.000000   1.000000
   13        3.056183      3.056171   1.000000   1.000000
   14        3.568112      3.568113   1.000000   1.000000
   15        4.208069      4.208047   1.000000   1.000000
   16        4.568708      4.568703   1.000000   1.000000
   17        4.856508      4.856490   1.000000   1.000000
   18        5.314792      5.314772   1.000000   1.000000
   19       10.814014     10.814044   0.000000   0.000000
   20       12.462428     12.462431   0.000000   0.000000
   21       13.312870     13.312901   0.000000   0.000000
   22       13.887751     13.887759   0.000000   0.000000
   23       15.084070     15.084135   0.000000   0.000000
   24       15.919100     15.919093   0.000000   0.000000
   25       16.402420     16.402486   0.000000   0.000000
   26       17.176747     17.226577   0.000000   0.000000
 
  0.1111111E+00  0.2500000E+00  0.4951974E-16  0.2777778E-02
    1      -37.482118    -37.481981   1.000000   1.000000
    2      -37.451868    -37.451739   1.000000   1.000000
    3      -13.473188    -13.473213   1.000000   1.000000
    4      -10.406684    -10.406718   1.000000   1.000000
    5       -8.987210     -8.987249   1.000000   1.000000
    6       -8.614664     -8.614704   1.000000   1.000000
    7       -4.931652     -4.931682   1.000000   1.000000
    8       -1.857249     -1.857270   1.000000   1.000000
    9       -1.342306     -1.342330   1.000000   1.000000
   10       -0.745309     -0.745334   1.000000   1.000000
   11        1.494578      1.494567   1.000000   1.000000
   12        2.746753      2.746736   1.000000   1.000000
   13        2.942324      2.942316   1.000000   1.000000
   14        3.624977      3.624971   1.000000   1.000000
   15        4.223736      4.223714   1.000000   1.000000
   16        4.512697      4.512674   1.000000   1.000000
   17        4.980730      4.980721   1.000000   1.000000
   18        5.361040      5.361020   1.000000   1.000000
   19       11.429044     11.429069   0.000000   0.000000
   20       12.331566     12.331579   0.000000   0.000000
   21       13.044118     13.044138   0.000000   0.000000
   22       13.922996     13.922991   0.000000   0.000000
   23       15.204807     15.204795   0.000000   0.000000
   24       15.664731     15.664829   0.000000   0.000000
   25       16.031821     16.032849   0.000000   0.000000
   26       17.123339     17.176042   0.000000   0.000000
 
  0.2222222E+00  0.2500000E+00  0.1342015E-15  0.2777778E-02
    1      -37.478463    -37.478324   1.000000   1.000000
    2      -37.455276    -37.455148   1.000000   1.000000
    3      -13.146845    -13.146872   1.000000   1.000000
    4      -10.981255    -10.981288   1.000000   1.000000
    5       -9.084121     -9.084159   1.000000   1.000000
    6       -8.661950     -8.661989   1.000000   1.000000
    7       -4.519664     -4.519694   1.000000   1.000000
    8       -2.058317     -2.058342   1.000000   1.000000
    9       -1.097736     -1.097759   1.000000   1.000000
   10       -0.511027     -0.511055   1.000000   1.000000
   11        1.560309      1.560299   1.000000   1.000000
   12        2.197929      2.197923   1.000000   1.000000
   13        2.860956      2.860944   1.000000   1.000000
   14        3.828910      3.828896   1.000000   1.000000
   15        4.137264      4.137240   1.000000   1.000000
   16        4.640346      4.640321   1.000000   1.000000
   17        5.169743      5.169727   1.000000   1.000000
   18        5.541555      5.541534   1.000000   1.000000
   19       11.996039     11.996059   0.000000   0.000000
   20       12.478472     12.478495   0.000000   0.000000
   21       12.768723     12.768739   0.000000   0.000000
   22       13.891948     13.891936   0.000000   0.000000
   23       14.971620     14.971643   0.000000   0.000000
   24       15.496828     15.496807   0.000000   0.000000
   25       16.014281     16.014549   0.000000   0.000000
   26       17.057680     17.085969   0.000000   0.000000
 
  0.3333333E+00  0.2500000E+00  0.1640800E-15  0.2777778E-02
    1      -37.474295    -37.474154   1.000000   1.000000
    2      -37.459326    -37.459202   1.000000   1.000000
    3      -12.683743    -12.683772   1.000000   1.000000
    4      -11.610842    -11.610874   1.000000   1.000000
    5       -9.132521     -9.132558   1.000000   1.000000
    6       -8.741042     -8.741080   1.000000   1.000000
    7       -4.184592     -4.184619   1.000000   1.000000
    8       -2.313473     -2.313503   1.000000   1.000000
    9       -0.898222     -0.898245   1.000000   1.000000
   10       -0.370162     -0.370188   1.000000   1.000000
   11        1.524431      1.524432   1.000000   1.000000
   12        2.111062      2.111051   1.000000   1.000000
   13        2.756160      2.756147   1.000000   1.000000
   14        3.842684      3.842663   1.000000   1.000000
   15        4.259125      4.259107   1.000000   1.000000
   16        4.706073      4.706048   1.000000   1.000000
   17        5.192219      5.192202   1.000000   1.000000
   18        5.792721      5.792694   1.000000   1.000000
   19       12.076047     12.076059   0.000000   0.000000
   20       12.483091     12.483103   0.000000   0.000000
   21       13.229307     13.229318   0.000000   0.000000
   22       13.652534     13.652532   0.000000   0.000000
   23       14.897333     14.897364   0.000000   0.000000
   24       15.748401     15.748423   0.000000   0.000000
   25       16.117957     16.118135   0.000000   0.000000
   26       17.020225     16.980648   0.000000   0.000000
 
  0.4444444E+00  0.2500000E+00  0.3657252E-16  0.2777778E-02
    1      -37.472234    -37.472090   1.000000   1.000000
    2      -37.461309    -37.461188   1.000000   1.000000
    3      -12.263055    -12.263085   1.000000   1.000000
    4      -12.070024    -12.070054   1.000000   1.000000
    5       -9.124920     -9.124957   1.000000   1.000000
    6       -8.777647     -8.777683   1.000000   1.000000
    7       -4.120987     -4.121014   1.000000   1.000000
    8       -2.586985     -2.587013   1.000000   1.000000
    9       -0.822602     -0.822624   1.000000   1.000000
   10       -0.219017     -0.219043   1.000000   1.000000
   11        1.484859      1.484857   1.000000   1.000000
   12        2.236370      2.236357   1.000000   1.000000
   13        2.835110      2.835096   1.000000   1.000000
   14        3.664777      3.664755   1.000000   1.000000
   15        4.453081      4.453066   1.000000   1.000000
   16        4.592129      4.592107   1.000000   1.000000
   17        5.301047      5.301027   1.000000   1.000000
   18        5.870805      5.870776   1.000000   1.000000
   19       12.008898     12.008935   0.000000   0.000000
   20       12.491670     12.491664   0.000000   0.000000
   21       13.221654     13.221671   0.000000   0.000000
   22       13.969136     13.969109   0.000000   0.000000
   23       15.126022     15.126553   0.000000   0.000000
   24       15.638448     15.636599   0.000000   0.000000
   25       16.273029     16.268949   0.000000   0.000000