    3    3    1    2
  0.8679406E+01  0.3393128E-09  0.3294299E-09  0.3294299E-09  0.5000000E-15
  1.000000000000000E-004
  CAR 
 unknown system                          
     12    476     12
 
  0.0000000E+00  0.0000000E+00  0.0000000E+00  0.5787037E-03
    1      -42.051928    -42.049324   1.000000   1.000000
    2      -41.775352    -41.772690   1.000000   1.000000
    3      -14.296425    -14.296920   1.000000   1.000000
    4        1.013297      1.012707   1.000000   1.000000
    5        1.080430      1.079866   1.000000   1.000000
    6        1.100041      1.099464   0.999993   1.000000
    7        5.928671      5.928727   0.000000   0.000000
    8       12.299901     12.300295   0.000000   0.000000
    9       12.746572     12.747231   0.000000   0.000000
   10       13.027719     13.028147   0.000000   0.000000
   11       19.249776     19.244714   0.000000   0.000000
   12       19.413254     19.412003   0.000000   0.000000
 
  0.8333333E-01  0.3801604E-17 -0.3705034E-15  0.1157407E-02
    1      -42.046593    -42.043988   1.000000   1.000000
    2      -41.779454    -41.776792   1.000000   1.000000
    3      -14.284120    -14.284619   1.000000   1.000000
    4        0.782851      0.782298   1.000000   1.000000
    5        1.051121      1.050562   1.000000   1.000000
    6        1.068976      1.068414   0.999999   1.000000
    7        6.135766      6.135779   0.000000   0.000000
    8       12.318246     12.318612   0.000000   0.000000
    9       12.845530     12.846184   0.000000   0.000000
   10       13.112768     13.113185   0.000000   0.000000
   11       18.701280     18.701219   0.000000   0.000000
   12       18.887617     18.887572   0.000000   0.000000
 
  0.1666667E+00 -0.1056857E-17 -0.4201794E-14  0.1157407E-02
    1      -42.031117    -42.028508   1.000000   1.000000
    2      -41.791634    -41.788975   1.000000   1.000000
    3      -14.249986    -14.250497   1.000000   1.000000
    4        0.210680      0.210218   1.000000   1.000000
    5        0.973121      0.972574   1.000000   1.000000
    6        1.000108      0.999560   1.000000   1.000000
    7        6.664954      6.664888   0.000000   0.000000
    8       12.305927     12.306268   0.000000   0.000000
    9       13.081775     13.082399   0.000000   0.000000
   10       13.293432     13.293803   0.000000   0.000000
   11       17.842877     17.842659   0.000000   0.000000
   12       17.984377     17.984515   0.000000   0.000000
 
  0.2500000E+00 -0.3051238E-17 -0.4559562E-14  0.1157407E-02
    1      -42.006867    -42.004253   1.000000   1.000000
    2      -41.811410    -41.808755   1.000000   1.000000
    3      -14.201813    -14.202339   1.000000   1.000000
    4       -0.461499     -0.461877   1.000000   1.000000
    5        0.871115      0.870582   1.000000   1.000000
    6        0.911734      0.911202   1.000000   1.000000
    7        7.380432      7.380298   0.000000   0.000000
    8       12.122151     12.122429   0.000000   0.000000
    9       13.280591     13.281144   0.000000   0.000000
   10       13.380813     13.381091   0.000000   0.000000
   11       17.503043     17.503272   0.000000   0.000000
   12       17.508097     17.508045   0.000000   0.000000
 
  0.3333333E+00  0.1321913E-16  0.5764179E-14  0.1157407E-02
    1      -41.976033    -41.973412   1.000000   1.000000
    2      -41.837859    -41.835209   1.000000   1.000000
    3      -14.151639    -14.152184   1.000000   1.000000
    4       -1.052536     -1.052854   1.000000   1.000000
    5        0.773898      0.773379   1.000000   1.000000
    6        0.827927      0.827410   1.000000   1.000000
    7        8.207808      8.207630   0.000000   0.000000
    8       11.673850     11.674057   0.000000   0.000000
    9       13.274962     13.275136   0.000000   0.000000
   10       13.289599     13.290056   0.000000   0.000000
   11       17.593637     17.594086   0.000000   0.000000
   12       17.747205     17.747260   0.000000   0.000000
 
  0.4166667E+00  0.1644247E-16  0.1931746E-14  0.1157407E-02
    1      -41.941082    -41.938453   1.000000   1.000000
    2      -41.869574    -41.866930   1.000000   1.000000
    3      -14.113436    -14.113994   1.000000   1.000000
    4       -1.449221     -1.449502   1.000000   1.000000
    5        0.705509      0.704999   1.000000   1.000000
    6        0.769158      0.768651   1.000000   1.000000
    7        9.096614      9.096383   0.000000   0.000000
    8       10.984387     10.984562   0.000000   0.000000
    9       13.109138     13.109248   0.000000   0.000000
   10       13.184563     13.184953   0.000000   0.000000
   11       17.986717     17.987263   0.000000   0.000000
   12       18.219995     18.220118   0.000000   0.000000
 
  0.5000000E+00  0.7590640E-17  0.1553079E-14  0.5787037E-03
    1      -41.905621    -41.902985   1.000000   1.000000
    2      -41.903853    -41.901217   1.000000   1.000000
    3      -14.099154    -14.099719   1.000000   1.000000
    4       -1.588316     -1.588585   1.000000   1.000000
    5        0.681027      0.680520   1.000000   1.000000
    6        0.748159      0.747655   1.000000   1.000000
    7        9.791779      9.790993   0.000000   0.000000
    8       10.348171     10.348621   0.000000   0.000000
    9       13.036802     13.036892   0.000000   0.000000
   10       13.128504     13.128872   0.000000   0.000000
   11       18.202963     18.203310   0.000000   0.000000
   12       18.456906     18.457067   0.000000   0.000000
 
 -0.7381679E-17  0.8333333E-01 -0.4749823E-14  0.2314815E-02
    1      -42.046478    -42.043872   1.000000   1.000000
    2      -41.779280    -41.776618   1.000000   1.000000
    3      -14.282607    -14.283108   1.000000   1.000000
    4        0.850982      0.850452   1.000000   1.000000
    5        0.984417      0.983841   1.000000   1.000000
    6        1.060905      1.060339   1.000000   1.000000
    7        6.121070      6.121087   0.000000   0.000000
    8       12.395502     12.395877   0.000000   0.000000
    9       12.808470     12.809102   0.000000   0.000000
   10       13.058997     13.059419   0.000000   0.000000
   11       18.467568     18.467470   0.000000   0.000000
   12       18.864607     18.863999   0.000000   0.000000
 
  0.8333333E-01  0.8333333E-01 -0.5121260E-14  0.2314815E-02
    1      -42.045123    -42.042517   1.000000   1.000000
    2      -41.780304    -41.777643   1.000000   1.000000
    3      -14.279265    -14.279768   1.000000   1.000000
    4        0.851387      0.850850   1.000000   1.000000
    5        0.955597      0.955038   1.000000   1.000000
    6        1.002445      1.001885   1.000001   1.000000
    7        6.171921      6.171928   0.000000   0.000000
    8       12.413082     12.413429   0.000000   0.000000
    9       12.812933     12.813562   0.000000   0.000000
   10       13.145700     13.146139   0.000000   0.000000
   11       17.490771     17.490781   0.000000   0.000000
   12       19.775642     19.774477   0.000000   0.000000
 
  0.1666667E+00  0.8333333E-01  0.1748424E-14  0.2314815E-02
    1      -42.033547    -42.030938   1.000000   1.000000
    2      -41.789282    -41.786623   1.000000   1.000000
    3      -14.253132    -14.253642   1.000000   1.000000
    4        0.400984      0.400501   1.000000   1.000000
    5        0.894008      0.893476   1.000000   1.000000
    6        0.950441      0.949897   1.000000   1.000000
    7        6.554984      6.554921   0.000000   0.000000
    8       12.427229     12.427544   0.000000   0.000000
    9       12.958817     12.959392   0.000000   0.000000
   10       13.413384     13.413857   0.000000   0.000000
   11       16.562526     16.562745   0.000000   0.000000
   12       19.693160     19.693543   0.000000   0.000000
 
  0.2500000E+00  0.8333333E-01  0.1390655E-14  0.2314815E-02
    1      -42.012926    -42.010313   1.000000   1.000000
    2      -41.805838    -41.803181   1.000000   1.000000
    3      -14.210208    -14.210732   1.000000   1.000000
    4       -0.229068     -0.229471   1.000000   1.000000
    5        0.786676      0.786158   1.000000   1.000000
    6        0.886240      0.885713   1.000000   1.000000
    7        7.155162      7.155025   0.000000   0.000000
    8       12.284769     12.285034   0.000000   0.000000
    9       13.129500     13.129977   0.000000   0.000000
   10       13.687395     13.687973   0.000000   0.000000
   11       16.126805     16.127126   0.000000   0.000000
   12       19.131521     19.131716   0.000000   0.000000
 
  0.3333333E+00  0.8333333E-01  0.1002845E-14  0.2314815E-02
    1      -41.985088    -41.982469   1.000000   1.000000
    2      -41.829263    -41.826611   1.000000   1.000000
    3      -14.160772    -14.161314   1.000000   1.000000
    4       -0.839417     -0.839755   1.000000   1.000000
    5        0.697736      0.697231   1.000000   1.000000
    6        0.791656      0.791148   1.000000   1.000000
    7        7.888914      7.888717   0.000000   0.000000
    8       11.878892     11.879105   0.000000   0.000000
    9       13.203416     13.203783   0.000000   0.000000
   10       13.700271     13.700718   0.000000   0.000000
   11       16.416643     16.416832   0.000000   0.000000
   12       18.885073     18.885185   0.000000   0.000000
 
  0.4166667E+00  0.8333333E-01 -0.2841180E-14  0.2314815E-02
    1      -41.952345    -41.949719   1.000000   1.000000
    2      -41.858313    -41.855667   1.000000   1.000000
    3      -14.118027    -14.118584   1.000000   1.000000
    4       -1.297575     -1.297870   1.000000   1.000000
    5        0.642412      0.641916   1.000000   1.000000
    6        0.700642      0.700148   1.000000   1.000000
    7        8.699091      8.698832   0.000000   0.000000
    8       11.254167     11.254359   0.000000   0.000000
    9       13.186818     13.187092   0.000000   0.000000
   10       13.509461     13.510013   0.000000   0.000000
   11       17.195432     17.195866   0.000000   0.000000
   12       18.804985     18.805240   0.000000   0.000000
 
  0.5000000E+00  0.8333333E-01 -0.3159764E-14  0.2314815E-02
    1      -41.917307    -41.914673   1.000000   1.000000
    2      -41.891417    -41.888778   1.000000   1.000000
    3      -14.094911    -14.095476   1.000000   1.000000
    4       -1.523969     -1.524244   1.000000   1.000000
    5        0.594202      0.593716   1.000000   1.000000
    6        0.675219      0.674725   1.000000   1.000000
    7        9.447077      9.446605   0.000000   0.000000
    8       10.582375     10.582703   0.000000   0.000000
    9       13.186245     13.186448   0.000000   0.000000
   10       13.335456     13.335844   0.000000   0.000000
   11       18.021843     18.022565   0.000000   0.000000
   12       18.501719     18.502202   0.000000   0.000000
 
 -0.4166667E+00  0.8333333E-01 -0.5692407E-14  0.2314815E-02
    1      -41.926534    -41.923902   1.000000   1.000000
    2      -41.882494    -41.879853   1.000000   1.000000
    3      -14.098778    -14.099343   1.000000   1.000000
    4       -1.483224     -1.483502   1.000000   1.000000
    5        0.562358      0.561877   1.000000   1.000000
    6        0.723036      0.722535   1.000000   1.000000
    7        9.303166      9.302779   0.000000   0.000000
    8       10.707067     10.707349   0.000000   0.000000
    9       13.227588     13.227771   0.000000   0.000000
   10       13.339787     13.340127   0.000000   0.000000
   11       17.731999     17.732401   0.000000   0.000000
   12       18.623818     18.624246   0.000000   0.000000
 
 -0.3333333E+00  0.8333333E-01 -0.2471645E-14  0.2314815E-02
    1      -41.961302    -41.958678   1.000000   1.000000
    2      -41.850348    -41.847700   1.000000   1.000000
    3      -14.128582    -14.129135   1.000000   1.000000
    4       -1.182208     -1.182513   1.000000   1.000000
    5        0.577462      0.576977   1.000000   1.000000
    6        0.810707      0.810193   1.000000   1.000000
    7        8.504576      8.504323   0.000000   0.000000
    8       11.388592     11.388798   0.000000   0.000000
    9       13.226783     13.227092   0.000000   0.000000
   10       13.578753     13.579089   0.000000   0.000000
   11       16.827667     16.827992   0.000000   0.000000
   12       18.810006     18.810406   0.000000   0.000000
 
 -0.2500000E+00  0.8333333E-01  0.6348159E-15  0.2314815E-02
    1      -41.993066    -41.990448   1.000000   1.000000
    2      -41.822606    -41.819953   1.000000   1.000000
    3      -14.174587    -14.175124   1.000000   1.000000
    4       -0.670461     -0.670816   1.000000   1.000000
    5        0.641715      0.641218   1.000000   1.000000
    6        0.914136      0.913606   1.000000   1.000000
    7        7.699473      7.699283   0.000000   0.000000
    8       11.962284     11.962526   0.000000   0.000000
    9       13.181834     13.182194   0.000000   0.000000
   10       13.778111     13.778572   0.000000   0.000000
   11       16.229104     16.229273   0.000000   0.000000
   12       18.801809     18.802102   0.000000   0.000000
 
 -0.1666667E+00  0.8333333E-01  0.3255382E-15  0.2314815E-02
    1      -42.019192    -42.016581   1.000000   1.000000
    2      -41.800930    -41.798273   1.000000   1.000000
    3      -14.223464    -14.223984   1.000000   1.000000
    4       -0.045245     -0.045669   1.000000   1.000000
    5        0.744295      0.743780   1.000000   1.000000
    6        1.006106      1.005560   1.000000   1.000000
    7        6.986379      6.986256   0.000000   0.000000
    8       12.307008     12.307315   0.000000   0.000000
    9       13.058855     13.059267   0.000000   0.000000
   10       13.590836     13.591395   0.000000   0.000000
   11       16.469771     16.469824   0.000000   0.000000
   12       18.827663     18.827964   0.000000   0.000000
 
 -0.8333333E-01  0.8333333E-01  0.3615690E-14  0.2314815E-02
    1      -42.037593    -42.034985   1.000000   1.000000
    2      -41.786257    -41.783596   1.000000   1.000000
    3      -14.262559    -14.263065   1.000000   1.000000
    4        0.533255      0.532756   1.000000   1.000000
    5        0.868255      0.867716   1.000000   1.000000
    6        1.059998      1.059440   1.000000   1.000000
    7        6.426406      6.426363   0.000000   0.000000
    8       12.406575     12.406933   0.000000   0.000000
    9       12.919071     12.919606   0.000000   0.000000
   10       13.225877     13.226391   0.000000   0.000000
   11       17.439881     17.439926   0.000000   0.000000
   12       18.928921     18.928787   0.000000   0.000000
 
  0.2301879E-17  0.1666667E+00  0.4758407E-14  0.2314815E-02
    1      -42.030581    -42.027971   1.000000   1.000000
    2      -41.791193    -41.788534   1.000000   1.000000
    3      -14.243969    -14.244481   1.000000   1.000000
    4        0.281153      0.280717   1.000000   1.000000
    5        0.897118      0.896555   1.000000   1.000000
    6        0.972654      0.972101   1.000000   1.000000
    7        6.626129      6.626072   0.000000   0.000000
    8       12.568480     12.568829   0.000000   0.000000
    9       12.856065     12.856572   0.000000   0.000000
   10       13.188769     13.189216   0.000000   0.000000
   11       17.498248     17.498167   0.000000   0.000000
   12       17.926806     17.926854   0.000000   0.000000
 
  0.8333333E-01  0.1666667E+00  0.4380965E-14  0.2314815E-02
    1      -42.033159    -42.030550   1.000000   1.000000
    2      -41.788986    -41.786326   1.000000   1.000000
    3      -14.248786    -14.249298   1.000000   1.000000
    4        0.454656      0.454207   1.000000   1.000000
    5        0.865046      0.864513   1.000000   1.000000
    6        0.907410      0.906834   1.000000   1.000000
    7        6.519646      6.519593   0.000000   0.000000
    8       12.580205     12.580467   0.000000   0.000000
    9       12.926647     12.927242   0.000000   0.000000
   10       13.238884     13.239340   0.000000   0.000000
   11       16.402880     16.403121   0.000000   0.000000
   12       19.535350     19.535433   0.000000   0.000000
 
  0.1666667E+00  0.1666667E+00  0.5488990E-15  0.2314815E-02
    1      -42.026295    -42.023685   1.000000   1.000000
    2      -41.794152    -41.791493   1.000000   1.000000
    3      -14.232307    -14.232825   1.000000   1.000000
    4        0.440887      0.440449   1.000000   1.000000
    5        0.687287      0.686747   1.000000   1.000000
    6        0.750735      0.750216   1.000000   1.000000
    7        6.648323      6.648217   0.000000   0.000000
    8       12.687022     12.687251   0.000000   0.000000
    9       13.027078     13.027597   0.000000   0.000000
   10       13.554610     13.555173   0.000000   0.000000
   11       15.466934     15.467003   0.000000   0.000000
   12       20.994018     20.983297   0.000000   0.000000
 
  0.2500000E+00  0.1666667E+00  0.2022737E-15  0.2314815E-02
    1      -42.010678    -42.008064   1.000000   1.000000
    2      -41.806385    -41.803728   1.000000   1.000000
    3      -14.198098    -14.198628   1.000000   1.000000
    4       -0.017498     -0.017910   1.000000   1.000000
    5        0.609243      0.608751   1.000000   1.000000
    6        0.652463      0.651966   1.000000   1.000000
    7        6.971995      6.971814   0.000000   0.000000
    8       12.660384     12.660590   0.000000   0.000000
    9       13.188871     13.189288   0.000000   0.000000
   10       13.986855     13.987479   0.000000   0.000000
   11       15.004311     15.004403   0.000000   0.000000
   12       21.070253     21.068507   0.000000   0.000000
 
  0.3333333E+00  0.1666667E+00 -0.1566377E-15  0.2314815E-02
    1      -41.987802    -41.985183   1.000000   1.000000
    2      -41.825183    -41.822530   1.000000   1.000000
    3      -14.154237    -14.154783   1.000000   1.000000
    4       -0.575771     -0.576130   1.000000   1.000000
    5        0.508565      0.508086   1.000000   1.000000
    6        0.590191      0.589721   1.000000   1.000000
    7        7.455228      7.454977   0.000000   0.000000
    8       12.323189     12.323373   0.000000   0.000000
    9       13.315788     13.316108   0.000000   0.000000
   10       14.145580     14.146043   0.000000   0.000000
   11       15.386214     15.386530   0.000000   0.000000
   12       20.511091     20.511537   0.000000   0.000000
 
  0.4166667E+00  0.1666667E+00 -0.4030704E-14  0.2314815E-02
    1      -41.959595    -41.956970   1.000000   1.000000
    2      -41.849685    -41.847037   1.000000   1.000000
    3      -14.112039    -14.112600   1.000000   1.000000
    4       -1.047682     -1.047999   1.000000   1.000000
    5        0.450767      0.450305   1.000000   1.000000
    6        0.497090      0.496635   1.000000   1.000000
    7        8.059930      8.059613   0.000000   0.000000
    8       11.769090     11.769269   0.000000   0.000000
    9       13.381220     13.381465   0.000000   0.000000
   10       14.039203     14.039529   0.000000   0.000000
   11       16.299747     16.300216   0.000000   0.000000
   12       19.954732     19.955070   0.000000   0.000000
 
  0.5000000E+00  0.1666667E+00  0.6336956E-14  0.2314815E-02
    1      -41.928302    -41.925671   1.000000   1.000000
    2      -41.878536    -41.875894   1.000000   1.000000
    3      -14.083639    -14.084210   1.000000   1.000000
    4       -1.336789     -1.337083   1.000000   1.000000
    5        0.359842      0.359414   1.000000   1.000000
    6        0.492233      0.491762   1.000000   1.000000
    7        8.698965      8.698561   0.000000   0.000000
    8       11.143816     11.144031   0.000000   0.000000
    9       13.440806     13.441000   0.000000   0.000000
   10       13.871244     13.871524   0.000000   0.000000
   11       17.339076     17.339615   0.000000   0.000000
   12       19.132304     19.132725   0.000000   0.000000
 
 -0.4166667E+00  0.1666667E+00  0.3721046E-14  0.2314815E-02
    1      -41.910122    -41.907486   1.000000   1.000000
    2      -41.896360    -41.893722   1.000000   1.000000
    3      -14.078096    -14.078668   1.000000   1.000000
    4       -1.394096     -1.394386   1.000000   1.000000
    5        0.273410      0.272992   1.000000   1.000000
    6        0.569274      0.568793   1.000000   1.000000
    7        9.095626      9.095100   0.000000   0.000000
    8       10.717081     10.717407   0.000000   0.000000
    9       13.580694     13.580868   0.000000   0.000000
   10       13.733888     13.734197   0.000000   0.000000
   11       17.952498     17.952974   0.000000   0.000000
   12       18.333238     18.333713   0.000000   0.000000
 
 -0.3333333E+00  0.1666667E+00 -0.1437148E-15  0.2314815E-02
    1      -41.942263    -41.939634   1.000000   1.000000
    2      -41.865949    -41.863305   1.000000   1.000000
    3      -14.097060    -14.097625   1.000000   1.000000
    4       -1.215692     -1.215997   1.000000   1.000000
    5        0.241383      0.240962   1.000000   1.000000
    6        0.689406      0.688910   1.000000   1.000000
    7        8.789630      8.789204   0.000000   0.000000
    8       10.958612     10.958873   0.000000   0.000000
    9       13.574339     13.574626   0.000000   0.000000
   10       13.915650     13.915854   0.000000   0.000000
   11       16.652596     16.653048   0.000000   0.000000
   12       19.113029     19.113452   0.000000   0.000000
 
 -0.2500000E+00  0.1666667E+00 -0.5223814E-15  0.2314815E-02
    1      -41.972727    -41.970105   1.000000   1.000000
    2      -41.838955    -41.836305   1.000000   1.000000
    3      -14.134615    -14.135167   1.000000   1.000000
    4       -0.846636     -0.846971   1.000000   1.000000
    5        0.287199      0.286761   1.000000   1.000000
    6        0.822196      0.821682   1.000000   1.000000
    7        8.136732      8.136432   0.000000   0.000000
    8       11.532938     11.533151   0.000000   0.000000
    9       13.367464     13.367803   0.000000   0.000000
   10       14.418671     14.418940   0.000000   0.000000
   11       15.456156     15.456528   0.000000   0.000000
   12       19.520524     19.520851   0.000000   0.000000
 
 -0.1666667E+00  0.1666667E+00 -0.8501085E-15  0.2314815E-02
    1      -41.998923    -41.996306   1.000000   1.000000
    2      -41.816810    -41.814156   1.000000   1.000000
    3      -14.179200    -14.179736   1.000000   1.000000
    4       -0.389436     -0.389809   1.000000   1.000000
    5        0.432046      0.431573   1.000000   1.000000
    6        0.932301      0.931768   1.000000   1.000000
    7        7.493099      7.492895   0.000000   0.000000
    8       12.096351     12.096588   0.000000   0.000000
    9       13.073877     13.074230   0.000000   0.000000
   10       14.262867     14.263450   0.000000   0.000000
   11       15.403445     15.403498   0.000000   0.000000
   12       19.282378     19.282783   0.000000   0.000000
 
 -0.8333333E-01  0.1666667E+00 -0.4654786E-14  0.2314815E-02
    1      -42.018792    -42.016180   1.000000   1.000000
    2      -41.800631    -41.797974   1.000000   1.000000
    3      -14.218871    -14.219392   1.000000   1.000000
    4        0.008942      0.008534   1.000000   1.000000
    5        0.678969      0.678443   1.000000   1.000000
    6        0.987297      0.986753   1.000000   1.000000
    7        6.967636      6.967518   0.000000   0.000000
    8       12.527565     12.527894   0.000000   0.000000
    9       12.793039     12.793387   0.000000   0.000000
   10       13.568622     13.569153   0.000000   0.000000
   11       16.471824     16.471914   0.000000   0.000000
   12       18.580815     18.581464   0.000000   0.000000
 
 -0.6465164E-17  0.2500000E+00 -0.6406732E-18  0.2314815E-02
    1      -42.005804    -42.003189   1.000000   1.000000
    2      -41.810621    -41.807966   1.000000   1.000000
    3      -14.188978    -14.189509   1.000000   1.000000
    4       -0.400979     -0.401328   1.000000   1.000000
    5        0.785118      0.784575   1.000000   1.000000
    6        0.858871      0.858335   1.000000   1.000000
    7        7.334718      7.334599   0.000000   0.000000
    8       12.433099     12.433342   0.000000   0.000000
    9       12.866338     12.866698   0.000000   0.000000
   10       13.283925     13.284292   0.000000   0.000000
   11       17.069834     17.069880   0.000000   0.000000
   12       17.526974     17.527048   0.000000   0.000000
 
  0.8333333E-01  0.2500000E+00 -0.3861647E-15  0.2314815E-02
    1      -42.011955    -42.009342   1.000000   1.000000
    2      -41.805177    -41.802520   1.000000   1.000000
    3      -14.199220    -14.199749   1.000000   1.000000
    4       -0.182766     -0.183133   1.000000   1.000000
    5        0.741313      0.740806   1.000000   1.000000
    6        0.831368      0.830804   1.000000   1.000000
    7        7.097859      7.097736   0.000000   0.000000
    8       12.446080     12.446246   0.000000   0.000000
    9       13.063194     13.063685   0.000000   0.000000
   10       13.424564     13.424984   0.000000   0.000000
   11       15.870610     15.870645   0.000000   0.000000
   12       18.992280     18.992454   0.000000   0.000000
 
  0.1666667E+00  0.2500000E+00 -0.4180475E-14  0.2314815E-02
    1      -42.010144    -42.007530   1.000000   1.000000
    2      -41.805976    -41.803320   1.000000   1.000000
    3      -14.191736    -14.192268   1.000000   1.000000
    4        0.001497      0.001126   1.000000   1.000000
    5        0.585262      0.584773   1.000000   1.000000
    6        0.633877      0.633339   1.000000   1.000000
    7        6.931648      6.931478   0.000000   0.000000
    8       12.707497     12.707646   0.000000   0.000000
    9       13.175772     13.176187   0.000000   0.000000
   10       13.821214     13.821861   0.000000   0.000000
   11       14.938913     14.938969   0.000000   0.000000
   12       20.768015     20.765392   0.000000   0.000000
 
  0.2500000E+00  0.2500000E+00 -0.4547697E-14  0.2314815E-02
    1      -42.000516    -41.997900   1.000000   1.000000
    2      -41.812972    -41.810317   1.000000   1.000000
    3      -14.167926    -14.168467   1.000000   1.000000
    4        0.021312      0.020965   1.000000   1.000000
    5        0.351131      0.350623   1.000000   1.000000
    6        0.429126      0.428654   1.000000   1.000000
    7        6.856134      6.855902   0.000000   0.000000
    8       13.033964     13.034059   0.000000   0.000000
    9       13.378989     13.379332   0.000000   0.000000
   10       14.275850     14.276643   0.000000   0.000000
   11       14.388647     14.388802   0.000000   0.000000
   12       22.333583     22.325872   0.000000   0.000000
 
  0.3333333E+00  0.2500000E+00  0.5778559E-14  0.2314815E-02
    1      -41.984087    -41.981468   1.000000   1.000000
    2      -41.826005    -41.823353   1.000000   1.000000
    3      -14.133492    -14.134047   1.000000   1.000000
    4       -0.330442     -0.330795   1.000000   1.000000
    5        0.268589      0.268150   1.000000   1.000000
    6        0.307592      0.307138   1.000000   1.000000
    7        6.951991      6.951701   0.000000   0.000000
    8       12.991678     12.991771   0.000000   0.000000
    9       13.535344     13.535606   0.000000   0.000000
   10       14.326884     14.327166   0.000000   0.000000
   11       14.933086     14.933885   0.000000   0.000000
   12       21.883628     21.880753   0.000000   0.000000
 
  0.4166667E+00  0.2500000E+00  0.1889472E-14  0.2314815E-02
    1      -41.962394    -41.959770   1.000000   1.000000
    2      -41.844350    -41.841701   1.000000   1.000000
    3      -14.096984    -14.097551   1.000000   1.000000
    4       -0.742708     -0.743043   1.000000   1.000000
    5        0.184134      0.183736   1.000000   1.000000
    6        0.247897      0.247455   1.000000   1.000000
    7        7.272979      7.272636   0.000000   0.000000
    8       12.555208     12.555307   0.000000   0.000000
    9       13.651218     13.651408   0.000000   0.000000
   10       14.411169     14.411491   0.000000   0.000000
   11       15.796781     15.797599   0.000000   0.000000
   12       21.772108     21.460141   0.000000   0.000000
 
  0.5000000E+00  0.2500000E+00  0.1587214E-14  0.2314815E-02
    1      -41.937169    -41.934539   1.000000   1.000000
    2      -41.867168    -41.864524   1.000000   1.000000
    3      -14.068516    -14.069093   1.000000   1.000000
    4       -1.048302     -1.048623   1.000000   1.000000
    5        0.059801      0.059438   1.000000   1.000000
    6        0.262254      0.261808   1.000000   1.000000
    7        7.787375      7.786981   0.000000   0.000000
    8       11.946850     11.946942   0.000000   0.000000
    9       13.735530     13.735669   0.000000   0.000000
   10       14.369325     14.369647   0.000000   0.000000
   11       16.755475     16.756336   0.000000   0.000000
   12       20.203381     20.203842   0.000000   0.000000
 
 -0.4166667E+00  0.2500000E+00 -0.1028696E-14  0.2314815E-02
    1      -41.910446    -41.907810   1.000000   1.000000
    2      -41.893090    -41.890451   1.000000   1.000000
    3      -14.056730    -14.057311   1.000000   1.000000
    4       -1.188252     -1.188569   1.000000   1.000000
    5       -0.055338     -0.055683   1.000000   1.000000
    6        0.352317      0.351862   1.000000   1.000000
    7        8.372304      8.371843   0.000000   0.000000
    8       11.289195     11.289332   0.000000   0.000000
    9       13.839498     13.839597   0.000000   0.000000
   10       14.236566     14.236901   0.000000   0.000000
   11       17.721563     17.722409   0.000000   0.000000
   12       18.751939     18.752461   0.000000   0.000000
 
 -0.3333333E+00  0.2500000E+00  0.2284476E-14  0.2314815E-02
    1      -41.920614    -41.917981   1.000000   1.000000
    2      -41.884010    -41.881369   1.000000   1.000000