       N       E                     dE             d eps       ncg     rms          rms(c)
DAV:   1     0.444542031052E+02    0.44454E+02   -0.55979E+03 22876   0.102E+03
DAV:   2    -0.965053491202E+01   -0.54105E+02   -0.52113E+02 27784   0.225E+02
DAV:   3    -0.152577482431E+02   -0.56072E+01   -0.55652E+01 42940   0.528E+01
DAV:   4    -0.153103610377E+02   -0.52613E-01   -0.52605E-01 26320   0.652E+00
DAV:   5    -0.153107763062E+02   -0.41527E-03   -0.41526E-03 32092   0.463E-01    0.116E+01
RMM:   6    -0.142098427136E+02    0.11009E+01   -0.35726E+00 24914   0.124E+01    0.502E+00
RMM:   7    -0.143105282588E+02   -0.10069E+00   -0.13070E-01 27744   0.294E+00    0.204E+00
RMM:   8    -0.143118909195E+02   -0.13627E-02   -0.52887E-02 31416   0.227E+00    0.116E+00
RMM:   9    -0.143249458126E+02   -0.13055E-01   -0.30260E-02 31833   0.196E+00    0.251E-01
RMM:  10    -0.143258437144E+02   -0.89790E-03   -0.87616E-03 37053   0.696E-01    0.147E-01
RMM:  11    -0.143269951855E+02   -0.11515E-02   -0.63128E-03 35002   0.611E-01    0.199E-01
RMM:  12    -0.143266450086E+02    0.35018E-03   -0.15817E-03 36016   0.322E-01    0.865E-02
RMM:  13    -0.143266253418E+02    0.19667E-04   -0.81007E-04 36293   0.227E-01    0.203E-02
RMM:  14    -0.143266592497E+02   -0.33908E-04   -0.26090E-04 35401   0.115E-01    0.274E-02
RMM:  15    -0.143266735516E+02   -0.14302E-04   -0.99923E-05 32275   0.745E-02    0.306E-02
RMM:  16    -0.143266749975E+02   -0.14459E-05   -0.48005E-05 29570   0.541E-02
   1 F= -.14326675E+02 E0= -.14326675E+02  d E =0.000000E+00  mag=    -0.0000
