Automatically generated mesh
     234
Reciprocal lattice
    0.00000000000000    0.00000000000000    0.00000000000000             1
    0.09090909090909   -0.00000000000000   -0.00000000000000             4
    0.18181818181818    0.00000000000000   -0.00000000000000             4
    0.27272727272727   -0.00000000000000   -0.00000000000000             4
    0.36363636363637    0.00000000000000    0.00000000000000             4
    0.45454545454545   -0.00000000000000   -0.00000000000000             4
    0.09090909090909    0.09090909090909   -0.00000000000000             2
    0.18181818181818    0.09090909090909   -0.00000000000000             4
    0.27272727272727    0.09090909090909    0.00000000000000             4
    0.36363636363637    0.09090909090909    0.00000000000000             4
    0.45454545454545    0.09090909090909   -0.00000000000000             4
   -0.45454545454545    0.09090909090909    0.00000000000000             4
   -0.36363636363637    0.09090909090909    0.00000000000000             4
   -0.27272727272727    0.09090909090909    0.00000000000000             4
   -0.18181818181818    0.09090909090909    0.00000000000000             4
   -0.09090909090909    0.09090909090909   -0.00000000000000             2
    0.18181818181818    0.18181818181818   -0.00000000000000             2
    0.27272727272727    0.18181818181818   -0.00000000000000             4
    0.36363636363637    0.18181818181818   -0.00000000000000             4
    0.45454545454545    0.18181818181818   -0.00000000000000             4
   -0.45454545454545    0.18181818181818    0.00000000000000             4
   -0.36363636363637    0.18181818181818    0.00000000000000             4
   -0.27272727272727    0.18181818181818    0.00000000000000             4
   -0.18181818181818    0.18181818181818   -0.00000000000000             2
    0.27272727272727    0.27272727272727   -0.00000000000000             2
    0.36363636363637    0.27272727272727    0.00000000000000             4
    0.45454545454545    0.27272727272727   -0.00000000000000             4
   -0.45454545454545    0.27272727272727    0.00000000000000             4
   -0.36363636363637    0.27272727272727    0.00000000000000             4
   -0.27272727272727    0.27272727272727   -0.00000000000000             2
    0.36363636363637    0.36363636363637    0.00000000000000             2
    0.45454545454545    0.36363636363637   -0.00000000000000             4
   -0.45454545454545    0.36363636363637    0.00000000000000             4
   -0.36363636363637    0.36363636363637    0.00000000000000             2
    0.45454545454545    0.45454545454545   -0.00000000000000             2
   -0.45454545454545    0.45454545454545   -0.00000000000000             2
   -0.00000000000000   -0.00000000000000    0.14285714285714             2
    0.09090909090909   -0.00000000000000    0.14285714285714             4
    0.18181818181818   -0.00000000000000    0.14285714285714             4
    0.27272727272727    0.00000000000000    0.14285714285714             4
    0.36363636363637    0.00000000000000    0.14285714285714             4
    0.45454545454545    0.00000000000000    0.14285714285714             4
   -0.45454545454545    0.00000000000000    0.14285714285714             4
   -0.36363636363637    0.00000000000000    0.14285714285714             4
   -0.27272727272727   -0.00000000000000    0.14285714285714             4
   -0.18181818181818   -0.00000000000000    0.14285714285714             4
   -0.09090909090909    0.00000000000000    0.14285714285714             4
    0.09090909090909    0.09090909090909    0.14285714285714             2
    0.18181818181818    0.09090909090909    0.14285714285714             4
    0.27272727272727    0.09090909090909    0.14285714285714             4
    0.36363636363637    0.09090909090909    0.14285714285714             4
    0.45454545454545    0.09090909090909    0.14285714285714             4
   -0.45454545454545    0.09090909090909    0.14285714285714             4
   -0.36363636363637    0.09090909090909    0.14285714285714             4
   -0.27272727272727    0.09090909090909    0.14285714285714             4
   -0.18181818181818    0.09090909090909    0.14285714285714             4
   -0.09090909090909    0.09090909090909    0.14285714285714             4
    0.18181818181818    0.18181818181818    0.14285714285714             2
    0.27272727272727    0.18181818181818    0.14285714285714             4
    0.36363636363637    0.18181818181818    0.14285714285714             4
    0.45454545454545    0.18181818181818    0.14285714285714             4
   -0.45454545454545    0.18181818181818    0.14285714285714             4
   -0.36363636363637    0.18181818181818    0.14285714285714             4
   -0.27272727272727    0.18181818181818    0.14285714285714             4
   -0.18181818181818    0.18181818181818    0.14285714285714             4
   -0.09090909090909    0.18181818181818    0.14285714285714             4
    0.27272727272727    0.27272727272727    0.14285714285714             2
    0.36363636363637    0.27272727272727    0.14285714285714             4
    0.45454545454545    0.27272727272727    0.14285714285714             4
   -0.45454545454545    0.27272727272727    0.14285714285714             4
   -0.36363636363637    0.27272727272727    0.14285714285714             4
   -0.27272727272727    0.27272727272727    0.14285714285714             4
   -0.18181818181818    0.27272727272727    0.14285714285714             4
   -0.09090909090909    0.27272727272727    0.14285714285714             4
    0.36363636363637    0.36363636363637    0.14285714285714             2
    0.45454545454545    0.36363636363637    0.14285714285714             4
   -0.45454545454545    0.36363636363637    0.14285714285714             4
   -0.36363636363637    0.36363636363637    0.14285714285714             4
   -0.27272727272727    0.36363636363637    0.14285714285714             4
   -0.18181818181818    0.36363636363637    0.14285714285714             4
   -0.09090909090909    0.36363636363637    0.14285714285714             4
    0.45454545454545    0.45454545454545    0.14285714285714             2
   -0.45454545454545    0.45454545454545    0.14285714285714             4
   -0.36363636363637    0.45454545454545    0.14285714285714             4
   -0.27272727272727    0.45454545454545    0.14285714285714             4
   -0.18181818181818    0.45454545454545    0.14285714285714             4
   -0.09090909090909    0.45454545454545    0.14285714285714             4
   -0.45454545454545   -0.45454545454545    0.14285714285714             2
   -0.36363636363637   -0.45454545454545    0.14285714285714             4
   -0.27272727272727   -0.45454545454545    0.14285714285714             4
   -0.18181818181818   -0.45454545454545    0.14285714285714             4
   -0.09090909090909   -0.45454545454545    0.14285714285714             4
   -0.36363636363637   -0.36363636363637    0.14285714285714             2
   -0.27272727272727   -0.36363636363637    0.14285714285714             4
   -0.18181818181818   -0.36363636363637    0.14285714285714             4
   -0.09090909090909   -0.36363636363637    0.14285714285714             4
   -0.27272727272727   -0.27272727272727    0.14285714285714             2
   -0.18181818181818   -0.27272727272727    0.14285714285714             4
   -0.09090909090909   -0.27272727272727    0.14285714285714             4
   -0.18181818181818   -0.18181818181818    0.14285714285714             2
   -0.09090909090909   -0.18181818181818    0.14285714285714             4
   -0.09090909090909   -0.09090909090909    0.14285714285714             2
   -0.00000000000000   -0.00000000000000    0.28571428571429             2
    0.09090909090909   -0.00000000000000    0.28571428571429             4
    0.18181818181818    0.00000000000000    0.28571428571429             4
    0.27272727272727    0.00000000000000    0.28571428571429             4
    0.36363636363637   -0.00000000000000    0.28571428571429             4
    0.45454545454545   -0.00000000000000    0.28571428571429             4
   -0.45454545454545    0.00000000000000    0.28571428571429             4
   -0.36363636363637   -0.00000000000000    0.28571428571429             4
   -0.27272727272727    0.00000000000000    0.28571428571429             4
   -0.18181818181818    0.00000000000000    0.28571428571429             4
   -0.09090909090909    0.00000000000000    0.28571428571429             4
    0.09090909090909    0.09090909090909    0.28571428571429             2
    0.18181818181818    0.09090909090909    0.28571428571429             4
    0.27272727272727    0.09090909090909    0.28571428571429             4
    0.36363636363637    0.09090909090909    0.28571428571429             4
    0.45454545454545    0.09090909090909    0.28571428571429             4
   -0.45454545454545    0.09090909090909    0.28571428571429             4
   -0.36363636363637    0.09090909090909    0.28571428571429             4
   -0.27272727272727    0.09090909090909    0.28571428571429             4
   -0.18181818181818    0.09090909090909    0.28571428571429             4
   -0.09090909090909    0.09090909090909    0.28571428571429             4
    0.18181818181818    0.18181818181818    0.28571428571429             2
    0.27272727272727    0.18181818181818    0.28571428571429             4
    0.36363636363637    0.18181818181818    0.28571428571429             4
    0.45454545454545    0.18181818181818    0.28571428571429             4
   -0.45454545454545    0.18181818181818    0.28571428571429             4
   -0.36363636363637    0.18181818181818    0.28571428571429             4
   -0.27272727272727    0.18181818181818    0.28571428571429             4
   -0.18181818181818    0.18181818181818    0.28571428571429             4
   -0.09090909090909    0.18181818181818    0.28571428571429             4
    0.27272727272727    0.27272727272727    0.28571428571429             2
    0.36363636363637    0.27272727272727    0.28571428571429             4
    0.45454545454545    0.27272727272727    0.28571428571429             4
   -0.45454545454545    0.27272727272727    0.28571428571429             4
   -0.36363636363637    0.27272727272727    0.28571428571429             4
   -0.27272727272727    0.27272727272727    0.28571428571429             4
   -0.18181818181818    0.27272727272727    0.28571428571429             4
   -0.09090909090909    0.27272727272727    0.28571428571429             4
    0.36363636363637    0.36363636363637    0.28571428571429             2
    0.45454545454545    0.36363636363637    0.28571428571429             4
   -0.45454545454545    0.36363636363637    0.28571428571429             4
   -0.36363636363637    0.36363636363637    0.28571428571429             4
   -0.27272727272727    0.36363636363637    0.28571428571429             4
   -0.18181818181818    0.36363636363637    0.28571428571429             4
   -0.09090909090909    0.36363636363637    0.28571428571429             4
    0.45454545454545    0.45454545454545    0.28571428571429             2
   -0.45454545454545    0.45454545454545    0.28571428571429             4
   -0.36363636363637    0.45454545454545    0.28571428571429             4
   -0.27272727272727    0.45454545454545    0.28571428571429             4
   -0.18181818181818    0.45454545454545    0.28571428571429             4
   -0.09090909090909    0.45454545454545    0.28571428571429             4
   -0.45454545454545   -0.45454545454545    0.28571428571429             2
   -0.36363636363637   -0.45454545454545    0.28571428571429             4
   -0.27272727272727   -0.45454545454545    0.28571428571429             4
   -0.18181818181818   -0.45454545454545    0.28571428571429             4
   -0.09090909090909   -0.45454545454545    0.28571428571429             4
   -0.36363636363637   -0.36363636363637    0.28571428571429             2
   -0.27272727272727   -0.36363636363637    0.28571428571429             4
   -0.18181818181818   -0.36363636363637    0.28571428571429             4
   -0.09090909090909   -0.36363636363637    0.28571428571429             4
   -0.27272727272727   -0.27272727272727    0.28571428571429             2
   -0.18181818181818   -0.27272727272727    0.28571428571429             4
   -0.09090909090909   -0.27272727272727    0.28571428571429             4
   -0.18181818181818   -0.18181818181818    0.28571428571429             2
   -0.09090909090909   -0.18181818181818    0.28571428571429             4
   -0.09090909090909   -0.09090909090909    0.28571428571429             2
   -0.00000000000000   -0.00000000000000    0.42857142857143             2
    0.09090909090909   -0.00000000000000    0.42857142857143             4
    0.18181818181818    0.00000000000000    0.42857142857143             4
    0.27272727272727    0.00000000000000    0.42857142857143             4
    0.36363636363637   -0.00000000000000    0.42857142857143             4
    0.45454545454545   -0.00000000000000    0.42857142857143             4
   -0.45454545454545    0.00000000000000    0.42857142857143             4
   -0.36363636363637    0.00000000000000    0.42857142857143             4
   -0.27272727272727   -0.00000000000000    0.42857142857143             4
   -0.18181818181818   -0.00000000000000    0.42857142857143             4
   -0.09090909090909    0.00000000000000    0.42857142857143             4
    0.09090909090909    0.09090909090909    0.42857142857143             2
    0.18181818181818    0.09090909090909    0.42857142857143             4
    0.27272727272727    0.09090909090909    0.42857142857143             4
    0.36363636363637    0.09090909090909    0.42857142857143             4
    0.45454545454545    0.09090909090909    0.42857142857143             4
   -0.45454545454545    0.09090909090909    0.42857142857143             4
   -0.36363636363637    0.09090909090909    0.42857142857143             4
   -0.27272727272727    0.09090909090909    0.42857142857143             4
   -0.18181818181818    0.09090909090909    0.42857142857143             4
   -0.09090909090909    0.09090909090909    0.42857142857143             4
    0.18181818181818    0.18181818181818    0.42857142857143             2
    0.27272727272727    0.18181818181818    0.42857142857143             4
    0.36363636363637    0.18181818181818    0.42857142857143             4
    0.45454545454545    0.18181818181818    0.42857142857143             4
   -0.45454545454545    0.18181818181818    0.42857142857143             4
   -0.36363636363637    0.18181818181818    0.42857142857143             4
   -0.27272727272727    0.18181818181818    0.42857142857143             4
   -0.18181818181818    0.18181818181818    0.42857142857143             4
   -0.09090909090909    0.18181818181818    0.42857142857143             4
    0.27272727272727    0.27272727272727    0.42857142857143             2
    0.36363636363637    0.27272727272727    0.42857142857143             4
    0.45454545454545    0.27272727272727    0.42857142857143             4
   -0.45454545454545    0.27272727272727    0.42857142857143             4
   -0.36363636363637    0.27272727272727    0.42857142857143             4
   -0.27272727272727    0.27272727272727    0.42857142857143             4
   -0.18181818181818    0.27272727272727    0.42857142857143             4
   -0.09090909090909    0.27272727272727    0.42857142857143             4
    0.36363636363637    0.36363636363637    0.42857142857143             2
    0.45454545454545    0.36363636363637    0.42857142857143             4
   -0.45454545454545    0.36363636363637    0.42857142857143             4
   -0.36363636363637    0.36363636363637    0.42857142857143             4
   -0.27272727272727    0.36363636363637    0.42857142857143             4
   -0.18181818181818    0.36363636363637    0.42857142857143             4
   -0.09090909090909    0.36363636363637    0.42857142857143             4
    0.45454545454545    0.45454545454545    0.42857142857143             2
   -0.45454545454545    0.45454545454545    0.42857142857143             4
   -0.36363636363637    0.45454545454545    0.42857142857143             4
   -0.27272727272727    0.45454545454545    0.42857142857143             4
   -0.18181818181818    0.45454545454545    0.42857142857143             4
   -0.09090909090909    0.45454545454545    0.42857142857143             4
   -0.45454545454545   -0.45454545454545    0.42857142857143             2
   -0.36363636363637   -0.45454545454545    0.42857142857143             4
   -0.27272727272727   -0.45454545454545    0.42857142857143             4
   -0.18181818181818   -0.45454545454545    0.42857142857143             4
   -0.09090909090909   -0.45454545454545    0.42857142857143             4
   -0.36363636363637   -0.36363636363637    0.42857142857143             2
   -0.27272727272727   -0.36363636363637    0.42857142857143             4
   -0.18181818181818   -0.36363636363637    0.42857142857143             4
   -0.09090909090909   -0.36363636363637    0.42857142857143             4
   -0.27272727272727   -0.27272727272727    0.42857142857143             2
   -0.18181818181818   -0.27272727272727    0.42857142857143             4
   -0.09090909090909   -0.27272727272727    0.42857142857143             4
   -0.18181818181818   -0.18181818181818    0.42857142857143             2
   -0.09090909090909   -0.18181818181818    0.42857142857143             4
   -0.09090909090909   -0.09090909090909    0.42857142857143             2
Tetrahedra
      1275    0.00019677292405
         4         1         2         7        48
         4         1         2        38        48
         4         1        37        38        48
         4         2         7         8        49
         4         2         3         8        49
         4         2         3        39        49
         4         2         7        48        49
         4         2        38        48        49
         4         2        38        39        49
         4         3         8         9        50
         4         3         4         9        50
         4         3         4        40        50
         4         3         8        49        50
         4         3        39        49        50
         4         3        39        40        50
         4         4         9        10        51
         4         4         5        10        51
         4         4         5        41        51
         4         4         9        50        51
         4         4        40        50        51
         4         4        40        41        51
         4         5        10        11        52
         4         5         6        11        52
         4         5         6        42        52
         4         5        10        51        52
         4         5        41        51        52
         4         5        41        42        52
         4         6        11        12        53
         4         6         6        12        53
         4         6         6        43        53
         4         6        11        52        53
         4         6        42        52        53
         4         6        42        43        53
         4         6        12        13        54
         4         5         6        13        54
         4         5         6        44        54
         4         6        12        53        54
         4         6        43        53        54
         4         6        43        44        54
         4         5        13        14        55
         4         4         5        14        55
         4         4         5        45        55
         4         5        13        54        55
         4         5        44        54        55
         4         5        44        45        55
         4         4        14        15        56
         4         3         4        15        56
         4         3         4        46        56
         4         4        14        55        56
         4         4        45        55        56
         4         4        45        46        56
         4         3        15        16        57
         4         2         3        16        57
         4         2         3        47        57
         4         3        15        56        57
         4         3        46        56        57
         4         3        46        47        57
         4         2         2        16        38
         4         1         2         2        38
         4         1         2        37        38
         4         2        16        38        57
         4         2        38        47        57
         4         2        37        38        47
         4         7         8        17        58
         4         7         8        49        58
         4         7        48        49        58
         4         8        17        18        59
         4         8         9        18        59
         4         8         9        50        59
         4         8        17        58        59
         4         8        49        58        59
         4         8        49        50        59
         4         9        18        19        60
         4         9        10        19        60
         4         9        10        51        60
         4         9        18        59        60
         4         9        50        59        60
         4         9        50        51        60
         4        10        19        20        61
         4        10        11        20        61
         4        10        11        52        61
         4        10        19        60        61
         4        10        51        60        61
         4        10        51        52        61
         4        11        20        21        62
         4        11        12        21        62
         4        11        12        53        62
         4        11        20        61        62
         4        11        52        61        62
         4        11        52        53        62
         4        12        21        22        63
         4        12        13        22        63
         4        12        13        54        63
         4        12        21        62        63
         4        12        53        62        63
         4        12        53        54        63
         4        13        22        23        64
         4        13        14        23        64
         4        13        14        55        64
         4        13        22        63        64
         4        13        54        63        64
         4        13        54        55        64
         4        14        23        24        65
         4        14        15        24        65
         4        14        15        56        65
         4        14        23        64        65
         4        14        55        64        65
         4        14        55        56        65
         4        15        15        24        66
         4        15        15        16        66
         4        15        16        57        66
         4        15        24        65        66
         4        15        56        65        66
         4        15        56        57        66
         4         3        15        16        39
         4         2         3        16        39
         4         2        16        38        39
         4        15        16        39        66
         4        16        39        57        66
         4        16        38        39        57
         4        17        18        25        67
         4        17        18        59        67
         4        17        58        59        67
         4        18        25        26        68
         4        18        19        26        68
         4        18        19        60        68
         4        18        25        67        68
         4        18        59        67        68
         4        18        59        60        68
         4        19        26        27        69
         4        19        20        27        69
         4        19        20        61        69
         4        19        26        68        69
         4        19        60        68        69
         4        19        60        61        69
         4        20        27        28        70
         4        20        21        28        70
         4        20        21        62        70
         4        20        27        69        70
         4        20        61        69        70
         4        20        61        62        70
         4        21        28        29        71
         4        21        22        29        71
         4        21        22        63        71
         4        21        28        70        71
         4        21        62        70        71
         4        21        62        63        71
         4        22        29        30        72
         4        22        23        30        72
         4        22        23        64        72
         4        22        29        71        72
         4        22        63        71        72
         4        22        63        64        72
         4        23        23        30        73
         4        23        23        24        73
         4        23        24        65        73
         4        23        30        72        73
         4        23        64        72        73
         4        23        64        65        73
         4        14        23        24        74
         4        14        15        24        74
         4        15        24        66        74
         4        23        24        73        74
         4        24        65        73        74
         4        24        65        66        74
         4         4        14        15        40
         4         3         4        15        40
         4         3        15        39        40
         4        14        15        40        74
         4        15        40        66        74
         4        15        39        40        66
         4        25        26        31        75
         4        25        26        68        75
         4        25        67        68        75
         4        26        31        32        76
         4        26        27        32        76
         4        26        27        69        76
         4        26        31        75        76
         4        26        68        75        76
         4        26        68        69        76
         4        27        32        33        77
         4        27        28        33        77
         4        27        28        70        77
         4        27        32        76        77
         4        27        69        76        77
         4        27        69        70        77
         4        28        33        34        78
         4        28        29        34        78
         4        28        29        71        78
         4        28        33        77        78
         4        28        70        77        78
         4        28        70        71        78
         4        29        29        34        79
         4        29        29        30        79
         4        29        30        72        79
         4        29        34        78        79
         4        29        71        78        79
         4        29        71        72        79
         4        22        29        30        80
         4        22        23        30        80
         4        23        30        73        80
         4        29        30        79        80
         4        30        72        79        80
         4        30        72        73        80
         4        13        22        23        81
         4        13        14        23        81
         4        14        23        74        81
         4        22        23        80        81
         4        23        73        80        81
         4        23        73        74        81
         4         5        13        14        41
         4         4         5        14        41
         4         4        14        40        41
         4        13        14        41        81
         4        14        41        74        81
         4        14        40        41        74
         4        31        32        35        82
         4        31        32        76        82
         4        31        75        76        82
         4        32        35        36        83
         4        32        33        36        83
         4        32        33        77        83
         4        32        35        82        83
         4        32        76        82        83
         4        32        76        77        83
         4        33        33        36        84
         4        33        33        34        84
         4        33        34        78        84
         4        33        36        83        84
         4        33        77        83        84
         4        33        77        78        84
         4        28        33        34        85
         4        28        29        34        85
         4        29        34        79        85
         4        33        34        84        85
         4        34        78        84        85
         4        34        78        79        85
         4        21        28        29        86
         4        21        22        29        86
         4        22        29        80        86
         4        28        29        85        86
         4        29        79        85        86