       N       E                     dE             d eps       ncg     rms          rms(c)
DAV:   1     0.871080563152E+02    0.87108E+02   -0.83632E+03 13104   0.118E+03
DAV:   2    -0.227378444520E+02   -0.10985E+03   -0.10632E+03 17192   0.268E+02
DAV:   3    -0.283789007454E+02   -0.56411E+01   -0.56190E+01 18246   0.662E+01
DAV:   4    -0.286092203087E+02   -0.23032E+00   -0.23020E+00 20110   0.112E+01
DAV:   5    -0.286121464292E+02   -0.29261E-02   -0.29258E-02 18056   0.135E+00    0.127E+01
RMM:   6    -0.274995168469E+02    0.11126E+01   -0.38671E+00 14169   0.136E+01    0.583E+00
RMM:   7    -0.274515949758E+02    0.47922E-01   -0.65009E-01 16868   0.754E+00    0.332E+00
RMM:   8    -0.274347090179E+02    0.16886E-01   -0.28597E-01 18634   0.423E+00    0.164E+00
RMM:   9    -0.274483929315E+02   -0.13684E-01   -0.74424E-02 20051   0.232E+00    0.640E-01
RMM:  10    -0.274493691913E+02   -0.97626E-03   -0.24527E-02 21061   0.123E+00    0.152E-01
RMM:  11    -0.274507707917E+02   -0.14016E-02   -0.10198E-02 22325   0.703E-01    0.902E-02
RMM:  12    -0.274514618158E+02   -0.69102E-03   -0.48115E-03 23699   0.443E-01    0.548E-02
RMM:  13    -0.274517066462E+02   -0.24483E-03   -0.20231E-03 23311   0.283E-01    0.201E-02
RMM:  14    -0.274518276293E+02   -0.12098E-03   -0.94459E-04 22830   0.199E-01    0.147E-02
RMM:  15    -0.274518805658E+02   -0.52937E-04   -0.44180E-04 21264   0.130E-01    0.878E-03
RMM:  16    -0.274519040835E+02   -0.23518E-04   -0.20218E-04 19566   0.901E-02    0.232E-03
RMM:  17    -0.274519155373E+02   -0.11454E-04   -0.92602E-05 17149   0.669E-02    0.218E-03
RMM:  18    -0.274519197409E+02   -0.42036E-05   -0.41211E-05 15214   0.539E-02
   1 F= -.27451920E+02 E0= -.27451920E+02  d E =0.000000E+00  mag=     0.0000
