 running on   48 total cores
 distrk:  each k-point on   48 cores,    1 groups
 distr:  one band on    6 cores,    8 groups
 using from now: INCAR     
 vasp.6.1.2 22Jul20 (build Mar 31 2021 18:09:49) complex                        
  
 POSCAR found type information on POSCAR LiP 
 POSCAR found :  2 types and      64 ions
 scaLAPACK will be used
 LDA part: xc-table for Pade appr. of Perdew
 -----------------------------------------------------------------------------
|                                                                             |
|           W    W    AA    RRRRR   N    N  II  N    N   GGGG   !!!           |
|           W    W   A  A   R    R  NN   N  II  NN   N  G    G  !!!           |
|           W    W  A    A  R    R  N N  N  II  N N  N  G       !!!           |
|           W WW W  AAAAAA  RRRRR   N  N N  II  N  N N  G  GGG   !            |
|           WW  WW  A    A  R   R   N   NN  II  N   NN  G    G                |
|           W    W  A    A  R    R  N    N  II  N    N   GGGG   !!!           |
|                                                                             |
|     The determination of the symmetry of your systems shows a strong        |
|     dependence on the tolerance parameter SYMPREC. This is often the        |
|     result of "noise" in the structural parameters (lattice vectors         |
|     and/or ionic positions). Set NWRITE=3 for more details.                 |
|                                                                             |
 -----------------------------------------------------------------------------

 generate k-points for:    3    3    3
 POSCAR, INCAR and KPOINTS ok, starting setup
 FFT: planning ...
 WAVECAR not read
 entering main loop
       N       E                     dE             d eps       ncg     rms          rms(c)
DAV:   1     0.157706997636E+04    0.15771E+04   -0.12039E+05  8456   0.128E+03
DAV:   2    -0.122633376938E+03   -0.16997E+04   -0.15917E+04  9904   0.246E+02
DAV:   3    -0.307634255089E+03   -0.18500E+03   -0.18205E+03 10592   0.841E+01
DAV:   4    -0.321814000974E+03   -0.14180E+02   -0.14113E+02 13640   0.204E+01
DAV:   5    -0.324866409187E+03   -0.30524E+01   -0.30501E+01 14840   0.570E+00    0.423E+01
DAV:   6    -0.324707537852E+03    0.15887E+00   -0.11555E+01 10136   0.616E+00    0.243E+01
DAV:   7    -0.326856795163E+03   -0.21493E+01   -0.54657E+00 10056   0.411E+00    0.138E+01
DAV:   8    -0.327969305127E+03   -0.11125E+01   -0.19954E+00  9496   0.284E+00    0.285E+00
DAV:   9    -0.328039930321E+03   -0.70625E-01   -0.25807E-01 10848   0.108E+00    0.157E+00
DAV:  10    -0.328054026695E+03   -0.14096E-01   -0.64352E-02 10624   0.494E-01    0.612E-01
DAV:  11    -0.328060616083E+03   -0.65894E-02   -0.99984E-03 10048   0.249E-01    0.221E-01
DAV:  12    -0.328062960876E+03   -0.23448E-02   -0.27937E-03 10968   0.116E-01    0.117E-01
DAV:  13    -0.328063991822E+03   -0.10309E-02   -0.70514E-04 10368   0.559E-02    0.546E-02
DAV:  14    -0.328064490452E+03   -0.49863E-03   -0.42612E-04  9552   0.390E-02    0.318E-02
DAV:  15    -0.328064600905E+03   -0.11045E-03   -0.11333E-04  9616   0.207E-02    0.178E-02
DAV:  16    -0.328064630136E+03   -0.29231E-04   -0.26554E-05  7864   0.116E-02    0.847E-03
DAV:  17    -0.328064638002E+03   -0.78662E-05   -0.85514E-06  6624   0.702E-03
   1 F= -.32806464E+03 E0= -.32806464E+03  d E =0.000000E+00  mag=     0.0004
