 running on   48 total cores
 distrk:  each k-point on   48 cores,    1 groups
 distr:  one band on    6 cores,    8 groups
 using from now: INCAR     
 vasp.6.1.2 22Jul20 (build Mar 31 2021 18:09:49) complex                        
  
 POSCAR found type information on POSCAR LiP O 
 POSCAR found :  3 types and     100 ions
 scaLAPACK will be used
 LDA part: xc-table for Pade appr. of Perdew
 generate k-points for:    6    3    2
 POSCAR, INCAR and KPOINTS ok, starting setup
 FFT: planning ...
 WAVECAR not read
 entering main loop
       N       E                     dE             d eps       ncg     rms          rms(c)
DAV:   1     0.449670217604E+04    0.44967E+04   -0.25640E+05 27520   0.151E+03
DAV:   2    -0.260324670287E+03   -0.47570E+04   -0.45091E+04 32480   0.387E+02
DAV:   3    -0.713205072115E+03   -0.45288E+03   -0.44955E+03 34416   0.129E+02
DAV:   4    -0.743726014881E+03   -0.30521E+02   -0.30380E+02 47608   0.266E+01
DAV:   5    -0.750093080653E+03   -0.63671E+01   -0.63636E+01 44448   0.730E+00    0.107E+02
DAV:   6    -0.572514579015E+03    0.17758E+03   -0.43554E+02 33176   0.391E+01    0.584E+01
DAV:   7    -0.597280527123E+03   -0.24766E+02   -0.64008E+01 34176   0.141E+01    0.205E+01
DAV:   8    -0.613415053431E+03   -0.16135E+02   -0.12027E+01 33704   0.679E+00    0.121E+01
DAV:   9    -0.634509415400E+03   -0.21094E+02   -0.10435E+01 33504   0.544E+00    0.739E+00
DAV:  10    -0.658184239506E+03   -0.23675E+02   -0.22068E+01 33904   0.668E+00    0.406E+00
DAV:  11    -0.668249512414E+03   -0.10065E+02   -0.11864E+01 34400   0.475E+00    0.276E+00
DAV:  12    -0.670489286123E+03   -0.22398E+01   -0.31512E+00 33600   0.279E+00    0.172E+00
DAV:  13    -0.670653965829E+03   -0.16468E+00   -0.44841E-01 32360   0.120E+00    0.931E-01
DAV:  14    -0.670670299443E+03   -0.16334E-01   -0.67827E-02 34760   0.569E-01    0.558E-01
DAV:  15    -0.670668585926E+03    0.17135E-02   -0.15781E-02 31288   0.292E-01    0.270E-01
DAV:  16    -0.670669297501E+03   -0.71158E-03   -0.45194E-03 37768   0.151E-01    0.987E-02
DAV:  17    -0.670669774831E+03   -0.47733E-03   -0.15150E-03 33744   0.824E-02    0.527E-02
DAV:  18    -0.670669907741E+03   -0.13291E-03   -0.23620E-04 33784   0.384E-02    0.286E-02
DAV:  19    -0.670669937892E+03   -0.30152E-04   -0.53896E-05 28216   0.174E-02    0.134E-02
DAV:  20    -0.670669944672E+03   -0.67798E-05   -0.13078E-05 22456   0.963E-03
   1 F= -.67066994E+03 E0= -.67066994E+03  d E =0.000000E+00  mag=     0.0000
