   16   16    1    2
  0.1192927E+02  0.4791671E-09  0.5043864E-09  0.9240513E-09  0.5000000E-15
  1.000000000000000E-004
  CAR 
 unknown system                          
     80     99     54
 
  0.0000000E+00  0.0000000E+00  0.0000000E+00  0.5102041E-02
    1      -16.407495    -16.407503   1.000000   1.000000
    2      -15.691122    -15.691132   1.000000   1.000000
    3      -14.512902    -14.512907   1.000000   1.000000
    4      -12.402830    -12.402841   1.000000   1.000000
    5      -11.995959    -11.995974   1.000000   1.000000
    6      -11.894764    -11.894784   1.000000   1.000000
    7      -11.758296    -11.758312   1.000000   1.000000
    8      -11.541353    -11.541369   1.000000   1.000000
    9      -11.486893    -11.486904   1.000000   1.000000
   10      -11.056435    -11.056460   1.000000   1.000000
   11       -8.389892     -8.389890   1.000000   1.000000
   12       -8.352185     -8.352186   1.000000   1.000000
   13       -8.215877     -8.215880   1.000000   1.000000
   14       -5.500519     -5.500524   1.000000   1.000000
   15       -5.337066     -5.337073   1.000000   1.000000
   16       -4.669848     -4.669860   1.000000   1.000000
   17       -4.087592     -4.087604   1.000000   1.000000
   18       -3.440503     -3.440515   1.000000   1.000000
   19       -2.971279     -2.971283   1.000000   1.000000
   20       -2.860490     -2.860493   1.000000   1.000000
   21       -2.142784     -2.142792   1.000000   1.000000
   22       -1.996761     -1.996764   1.000000   1.000000
   23       -1.979459     -1.979465   1.000000   1.000000
   24       -1.514677     -1.514688   1.000000   1.000000
   25        0.283765      0.283763   1.000000   1.000000
   26        0.745248      0.745237   1.000000   1.000000
   27        0.818172      0.818161   1.000000   1.000000
   28        1.004377      1.004374   1.000000   1.000000
   29        1.168130      1.168121   1.000000   1.000000
   30        1.534015      1.534005   1.000000   1.000000
   31        1.668309      1.668300   1.000000   1.000000
   32        1.725775      1.725769   1.000000   1.000000
   33        1.954229      1.954228   1.000000   1.000000
   34        2.430492      2.430490   1.000000   1.000000
   35        2.616409      2.616413   1.000000   1.000000
   36        3.098725      3.098712   1.000000   1.000000
   37        3.283685      3.283676   1.000000   1.000000
   38        3.559206      3.559206   1.000000   1.000000
   39        4.083789      4.083779   1.000000   1.000000
   40        4.484031      4.484025   1.000000   1.000000
   41        8.869645      8.869668   0.000000   0.000000
   42        9.306574      9.306598   0.000000   0.000000
   43        9.805339      9.805345   0.000000   0.000000
   44        9.835550      9.835567   0.000000   0.000000
   45        9.974074      9.974120   0.000000   0.000000
   46       10.261454     10.261459   0.000000   0.000000
   47       10.819063     10.819079   0.000000   0.000000
   48       11.043008     11.043038   0.000000   0.000000
   49       11.217502     11.217521   0.000000   0.000000
   50       11.294983     11.294970   0.000000   0.000000
   51       11.628736     11.628766   0.000000   0.000000
   52       12.290179     12.290175   0.000000   0.000000
   53       12.797570     12.783473   0.000000   0.000000
   54       12.838056     12.834897   0.000000   0.000000
 
  0.1428571E+00 -0.8455943E-18 -0.8669157E-16  0.1020408E-01
    1      -16.335291    -16.335298   1.000000   1.000000
    2      -15.665104    -15.665113   1.000000   1.000000
    3      -14.444406    -14.444411   1.000000   1.000000
    4      -12.811690    -12.811698   1.000000   1.000000
    5      -12.386059    -12.386074   1.000000   1.000000
    6      -11.855010    -11.855025   1.000000   1.000000
    7      -11.752162    -11.752179   1.000000   1.000000
    8      -11.428508    -11.428526   1.000000   1.000000
    9      -11.182832    -11.182848   1.000000   1.000000
   10      -11.040578    -11.040602   1.000000   1.000000
   11       -8.942185     -8.942181   1.000000   1.000000
   12       -8.059671     -8.059674   1.000000   1.000000
   13       -7.504062     -7.504063   1.000000   1.000000
   14       -5.792838     -5.792844   1.000000   1.000000
   15       -5.157560     -5.157566   1.000000   1.000000
   16       -4.619285     -4.619296   1.000000   1.000000
   17       -4.088559     -4.088571   1.000000   1.000000
   18       -3.584603     -3.584613   1.000000   1.000000
   19       -3.020575     -3.020578   1.000000   1.000000
   20       -2.700550     -2.700556   1.000000   1.000000
   21       -2.266105     -2.266108   1.000000   1.000000
   22       -2.022722     -2.022733   1.000000   1.000000
   23       -1.876315     -1.876315   1.000000   1.000000
   24       -1.483365     -1.483378   1.000000   1.000000
   25        0.205070      0.205069   1.000000   1.000000
   26        0.534389      0.534383   1.000000   1.000000
   27        0.745753      0.745741   1.000000   1.000000
   28        1.186166      1.186153   1.000000   1.000000
   29        1.281425      1.281418   1.000000   1.000000
   30        1.559520      1.559509   1.000000   1.000000
   31        1.670620      1.670612   1.000000   1.000000
   32        1.772829      1.772827   1.000000   1.000000
   33        1.926796      1.926791   1.000000   1.000000
   34        2.360559      2.360561   1.000000   1.000000
   35        2.773015      2.773013   1.000000   1.000000
   36        3.028697      3.028685   1.000000   1.000000
   37        3.217566      3.217556   1.000000   1.000000
   38        3.480994      3.480995   1.000000   1.000000
   39        4.024158      4.024149   1.000000   1.000000
   40        4.316569      4.316564   1.000000   1.000000
   41        8.935022      8.935048   0.000000   0.000000
   42        9.370400      9.370421   0.000000   0.000000
   43        9.472879      9.472909   0.000000   0.000000
   44        9.970167      9.970191   0.000000   0.000000
   45       10.062016     10.062038   0.000000   0.000000
   46       10.375433     10.375443   0.000000   0.000000
   47       10.571772     10.571784   0.000000   0.000000
   48       11.002219     11.002225   0.000000   0.000000
   49       11.234508     11.234532   0.000000   0.000000
   50       11.483534     11.483539   0.000000   0.000000
   51       11.873596     11.873620   0.000000   0.000000
   52       12.090342     12.090334   0.000000   0.000000
   53       12.178791     12.178798   0.000000   0.000000
   54       12.887975     12.897085   0.000000   0.000000
 
  0.2857143E+00  0.4251334E-16 -0.1404713E-15  0.1020408E-01
    1      -16.135724    -16.135732   1.000000   1.000000
    2      -15.617016    -15.617026   1.000000   1.000000
    3      -14.282250    -14.282256   1.000000   1.000000
    4      -13.362116    -13.362123   1.000000   1.000000
    5      -12.890831    -12.890842   1.000000   1.000000
    6      -12.100176    -12.100190   1.000000   1.000000
    7      -11.712693    -11.712710   1.000000   1.000000
    8      -11.288149    -11.288171   1.000000   1.000000
    9      -11.047893    -11.047916   1.000000   1.000000
   10      -10.917582    -10.917603   1.000000   1.000000
   11       -8.998939     -8.998933   1.000000   1.000000
   12       -7.601173     -7.601177   1.000000   1.000000
   13       -6.842986     -6.842989   1.000000   1.000000
   14       -6.048100     -6.048106   1.000000   1.000000
   15       -4.998534     -4.998542   1.000000   1.000000
   16       -4.645285     -4.645296   1.000000   1.000000
   17       -4.078901     -4.078912   1.000000   1.000000
   18       -3.757277     -3.757288   1.000000   1.000000
   19       -3.025033     -3.025037   1.000000   1.000000
   20       -2.654952     -2.654961   1.000000   1.000000
   21       -2.215551     -2.215554   1.000000   1.000000
   22       -2.122963     -2.122971   1.000000   1.000000
   23       -1.723986     -1.723987   1.000000   1.000000
   24       -1.469578     -1.469594   1.000000   1.000000
   25        0.118953      0.118957   1.000000   1.000000
   26        0.225082      0.225074   1.000000   1.000000
   27        0.776448      0.776433   1.000000   1.000000
   28        0.961264      0.961257   1.000000   1.000000
   29        1.380219      1.380211   1.000000   1.000000
   30        1.569487      1.569475   1.000000   1.000000
   31        1.667696      1.667692   1.000000   1.000000
   32        1.925888      1.925884   1.000000   1.000000
   33        2.147286      2.147281   1.000000   1.000000
   34        2.372038      2.372041   1.000000   1.000000
   35        2.750999      2.750996   1.000000   1.000000
   36        2.924783      2.924773   1.000000   1.000000
   37        3.054998      3.054988   1.000000   1.000000
   38        3.370542      3.370544   1.000000   1.000000
   39        3.897635      3.897625   1.000000   1.000000
   40        4.090509      4.090508   1.000000   1.000000
   41        8.883475      8.883516   0.000000   0.000000
   42        9.032101      9.032129   0.000000   0.000000
   43        9.662896      9.662917   0.000000   0.000000
   44        9.841900      9.841926   0.000000   0.000000
   45       10.145098     10.145116   0.000000   0.000000
   46       10.634810     10.634815   0.000000   0.000000
   47       10.674594     10.674604   0.000000   0.000000
   48       11.114980     11.114978   0.000000   0.000000
   49       11.390376     11.390403   0.000000   0.000000
   50       11.650852     11.650855   0.000000   0.000000
   51       11.857689     11.857704   0.000000   0.000000
   52       11.996695     11.996692   0.000000   0.000000
   53       12.223099     12.223114   0.000000   0.000000
   54       12.734161     12.734234   0.000000   0.000000
 
  0.4285714E+00 -0.2041916E-16 -0.2404740E-15  0.1020408E-01
    1      -15.878631    -15.878641   1.000000   1.000000
    2      -15.641880    -15.641889   1.000000   1.000000
    3      -14.194403    -14.194409   1.000000   1.000000
    4      -13.581769    -13.581776   1.000000   1.000000
    5      -13.278186    -13.278192   1.000000   1.000000
    6      -12.351914    -12.351927   1.000000   1.000000
    7      -11.700563    -11.700579   1.000000   1.000000
    8      -11.171745    -11.171769   1.000000   1.000000
    9      -11.036341    -11.036364   1.000000   1.000000
   10      -10.964279    -10.964300   1.000000   1.000000
   11       -8.681372     -8.681367   1.000000   1.000000
   12       -7.235148     -7.235152   1.000000   1.000000
   13       -7.007473     -7.007476   1.000000   1.000000
   14       -5.563442     -5.563449   1.000000   1.000000
   15       -5.060169     -5.060178   1.000000   1.000000
   16       -4.793686     -4.793695   1.000000   1.000000
   17       -4.099108     -4.099118   1.000000   1.000000
   18       -3.806366     -3.806377   1.000000   1.000000
   19       -2.857231     -2.857237   1.000000   1.000000
   20       -2.682207     -2.682213   1.000000   1.000000
   21       -2.352080     -2.352092   1.000000   1.000000
   22       -1.995944     -1.995946   1.000000   1.000000
   23       -1.624836     -1.624840   1.000000   1.000000
   24       -1.536376     -1.536391   1.000000   1.000000
   25        0.022159      0.022157   1.000000   1.000000
   26        0.126955      0.126957   1.000000   1.000000
   27        0.524958      0.524943   1.000000   1.000000
   28        0.984276      0.984267   1.000000   1.000000
   29        1.308290      1.308285   1.000000   1.000000
   30        1.595976      1.595977   1.000000   1.000000
   31        1.774606      1.774595   1.000000   1.000000
   32        1.965571      1.965560   1.000000   1.000000
   33        2.167707      2.167703   1.000000   1.000000
   34        2.486890      2.486888   1.000000   1.000000
   35        2.541169      2.541167   1.000000   1.000000
   36        2.784566      2.784561   1.000000   1.000000
   37        3.061638      3.061627   1.000000   1.000000
   38        3.312315      3.312320   1.000000   1.000000
   39        3.758024      3.758018   1.000000   1.000000
   40        4.137256      4.137250   1.000000   1.000000
   41        8.411252      8.411300   0.000000   0.000000
   42        9.037218      9.037252   0.000000   0.000000
   43        9.815520      9.815530   0.000000   0.000000
   44        9.929263      9.929285   0.000000   0.000000
   45       10.337298     10.337309   0.000000   0.000000
   46       10.741600     10.741595   0.000000   0.000000
   47       11.108099     11.108125   0.000000   0.000000
   48       11.224736     11.224765   0.000000   0.000000
   49       11.552355     11.552360   0.000000   0.000000
   50       11.713018     11.713025   0.000000   0.000000
   51       11.779271     11.779286   0.000000   0.000000
   52       11.964053     11.964067   0.000000   0.000000
   53       12.307730     12.307723   0.000000   0.000000
   54       12.482623     12.482635   0.000000   0.000000
 
  0.3617135E-17  0.1428571E+00 -0.1305412E-15  0.1020408E-01
    1      -16.354908    -16.354915   1.000000   1.000000
    2      -15.688658    -15.688668   1.000000   1.000000
    3      -14.476258    -14.476263   1.000000   1.000000
    4      -12.632583    -12.632593   1.000000   1.000000
    5      -12.217345    -12.217358   1.000000   1.000000
    6      -11.947232    -11.947248   1.000000   1.000000
    7      -11.826861    -11.826879   1.000000   1.000000
    8      -11.510446    -11.510463   1.000000   1.000000
    9      -11.144563    -11.144579   1.000000   1.000000
   10      -11.039880    -11.039905   1.000000   1.000000
   11       -8.937000     -8.936995   1.000000   1.000000
   12       -8.080147     -8.080151   1.000000   1.000000
   13       -7.617374     -7.617376   1.000000   1.000000
   14       -5.701285     -5.701290   1.000000   1.000000
   15       -5.171404     -5.171412   1.000000   1.000000
   16       -4.665520     -4.665531   1.000000   1.000000
   17       -4.084853     -4.084866   1.000000   1.000000
   18       -3.591203     -3.591214   1.000000   1.000000
   19       -2.988158     -2.988161   1.000000   1.000000
   20       -2.652030     -2.652035   1.000000   1.000000
   21       -2.241752     -2.241756   1.000000   1.000000
   22       -2.126374     -2.126384   1.000000   1.000000
   23       -1.836312     -1.836315   1.000000   1.000000
   24       -1.527927     -1.527940   1.000000   1.000000
   25        0.121101      0.121101   1.000000   1.000000
   26        0.546351      0.546340   1.000000   1.000000
   27        0.826731      0.826717   1.000000   1.000000
   28        1.082882      1.082880   1.000000   1.000000
   29        1.409624      1.409615   1.000000   1.000000
   30        1.470698      1.470688   1.000000   1.000000
   31        1.648305      1.648301   1.000000   1.000000
   32        1.725244      1.725238   1.000000   1.000000
   33        2.037121      2.037118   1.000000   1.000000
   34        2.382324      2.382324   1.000000   1.000000
   35        2.714991      2.714990   1.000000   1.000000
   36        3.036625      3.036614   1.000000   1.000000
   37        3.226538      3.226530   1.000000   1.000000
   38        3.490926      3.490927   1.000000   1.000000
   39        4.018420      4.018411   1.000000   1.000000
   40        4.346984      4.346979   1.000000   1.000000
   41        9.027975      9.028000   0.000000   0.000000
   42        9.199111      9.199137   0.000000   0.000000
   43        9.487275      9.487297   0.000000   0.000000
   44        9.997367      9.997399   0.000000   0.000000
   45       10.216246     10.216258   0.000000   0.000000
   46       10.416439     10.416448   0.000000   0.000000
   47       10.563382     10.563394   0.000000   0.000000
   48       10.816737     10.816765   0.000000   0.000000
   49       11.207505     11.207501   0.000000   0.000000
   50       11.754888     11.754882   0.000000   0.000000
   51       11.812258     11.812282   0.000000   0.000000
   52       12.068449     12.068459   0.000000   0.000000
   53       12.679611     12.679663   0.000000   0.000000
   54       13.037202     13.044760   0.000000   0.000000
 
  0.1428571E+00  0.1428571E+00 -0.1750328E-15  0.1020408E-01
    1      -16.287310    -16.287317   1.000000   1.000000
    2      -15.690426    -15.690436   1.000000   1.000000
    3      -14.345990    -14.345995   1.000000   1.000000
    4      -12.814473    -12.814483   1.000000   1.000000
    5      -12.468908    -12.468920   1.000000   1.000000
    6      -12.279999    -12.280008   1.000000   1.000000
    7      -11.650620    -11.650640   1.000000   1.000000
    8      -11.362130    -11.362147   1.000000   1.000000
    9      -11.232406    -11.232423   1.000000   1.000000
   10      -11.064023    -11.064047   1.000000   1.000000
   11       -8.155846     -8.155846   1.000000   1.000000
   12       -8.079495     -8.079496   1.000000   1.000000
   13       -7.903692     -7.903694   1.000000   1.000000
   14       -5.984581     -5.984586   1.000000   1.000000
   15       -4.824167     -4.824175   1.000000   1.000000
   16       -4.606828     -4.606839   1.000000   1.000000
   17       -4.020059     -4.020073   1.000000   1.000000
   18       -3.527816     -3.527827   1.000000   1.000000
   19       -3.120382     -3.120385   1.000000   1.000000
   20       -2.758816     -2.758825   1.000000   1.000000
   21       -2.208387     -2.208390   1.000000   1.000000
   22       -2.082679     -2.082679   1.000000   1.000000
   23       -1.922393     -1.922403   1.000000   1.000000
   24       -1.505989     -1.506001   1.000000   1.000000
   25        0.088869      0.088872   1.000000   1.000000
   26        0.491927      0.491914   1.000000   1.000000
   27        0.595087      0.595076   1.000000   1.000000
   28        1.091578      1.091576   1.000000   1.000000
   29        1.355142      1.355133   1.000000   1.000000
   30        1.582464      1.582451   1.000000   1.000000
   31        1.663356      1.663354   1.000000   1.000000
   32        1.906009      1.906002   1.000000   1.000000
   33        2.007335      2.007329   1.000000   1.000000
   34        2.426602      2.426602   1.000000   1.000000
   35        2.779813      2.779814   1.000000   1.000000
   36        2.983074      2.983062   1.000000   1.000000
   37        3.179981      3.179973   1.000000   1.000000
   38        3.435956      3.435954   1.000000   1.000000
   39        3.894479      3.894471   1.000000   1.000000
   40        4.241490      4.241485   1.000000   1.000000
   41        8.952396      8.952429   0.000000   0.000000
   42        9.303052      9.303083   0.000000   0.000000
   43        9.432390      9.432414   0.000000   0.000000
   44        9.792974      9.792994   0.000000   0.000000
   45       10.240185     10.240196   0.000000   0.000000
   46       10.382452     10.382466   0.000000   0.000000
   47       10.663250     10.663246   0.000000   0.000000
   48       10.963570     10.963593   0.000000   0.000000
   49       11.289472     11.289475   0.000000   0.000000
   50       11.349202     11.349191   0.000000   0.000000
   51       11.949601     11.949632   0.000000   0.000000
   52       12.279241     12.279253   0.000000   0.000000
   53       12.618776     12.618791   0.000000   0.000000
   54       12.864912     12.864883   0.000000   0.000000
 
  0.2857143E+00  0.1428571E+00 -0.2987681E-15  0.1020408E-01
    1      -16.088684    -16.088692   1.000000   1.000000
    2      -15.647845    -15.647855   1.000000   1.000000
    3      -14.131305    -14.131312   1.000000   1.000000
    4      -13.328285    -13.328293   1.000000   1.000000
    5      -13.015880    -13.015890   1.000000   1.000000
    6      -12.455752    -12.455762   1.000000   1.000000
    7      -11.606171    -11.606190   1.000000   1.000000
    8      -11.230264    -11.230283   1.000000   1.000000
    9      -11.163193    -11.163214   1.000000   1.000000
   10      -11.026248    -11.026271   1.000000   1.000000
   11       -8.251834     -8.251833   1.000000   1.000000
   12       -7.626705     -7.626709   1.000000   1.000000
   13       -7.234663     -7.234665   1.000000   1.000000
   14       -6.199748     -6.199753   1.000000   1.000000
   15       -4.636932     -4.636943   1.000000   1.000000
   16       -4.541495     -4.541504   1.000000   1.000000
   17       -4.015662     -4.015674   1.000000   1.000000
   18       -3.655481     -3.655492   1.000000   1.000000
   19       -3.170103     -3.170106   1.000000   1.000000
   20       -2.830601     -2.830613   1.000000   1.000000
   21       -2.189147     -2.189150   1.000000   1.000000
   22       -2.018059     -2.018066   1.000000   1.000000
   23       -1.943879     -1.943882   1.000000   1.000000
   24       -1.438622     -1.438634   1.000000   1.000000
   25        0.016693      0.016698   1.000000   1.000000
   26        0.367987      0.367975   1.000000   1.000000
   27        0.511089      0.511080   1.000000   1.000000
   28        0.995920      0.995912   1.000000   1.000000
   29        1.273235      1.273230   1.000000   1.000000
   30        1.486663      1.486657   1.000000   1.000000
   31        1.630660      1.630649   1.000000   1.000000
   32        2.132364      2.132357   1.000000   1.000000
   33        2.206209      2.206204   1.000000   1.000000
   34        2.417054      2.417055   1.000000   1.000000
   35        2.767142      2.767135   1.000000   1.000000
   36        2.913124      2.913117   1.000000   1.000000
   37        3.088515      3.088508   1.000000   1.000000
   38        3.330133      3.330133   1.000000   1.000000
   39        3.779478      3.779468   1.000000   1.000000
   40        3.973906      3.973906   1.000000   1.000000
   41        8.841746      8.841785   0.000000   0.000000
   42        9.080603      9.080640   0.000000   0.000000
   43        9.548886      9.548906   0.000000   0.000000
   44        9.947001      9.947014   0.000000   0.000000
   45       10.170124     10.170145   0.000000   0.000000
   46       10.372820     10.372824   0.000000   0.000000
   47       10.727844     10.727856   0.000000   0.000000
   48       11.175438     11.175429   0.000000   0.000000
   49       11.364400     11.364412   0.000000   0.000000
   50       11.470262     11.470260   0.000000   0.000000
   51       11.970870     11.970881   0.000000   0.000000
   52       12.355210     12.355225   0.000000   0.000000
   53       12.637129     12.636867   0.000000   0.000000
   54       12.715321     12.715180   0.000000   0.000000
 
  0.4285714E+00  0.1428571E+00 -0.2577262E-15  0.1020408E-01
    1      -15.827734    -15.827744   1.000000   1.000000
    2      -15.638616    -15.638625   1.000000   1.000000
    3      -14.078937    -14.078944   1.000000   1.000000
    4      -13.624073    -13.624082   1.000000   1.000000
    5      -13.373408    -13.373413   1.000000   1.000000
    6      -12.566083    -12.566093   1.000000   1.000000
    7      -11.614159    -11.614176   1.000000   1.000000
    8      -11.180325    -11.180343   1.000000   1.000000
    9      -11.135197    -11.135220   1.000000   1.000000
   10      -11.028712    -11.028735   1.000000   1.000000
   11       -8.186888     -8.186886   1.000000   1.000000
   12       -7.261078     -7.261083   1.000000   1.000000
   13       -7.099564     -7.099567   1.000000   1.000000
   14       -5.718145     -5.718152   1.000000   1.000000
   15       -4.960659     -4.960670   1.000000   1.000000
   16       -4.584159     -4.584167   1.000000   1.000000
   17       -3.953573     -3.953583   1.000000   1.000000
   18       -3.870255     -3.870266   1.000000   1.000000
   19       -3.018830     -3.018836   1.000000   1.000000
   20       -2.775944     -2.775952   1.000000   1.000000
   21       -2.362943     -2.362953   1.000000   1.000000
   22       -1.976746     -1.976753   1.000000   1.000000
   23       -1.737337     -1.737339   1.000000   1.000000
   24       -1.434071     -1.434082   1.000000   1.000000
   25       -0.032471     -0.032474   1.000000   1.000000
   26        0.270636      0.270638   1.000000   1.000000
   27        0.517498      0.517483   1.000000   1.000000
   28        0.754550      0.754544   1.000000   1.000000
   29        1.371502      1.371495   1.000000   1.000000
   30        1.556008      1.556003   1.000000   1.000000
   31        1.635738      1.635731   1.000000   1.000000
   32        2.005569      2.005561   1.000000   1.000000
   33        2.264033      2.264029   1.000000   1.000000
   34        2.393997      2.393995   1.000000   1.000000
   35        2.470535      2.470533   1.000000   1.000000
   36        2.846539      2.846533   1.000000   1.000000
   37        3.134675      3.134667   1.000000   1.000000
   38        3.337348      3.337349   1.000000   1.000000
   39        3.689203      3.689194   1.000000   1.000000
   40        3.999826      3.999822   1.000000   1.000000
   41        8.452222      8.452267   0.000000   0.000000
   42        9.177246      9.177282   0.000000   0.000000
   43        9.668831      9.668843   0.000000   0.000000
   44       10.036242     10.036258   0.000000   0.000000
   45       10.243329     10.243342   0.000000   0.000000
   46       10.479976     10.479983   0.000000   0.000000
   47       10.714608     10.714624   0.000000   0.000000
   48       11.415510     11.415523   0.000000   0.000000
   49       11.633400     11.633413   0.000000   0.000000
   50       11.659709     11.659701   0.000000   0.000000
   51       12.037310     12.037318   0.000000   0.000000
   52       12.318803     12.318810   0.000000   0.000000
   53       12.435941     12.435936   0.000000   0.000000
   54       12.775310     12.775710   0.000000   0.000000
 
 -0.4285714E+00  0.1428571E+00  0.2099932E-16  0.1020408E-01
    1      -15.846984    -15.846993   1.000000   1.000000
    2      -15.557050    -15.557060   1.000000   1.000000
    3      -14.191934    -14.191940   1.000000   1.000000
    4      -13.785434    -13.785440   1.000000   1.000000
    5      -13.296027    -13.296035   1.000000   1.000000
    6      -12.323266    -12.323277   1.000000   1.000000
    7      -11.637752    -11.637770   1.000000   1.000000
    8      -11.241841    -11.241860   1.000000   1.000000
    9      -11.089196    -11.089216   1.000000   1.000000
   10      -11.047278    -11.047301   1.000000   1.000000
   11       -8.590759     -8.590756   1.000000   1.000000
   12       -7.004808     -7.004813   1.000000   1.000000
   13       -6.815275     -6.815278   1.000000   1.000000
   14       -5.470101     -5.470110   1.000000   1.000000
   15       -5.151910     -5.151917   1.000000   1.000000
   16       -4.872927     -4.872935   1.000000   1.000000
   17       -4.076088     -4.076099   1.000000   1.000000
   18       -3.962137     -3.962146   1.000000   1.000000
   19       -2.849270     -2.849277   1.000000   1.000000
   20       -2.761905     -2.761909   1.000000   1.000000
   21       -2.424770     -2.424781   1.000000   1.000000
   22       -1.874730     -1.874738   1.000000   1.000000
   23       -1.674159     -1.674167   1.000000   1.000000
   24       -1.424618     -1.424626   1.000000   1.000000
   25       -0.000921     -0.000931   1.000000   1.000000
   26        0.238615      0.238621   1.000000   1.000000
   27        0.515608      0.515595   1.000000   1.000000
   28        0.980220      0.980212   1.000000   1.000000
   29        1.321593      1.321588   1.000000   1.000000
   30        1.629014      1.629015   1.000000   1.000000
   31        1.693243      1.693231   1.000000   1.000000
   32        1.735164      1.735158   1.000000   1.000000
   33        2.110825      2.110824   1.000000   1.000000
   34        2.402578      2.402574   1.000000   1.000000
   35        2.614188      2.614189   1.000000   1.000000
   36        2.804292      2.804284   1.000000   1.000000
   37        3.029219      3.029209   1.000000   1.000000
   38        3.324742      3.324746   1.000000   1.000000
   39        3.735228      3.735220   1.000000   1.000000
   40        4.067658      4.067651   1.000000   1.000000
   41        8.491578      8.491625   0.000000   0.000000
   42        9.087945      9.087977   0.000000   0.000000
   43        9.811002      9.811022   0.000000   0.000000
   44       10.013399     10.013410   0.000000   0.000000
   45       10.297009     10.297026   0.000000   0.000000
   46       10.548191     10.548214   0.000000   0.000000
   47       10.639989     10.639990   0.000000   0.000000
   48       11.530177     11.530188   0.000000   0.000000
   49       11.608612     11.608632   0.000000   0.000000
   50       11.710943     11.710950   0.000000   0.000000
   51       12.052888     12.052898   0.000000   0.000000
   52       12.258533     12.258541   0.000000   0.000000
   53       12.447541     12.447526   0.000000   0.000000
   54       12.669068     12.669049   0.000000   0.000000
 
 -0.2857143E+00  0.1428571E+00 -0.1506590E-15  0.1020408E-01
    1      -16.084338    -16.084346   1.000000   1.000000
    2      -15.537529    -15.537539   1.000000   1.000000
    3      -14.342336    -14.342342   1.000000   1.000000
    4      -13.556904    -13.556910   1.000000   1.000000
    5      -12.989821    -12.989831   1.000000   1.000000
    6      -11.881120    -11.881135   1.000000   1.000000
    7      -11.681458    -11.681476   1.000000   1.000000
    8      -11.404092    -11.404112   1.000000   1.000000
    9      -11.054469    -11.054492   1.000000   1.000000
   10      -10.925121    -10.925142   1.000000   1.000000
   11       -9.244871     -9.244864   1.000000   1.000000
   12       -7.235897     -7.235902   1.000000   1.000000
   13       -6.284179     -6.284183   1.000000   1.000000
   14       -5.961399     -5.961406   1.000000   1.000000
   15       -5.458846     -5.458853   1.000000   1.000000
   16       -4.614351     -4.614362   1.000000   1.000000
   17       -4.141106     -4.141116   1.000000   1.000000