       N       E                     dE             d eps       ncg     rms          rms(c)
DAV:   1     0.473968888458E+03    0.47397E+03   -0.40423E+04 21384   0.136E+03
DAV:   2    -0.100464063985E+03   -0.57443E+03   -0.55036E+03 27154   0.310E+02
DAV:   3    -0.137248941742E+03   -0.36785E+02   -0.36482E+02 26592   0.841E+01
DAV:   4    -0.137956487925E+03   -0.70755E+00   -0.70471E+00 27768   0.121E+01
DAV:   5    -0.137975094780E+03   -0.18607E-01   -0.18583E-01 26350   0.185E+00    0.481E+01
DAV:   6    -0.117529292856E+03    0.20446E+02   -0.67661E+01 24878   0.325E+01    0.242E+01
DAV:   7    -0.119687107492E+03   -0.21578E+01   -0.11062E+01 26112   0.120E+01    0.776E+00
DAV:   8    -0.119655376690E+03    0.31731E-01   -0.63270E-01 25364   0.367E+00    0.476E+00
DAV:   9    -0.119657923851E+03   -0.25472E-02   -0.70702E-02 25922   0.136E+00    0.234E+00
DAV:  10    -0.119656573356E+03    0.13505E-02   -0.28702E-02 25592   0.862E-01    0.486E-01
DAV:  11    -0.119659434893E+03   -0.28615E-02   -0.55916E-03 24462   0.415E-01    0.258E-01
DAV:  12    -0.119659969606E+03   -0.53471E-03   -0.59150E-04 27430   0.137E-01    0.146E-01
DAV:  13    -0.119660269776E+03   -0.30017E-03   -0.27533E-04 25258   0.831E-02    0.609E-02
DAV:  14    -0.119660343585E+03   -0.73810E-04   -0.48611E-05 24002   0.356E-02    0.199E-02
DAV:  15    -0.119660360142E+03   -0.16557E-04   -0.11709E-05 16938   0.178E-02    0.106E-02
DAV:  16    -0.119660364712E+03   -0.45701E-05   -0.55144E-06 16432   0.106E-02
   1 F= -.11966036E+03 E0= -.11966036E+03  d E =0.000000E+00  mag=    -0.0004
