    1    1    1    2
  0.2072432E+02  0.3056742E-09  0.2967711E-09  0.2967711E-09  0.5000000E-15
  1.000000000000000E-004
  CAR 
 unknown system                          
      3    595      6
 
  0.0000000E+00  0.0000000E+00  0.0000000E+00  0.4551661E-03
    1      -46.007520    -46.006085   1.000000   1.000000
    2       -2.966481     -2.966758   1.000000   1.000000
    3       14.569299     14.569263   0.000000   0.000000
    4       15.036716     15.036599   0.000000   0.000000
    5       15.148178     15.148057   0.000000   0.000000
    6       19.145660     19.145660   0.000000   0.000000
 
  0.7692308E-01  0.2016059E-17 -0.2016059E-17  0.9103323E-03
    1      -46.006583    -46.005148   1.000000   1.000000
    2       -2.859695     -2.859974   1.000000   1.000000
    3       13.700170     13.700176   0.000000   0.000000
    4       14.508550     14.508464   0.000000   0.000000
    5       14.952314     14.952144   0.000000   0.000000
    6       18.094363     18.093870   0.000000   0.000000
 
  0.1538462E+00 -0.2133852E-17  0.2133852E-17  0.9103323E-03
    1      -46.004053    -46.002617   1.000000   1.000000
    2       -2.539518     -2.539805   1.000000   1.000000
    3       11.582402     11.582572   0.000000   0.000000
    4       13.566328     13.566282   0.000000   0.000000
    5       14.438126     14.437848   0.000000   0.000000
    6       17.213951     17.213787   0.000000   0.000000
 
  0.2307692E+00  0.1870832E-17 -0.1870832E-17  0.9103323E-03
    1      -46.000480    -45.999043   1.000000   1.000000
    2       -2.006920     -2.007218   1.000000   1.000000
    3        9.223534      9.223584   0.000000   0.000000
    4       12.648785     12.648762   0.000000   0.000000
    5       13.798440     13.798065   0.000000   0.000000
    6       16.095548     16.095313   0.000000   0.000000
 
  0.3076923E+00 -0.4267704E-17  0.4267704E-17  0.9103323E-03
    1      -45.996633    -45.995196   1.000000   1.000000
    2       -1.270286     -1.270602   1.000000   1.000000
    3        7.015161      7.014925   0.000000   0.000000
    4       11.907763     11.907750   0.000000   0.000000
    5       13.214639     13.214201   0.000000   0.000000
    6       15.244109     15.243862   0.000000   0.000000
 
  0.3846154E+00 -0.2630203E-18  0.2630203E-18  0.9103323E-03
    1      -45.993456    -45.992019   1.000000   1.000000
    2       -0.371223     -0.371567   1.037668   1.037523
    3        5.105695      5.105464   0.000000   0.000000
    4       11.397511     11.397504   0.000000   0.000000
    5       12.788601     12.788125   0.000000   0.000000
    6       14.672675     14.672423   0.000000   0.000000
 
  0.4615385E+00 -0.6401556E-17  0.6401556E-17  0.9103323E-03
    1      -45.991665    -45.990227   1.000000   1.000000
    2        0.478351      0.477959   0.960583   0.961371
    3        3.744389      3.744196   0.000000   0.000000
    4       11.138692     11.138688   0.000000   0.000000
    5       12.566757     12.566265   0.000000   0.000000
    6       14.386076     14.385822   0.000000   0.000000
 
 -0.5801219E-18  0.7692308E-01  0.8301413E-15  0.1820665E-02
    1      -46.006433    -46.004998   1.000000   1.000000
    2       -2.853062     -2.853342   1.000000   1.000000
    3       14.121289     14.121257   0.000000   0.000000
    4       14.404043     14.404028   0.000000   0.000000
    5       14.824708     14.824574   0.000000   0.000000
    6       17.997374     17.997003   0.000000   0.000000
 
  0.7692308E-01  0.7692308E-01  0.8092972E-15  0.1820665E-02
    1      -46.004637    -46.003201   1.000000   1.000000
    2       -2.636252     -2.636537   1.000000   1.000000
    3       12.669678     12.669717   0.000000   0.000000
    4       13.522230     13.522236   0.000000   0.000000
    5       14.392900     14.392708   0.000000   0.000000
    6       17.330016     17.329492   0.000000   0.000000
 
  0.1538462E+00  0.7692308E-01  0.8649810E-15  0.1820665E-02
    1      -46.001521    -46.000085   1.000000   1.000000
    2       -2.205896     -2.206189   1.000000   1.000000
    3       10.403288     10.403160   0.000000   0.000000
    4       12.521421     12.521398   0.000000   0.000000
    5       13.666009     13.665735   0.000000   0.000000
    6       17.160148     17.157145   0.000000   0.000000
 
  0.2307692E+00  0.7692308E-01  0.7955646E-15  0.1820665E-02
    1      -45.997792    -45.996356   1.000000   1.000000
    2       -1.565146     -1.565454   1.000000   1.000000
    3        8.108003      8.107768   0.000000   0.000000
    4       11.675234     11.675201   0.000000   0.000000
    5       12.921827     12.921506   0.000000   0.000000
    6       16.596237     16.596149   0.000000   0.000000
 
  0.3076923E+00  0.7692308E-01  0.8017032E-15  0.1820665E-02
    1      -45.994323    -45.992886   1.000000   1.000000
    2       -0.732242     -0.732571   1.014641   1.014603
    3        6.035741      6.035494   0.000000   0.000000
    4       11.043214     11.043188   0.000000   0.000000
    5       12.321526     12.321184   0.000000   0.000000
    6       16.070408     16.070334   0.000000   0.000000
 
  0.3846154E+00  0.7692308E-01  0.8254540E-15  0.1820665E-02
    1      -45.991919    -45.990480   1.000000   1.000000
    2        0.202680      0.202315   1.000965   1.001407
    3        4.343386      4.343158   0.000000   0.000000
    4       10.649015     10.648978   0.000000   0.000000
    5       11.932573     11.932225   0.000000   0.000000
    6       15.755734     15.755689   0.000000   0.000000
 
  0.4615385E+00  0.7692308E-01  0.8831265E-15  0.1820665E-02
    1      -45.991084    -45.989646   1.000000   1.000000
    2        0.754693      0.754287   0.294216   0.295293
    3        3.540063      3.539869   0.000000   0.000000
    4       10.502293     10.502246   0.000000   0.000000
    5       11.781114     11.780770   0.000000   0.000000
    6       15.679336     15.679253   0.000000   0.000000
 
 -0.4615385E+00  0.7692308E-01  0.7632783E-15  0.1820665E-02
    1      -45.992076    -45.990638   1.000000   1.000000
    2        0.178851      0.178487   1.057458   1.057492
    3        4.376323      4.376093   0.000000   0.000000
    4       10.604334     10.604288   0.000000   0.000000
    5       11.874287     11.873951   0.000000   0.000000
    6       15.844856     15.844772   0.000000   0.000000
 
 -0.3846154E+00  0.7692308E-01  0.8249280E-15  0.1820665E-02
    1      -45.994585    -45.993148   1.000000   1.000000
    2       -0.757237     -0.757566   1.000242   1.000235
    3        6.079450      6.079197   0.000000   0.000000
    4       10.950367     10.950324   0.000000   0.000000
    5       12.206408     12.206086   0.000000   0.000000
    6       16.238042     16.238193   0.000000   0.000000
 
 -0.3076923E+00  0.7692308E-01  0.8070455E-15  0.1820665E-02
    1      -45.998176    -45.996740   1.000000   1.000000
    2       -1.586317     -1.586625   1.000000   1.000000
    3        8.158645      8.158401   0.000000   0.000000
    4       11.525978     11.525938   0.000000   0.000000
    5       12.755638     12.755338   0.000000   0.000000
    6       16.810916     16.811542   0.000000   0.000000
 
 -0.2307692E+00  0.7692308E-01  0.8111954E-15  0.1820665E-02
    1      -46.001834    -46.000398   1.000000   1.000000
    2       -2.221604     -2.221898   1.000000   1.000000
    3       10.467144     10.467015   0.000000   0.000000
    4       12.301933     12.301959   0.000000   0.000000
    5       13.469822     13.469556   0.000000   0.000000
    6       17.420031     17.451947   0.000000   0.000000
 
 -0.1538462E+00  0.7692308E-01  0.8557630E-15  0.1820665E-02
    1      -46.004835    -46.003399   1.000000   1.000000
    2       -2.645918     -2.646203   1.000000   1.000000
    3       12.771681     12.771686   0.000000   0.000000
    4       13.221258     13.221250   0.000000   0.000000
    5       14.236330     14.236115   0.000000   0.000000
    6       17.673841     17.687327   0.000000   0.000000
 
 -0.7692308E-01  0.7692308E-01  0.7941832E-15  0.1820665E-02
    1      -46.006513    -46.005078   1.000000   1.000000
    2       -2.856385     -2.856665   1.000000   1.000000
    3       14.009532     14.009569   0.000000   0.000000
    4       14.367777     14.367681   0.000000   0.000000
    5       14.841529     14.841361   0.000000   0.000000
    6       18.123448     18.122860   0.000000   0.000000
 
 -0.1280710E-16  0.1538462E+00  0.5242898E-14  0.1820665E-02
    1      -46.003485    -46.002049   1.000000   1.000000
    2       -2.512904     -2.513192   1.000000   1.000000
    3       12.426127     12.426231   0.000000   0.000000
    4       13.133219     13.133186   0.000000   0.000000
    5       14.259643     14.259415   0.000000   0.000000
    6       16.595687     16.597065   0.000000   0.000000
 
  0.7692308E-01  0.1538462E+00  0.5230981E-14  0.1820665E-02
    1      -46.001094    -45.999658   1.000000   1.000000
    2       -2.185436     -2.185731   1.000000   1.000000
    3       11.205141     11.204948   0.000000   0.000000
    4       11.710771     11.711072   0.000000   0.000000
    5       13.614839     13.614609   0.000000   0.000000
    6       16.860264     16.859878   0.000000   0.000000
 
  0.1538462E+00  0.1538462E+00  0.5243043E-14  0.1820665E-02
    1      -45.997856    -45.996419   1.000000   1.000000
    2       -1.644335     -1.644641   1.000000   1.000000
    3        9.239972      9.239681   0.000000   0.000000
    4       10.508165     10.508126   0.000000   0.000000
    5       12.869293     12.869073   0.000000   0.000000
    6       17.154857     17.154377   0.000000   0.000000
 
  0.2307692E+00  0.1538462E+00  0.5215260E-14  0.1820665E-02
    1      -45.994478    -45.993040   1.000000   1.000000
    2       -0.895427     -0.895750   1.011427   1.011403
    3        7.100467      7.100163   0.000000   0.000000
    4        9.736732      9.736626   0.000000   0.000000
    5       12.233958     12.233749   0.000000   0.000000
    6       17.298159     17.298143   0.000000   0.000000
 
  0.3076923E+00  0.1538462E+00  0.5173842E-14  0.1820665E-02
    1      -45.991769    -45.990332   1.000000   1.000000
    2        0.026953      0.026605   0.960479   0.960701
    3        5.203532      5.203242   0.000000   0.000000
    4        9.213222      9.213097   0.000000   0.000000
    5       11.777233     11.777034   0.000000   0.000000
    6       17.279989     17.279916   0.000000   0.000000
 
  0.3846154E+00  0.1538462E+00  0.5268928E-14  0.1820665E-02
    1      -45.990346    -45.988908   1.000000   1.000000
    2        0.921781      0.921390   0.141706   0.142005
    3        3.815393      3.815139   0.000000   0.000000
    4        8.935294      8.935162   0.000000   0.000000
    5       11.531664     11.531473   0.000000   0.000000
    6       17.233519     17.233361   0.000000   0.000000
 
  0.4615385E+00  0.1538462E+00  0.5251288E-14  0.1820665E-02
    1      -45.990490    -45.989053   1.000000   1.000000
    2        0.886793      0.886405   0.123085   0.123400
    3        3.856896      3.856637   0.000000   0.000000
    4        8.906337      8.906203   0.000000   0.000000
    5       11.508485     11.508297   0.000000   0.000000
    6       17.281528     17.281276   0.000000   0.000000
 
 -0.4615385E+00  0.1538462E+00  0.5210729E-14  0.1820665E-02
    1      -45.992244    -45.990806   1.000000   1.000000
    2       -0.025556     -0.025903   1.039719   1.039831
    3        5.273568      5.273271   0.000000   0.000000
    4        9.127811      9.127683   0.000000   0.000000
    5       11.704907     11.704719   0.000000   0.000000
    6       17.423694     17.423609   0.000000   0.000000
 
 -0.3846154E+00  0.1538462E+00  0.5230746E-14  0.1820665E-02
    1      -45.995117    -45.993679   1.000000   1.000000
    2       -0.942797     -0.943120   1.000000   1.000000
    3        7.167681      7.167364   0.000000   0.000000
    4        9.604555      9.604448   0.000000   0.000000
    5       12.105984     12.105788   0.000000   0.000000
    6       17.540642     17.540543   0.000000   0.000000
 
 -0.3076923E+00  0.1538462E+00  0.5198986E-14  0.1820665E-02
    1      -45.998536    -45.997100   1.000000   1.000000
    2       -1.681838     -1.682145   1.000000   1.000000
    3        9.247146      9.246811   0.000000   0.000000
    4       10.383857     10.383813   0.000000   0.000000
    5       12.682816     12.682601   0.000000   0.000000
    6       17.462509     17.464652   0.000000   0.000000
 
 -0.2307692E+00  0.1538462E+00  0.5223952E-14  0.1820665E-02
    1      -46.001656    -46.000220   1.000000   1.000000
    2       -2.211354     -2.211650   1.000000   1.000000
    3       10.883302     10.883100   0.000000   0.000000
    4       11.869579     11.869569   0.000000   0.000000
    5       13.406814     13.406560   0.000000   0.000000
    6       17.325435     17.323588   0.000000   0.000000
 
 -0.1538462E+00  0.1538462E+00  0.5214004E-14  0.1820665E-02
    1      -46.003785    -46.002349   1.000000   1.000000
    2       -2.526042     -2.526331   1.000000   1.000000
    3       12.016877     12.017006   0.000000   0.000000
    4       13.331308     13.331277   0.000000   0.000000
    5       14.247743     14.247460   0.000000   0.000000
    6       16.934544     16.928290   0.000000   0.000000
 
 -0.7692308E-01  0.1538462E+00  0.5231036E-14  0.1820665E-02
    1      -46.004452    -46.003016   1.000000   1.000000
    2       -2.626363     -2.626650   1.000000   1.000000
    3       13.012216     13.012277   0.000000   0.000000
    4       13.412081     13.412072   0.000000   0.000000
    5       14.346541     14.346342   0.000000   0.000000
    6       17.125590     17.125027   0.000000   0.000000
 
  0.7429459E-17  0.2307692E+00 -0.4605918E-14  0.1820665E-02
    1      -45.999272    -45.997835   1.000000   1.000000
    2       -1.946147     -1.946450   1.000000   1.000000
    3        9.975584      9.975661   0.000000   0.000000
    4       12.137351     12.137332   0.000000   0.000000
    5       13.576527     13.576198   0.000000   0.000000
    6       15.548026     15.548056   0.000000   0.000000
 
  0.7692308E-01  0.2307692E+00 -0.4564313E-14  0.1820665E-02
    1      -45.996790    -45.995353   1.000000   1.000000
    2       -1.509511     -1.509823   1.000000   1.000000
    3        8.813057      8.812868   0.000000   0.000000
    4       10.833290     10.833373   0.000000   0.000000
    5       12.852846     12.852577   0.000000   0.000000
    6       16.324868     16.324726   0.000000   0.000000
 
  0.1538462E+00  0.2307692E+00 -0.4589907E-14  0.1820665E-02
    1      -45.993904    -45.992466   1.000000   1.000000
    2       -0.859237     -0.859562   1.014228   1.014203
    3        7.574305      7.573936   0.000000   0.000000
    4        9.151889      9.151849   0.000000   0.000000
    5       12.228145     12.227942   0.000000   0.000000
    6       17.378322     17.378345   0.000000   0.000000
 
  0.2307692E+00  0.2307692E+00 -0.4617690E-14  0.1820665E-02
    1      -45.991282    -45.989844   1.000000   1.000000
    2       -0.004435     -0.004778   0.935977   0.936165
    3        6.000856      6.000461   0.000000   0.000000
    4        8.093510      8.093475   0.000000   0.000000
    5       11.767012     11.766848   0.000000   0.000000
    6       17.809163     17.808330   0.000000   0.000000
 
  0.3076923E+00  0.2307692E+00 -0.4643284E-14  0.1820665E-02
    1      -45.989514    -45.988076   1.000000   1.000000
    2        0.996078      0.995707   0.147638   0.147886
    3        4.410564      4.410198   0.000000   0.000000
    4        7.578541      7.578483   0.000000   0.000000
    5       11.472067     11.471924   0.000000   0.000000
    6       18.187801     18.188366   0.000000   0.000000
 
  0.3846154E+00  0.2307692E+00 -0.4484733E-14  0.1820665E-02
    1      -45.989070    -45.987632   1.000000   1.000000
    2        1.647835      1.647435  -0.016717  -0.016741
    3        3.545015      3.544679   0.000000   0.000000
    4        7.409641      7.409574   0.000000   0.000000
    5       11.356486     11.356351   0.000000   0.000000
    6       18.340470     18.340191   0.000000   0.000000
 
  0.4615385E+00  0.2307692E+00 -0.4502372E-14  0.1820665E-02
    1      -45.990006    -45.988568   1.000000   1.000000
    2        0.917474      0.917104   0.123811   0.124069
    3        4.480285      4.479914   0.000000   0.000000
    4        7.557592      7.557533   0.000000   0.000000
    5       11.423452     11.423313   0.000000   0.000000
    6       18.287457     18.287729   0.000000   0.000000
 
 -0.4615385E+00  0.2307692E+00 -0.4663854E-14  0.1820665E-02
    1      -45.992108    -45.990670   1.000000   1.000000
    2       -0.082560     -0.082903   1.031990   1.032092
    3        6.015210      6.014814   0.000000   0.000000
    4        8.100287      8.100243   0.000000   0.000000
    5       11.664806     11.664651   0.000000   0.000000
    6       17.917274     17.916753   0.000000   0.000000
 
 -0.3846154E+00  0.2307692E+00 -0.4606181E-14  0.1820665E-02
    1      -45.994862    -45.993424   1.000000   1.000000
    2       -0.924521     -0.924847   1.000000   1.000000
    3        7.415662      7.415316   0.000000   0.000000
    4        9.297303      9.297227   0.000000   0.000000
    5       12.066701     12.066503   0.000000   0.000000
    6       17.403062     17.403105   0.000000   0.000000
 
 -0.3076923E+00  0.2307692E+00 -0.4607203E-14  0.1820665E-02
    1      -45.997700    -45.996263   1.000000   1.000000
    2       -1.558131     -1.558444   1.000000   1.000000
    3        8.518291      8.518050   0.000000   0.000000
    4       11.085517     11.085482   0.000000   0.000000
    5       12.651167     12.650884   0.000000   0.000000
    6       16.607514     16.607572   0.000000   0.000000
 
 -0.2307692E+00  0.2307692E+00 -0.4563149E-14  0.1820665E-02
    1      -45.999926    -45.998490   1.000000   1.000000
    2       -1.976116     -1.976419   1.000000   1.000000
    3        9.607062      9.607190   0.000000   0.000000
    4       12.383852     12.383836   0.000000   0.000000
    5       13.547696     13.547315   0.000000   0.000000
    6       15.799058     15.798880   0.000000   0.000000
 
 -0.1538462E+00  0.2307692E+00 -0.4556497E-14  0.1820665E-02
    1      -46.001060    -45.999624   1.000000   1.000000
    2       -2.179281     -2.179579   1.000000   1.000000
    3       10.774029     10.774088   0.000000   0.000000
    4       12.337220     12.337335   0.000000   0.000000
    5       13.572666     13.572399   0.000000   0.000000
    6       16.870385     16.870684   0.000000   0.000000
 
 -0.7692308E-01  0.2307692E+00 -0.4631658E-14  0.1820665E-02
    1      -46.000841    -45.999405   1.000000   1.000000
    2       -2.169220     -2.169518   1.000000   1.000000
    3       11.183114     11.183108   0.000000   0.000000
    4       11.934744     11.934945   0.000000   0.000000
    5       13.585432     13.585189   0.000000   0.000000
    6       16.574597     16.574395   0.000000   0.000000
 
 -0.2561420E-16  0.3076923E+00 -0.1723451E-15  0.1820665E-02
    1      -45.994821    -45.993384   1.000000   1.000000
    2       -1.160774     -1.161099   1.000000   1.000000
    3        7.628000      7.627775   0.000000   0.000000
    4       11.337607     11.337594   0.000000   0.000000
    5       12.946769     12.946371   0.000000   0.000000
    6       14.698687     14.698675   0.000000   0.000000
 
  0.7692308E-01  0.3076923E+00 -0.1485942E-15  0.1820665E-02
    1      -45.992690    -45.991252   1.000000   1.000000
    2       -0.624965     -0.625302   1.027706   1.027664
    3        6.606140      6.605875   0.000000   0.000000
    4       10.209190     10.209187   0.000000   0.000000
    5       12.243212     12.242922   0.000000   0.000000
    6       15.706221     15.705958   0.000000   0.000000
 
  0.1538462E+00  0.3076923E+00 -0.1464329E-15  0.1820665E-02
    1      -45.990573    -45.989135   1.000000   1.000000
    2        0.118729      0.118374   0.885374   0.885631
    3        5.660384      5.660059   0.000000   0.000000
    4        8.542831      8.542753   0.000000   0.000000
    5       11.763149     11.762953   0.000000   0.000000
    6       17.239787     17.240092   0.000000   0.000000
 
  0.2307692E+00  0.3076923E+00 -0.2495281E-15  0.1820665E-02
    1      -45.988946    -45.987508   1.000000   1.000000
    2        1.058073      1.057696   0.107281   0.107505
    3        4.633079      4.632677   0.000000   0.000000
    4        7.251937      7.251925   0.000000   0.000000
    5       11.464923     11.464777   0.000000   0.000000
    6       18.199845     18.200664   0.000000   0.000000
 
  0.3076923E+00  0.3076923E+00 -0.1720546E-15  0.1820665E-02
    1      -45.988164    -45.986725   1.000000   1.000000
    2        2.121732      2.121337  -0.017393  -0.017419
    3        3.467755      3.467325   0.000000   0.000000
    4        6.640994      6.641012   0.000000   0.000000
    5       11.304441     11.304319   0.000000   0.000000
    6       19.169182     19.163897   0.000000   0.000000
 
  0.3846154E+00  0.3076923E+00 -0.1720821E-15  0.1820665E-02
    1      -45.988473    -45.987035   1.000000   1.000000
    2        2.025074      2.024676   0.000000   0.000000
    3        3.525844      3.525423   0.000000   0.000000
    4        6.674926      6.674937   0.000000   0.000000
    5       11.279912     11.279792   0.000000   0.000000
    6       19.068485     19.068210   0.000000   0.000000
 
  0.4615385E+00  0.3076923E+00 -0.1342107E-15  0.1820665E-02
    1      -45.989736    -45.988298   1.000000   1.000000
    2        0.948121      0.947742   0.080194   0.080443
    3        4.601050      4.600671   0.000000   0.000000
    4        7.382343      7.382302   0.000000   0.000000
    5       11.389557     11.389414   0.000000   0.000000
    6       18.085423     18.085173   0.000000   0.000000
 
 -0.4615385E+00  0.3076923E+00 -0.1767580E-15  0.1820665E-02
    1      -45.991686    -45.990248   1.000000   1.000000
    2        0.020698      0.020340   1.017079   1.017217
    3        5.510587      5.510283   0.000000   0.000000
    4        8.778141      8.778031   0.000000   0.000000
    5       11.632808     11.632614   0.000000   0.000000
    6       17.193512     17.193485   0.000000   0.000000
 
 -0.3846154E+00  0.3076923E+00 -0.1517914E-15  0.1820665E-02
    1      -45.993891    -45.992454   1.000000   1.000000
    2       -0.703060     -0.703399   1.000000   1.000000
    3        6.370763      6.370510   0.000000   0.000000
    4       10.516771     10.516722   0.000000   0.000000
    5       12.071002     12.070696   0.000000   0.000000
    6       15.958935     15.958817   0.000000   0.000000
 
 -0.3076923E+00  0.3076923E+00 -0.2275306E-15  0.1820665E-02
    1      -45.995810    -45.994372   1.000000   1.000000
    2       -1.214754     -1.215080   1.000000   1.000000
    3        7.327258      7.327033   0.000000   0.000000
    4       11.618552     11.618542   0.000000   0.000000
    5       12.926662     12.926218   0.000000   0.000000
    6       14.917614     14.917405   0.000000   0.000000
 
 -0.2307692E+00  0.3076923E+00 -0.1912909E-15  0.1820665E-02
    1      -45.997045    -45.995608   1.000000   1.000000
    2       -1.514780     -1.515097   1.000000   1.000000
    3        8.420612      8.420419   0.000000   0.000000
    4       11.423710     11.423715   0.000000   0.000000
    5       12.793830     12.793507   0.000000   0.000000
    6       16.228384     16.228193   0.000000   0.000000
 
 -0.1538462E+00  0.3076923E+00 -0.1724903E-15  0.1820665E-02
    1      -45.997311    -45.995874   1.000000   1.000000
    2       -1.605253     -1.605567   1.000000   1.000000
    3        9.479092      9.478811   0.000000   0.000000
    4       10.397147     10.397089   0.000000   0.000000
    5       12.793673     12.793442   0.000000   0.000000
    6       16.897106     16.896665   0.000000   0.000000
 
 -0.7692308E-01  0.3076923E+00 -0.2337521E-15  0.1820665E-02
    1      -45.996485    -45.995048   1.000000   1.000000
    2       -1.487250     -1.487566   1.000000   1.000000
    3        8.768130      8.767966   0.000000   0.000000
    4       11.017088     11.017193   0.000000   0.000000
    5       12.833865     12.833582   0.000000   0.000000
    6       16.087275     16.087141   0.000000   0.000000
 
 -0.1027350E-16  0.3846154E+00  0.6013120E-15  0.1820665E-02
    1      -45.991129    -45.989691   1.000000   1.000000
    2       -0.197844     -0.198202   1.064717   1.064688
    3        5.585821      5.585592   0.000000   0.000000
    4       10.789045     10.789035   0.000000   0.000000
    5       12.484784     12.484348   0.000000   0.000000
    6       14.115822     14.115720   0.000000   0.000000
 
  0.7692308E-01  0.3846154E+00  0.5775063E-15  0.1820665E-02
    1      -45.989721    -45.988283   1.000000   1.000000
    2        0.380512      0.380132   0.733932   0.734434
    3        4.784945      4.784711   0.000000   0.000000
    4        9.840388      9.840334   0.000000   0.000000
    5       11.857881     11.857578   0.000000   0.000000
    6       15.282881     15.282595   0.000000   0.000000
 
  0.1538462E+00  0.3846154E+00  0.5994686E-15  0.1820665E-02
    1      -45.988593    -45.987155   1.000000   1.000000
    2        1.101069      1.100661   0.036030   0.036208
    3        4.164034      4.163769   0.000000   0.000000
    4        8.282859      8.282762   0.000000   0.000000
    5       11.515361     11.515166   0.000000   0.000000
    6       17.034835     17.034539   0.000000   0.000000
 
  0.2307692E+00  0.3846154E+00  0.5994412E-15  0.1820665E-02
    1      -45.987936    -45.986498   1.000000   1.000000
    2        1.848564      1.848135  -0.010097  -0.010111
    3        3.691174      3.690835   0.000000   0.000000
    4        7.024332      7.024305   0.000000   0.000000
    5       11.348943     11.348799   0.000000   0.000000
    6       18.254709     18.254510   0.000000   0.000000
 
  0.3076923E+00  0.3846154E+00  0.6293581E-15  0.1820665E-02
    1      -45.987923    -45.986485   1.000000   1.000000
    2        2.220261      2.219827   0.000000   0.000000
    3        3.430085      3.429698   0.000000   0.000000
    4        6.579795      6.579810   0.000000   0.000000
    5       11.280097     11.279972   0.000000   0.000000
    6       18.932799     18.932642   0.000000   0.000000
 
  0.3846154E+00  0.3846154E+00  0.7323984E-15  0.1820665E-02
    1      -45.988585    -45.987147   1.000000   1.000000
    2        1.744259      1.743820   0.000000   0.000000
    3        3.634555      3.634250   0.000000   0.000000
    4        7.198732      7.198676   0.000000   0.000000
    5       11.298072     11.297930   0.000000   0.000000
    6       18.059801     18.059565   0.000000   0.000000
 
  0.4615385E+00  0.3846154E+00  0.7147587E-15  0.1820665E-02
    1      -45.989725    -45.988287   1.000000   1.000000
    2        0.976145      0.975729   0.011915   0.012052
    3        4.040091      4.039852   0.000000   0.000000
    4        8.564274      8.564149   0.000000   0.000000
    5       11.412626     11.412430   0.000000   0.000000
    6       17.002885     17.002902   0.000000   0.000000
 
 -0.4615385E+00  0.3846154E+00  0.5790654E-15  0.1820665E-02
    1      -45.991112    -45.989674   1.000000   1.000000
    2        0.268751      0.268365   0.942655   0.943123
    3        4.602487      4.602273   0.000000   0.000000
    4       10.188341     10.188281   0.000000   0.000000
    5       11.718501     11.718179   0.000000   0.000000
    6       15.508892     15.508717   0.000000   0.000000
 
 -0.3846154E+00  0.3846154E+00  0.6683304E-15  0.1820665E-02
    1      -45.992395    -45.990957   1.000000   1.000000
    2       -0.283156     -0.283518   1.015828   1.015741
    3        5.350214      5.349998   0.000000   0.000000
    4       11.091542     11.091536   0.000000   0.000000
    5       12.479975     12.479495   0.000000   0.000000
    6       14.322260     14.322043   0.000000   0.000000
 
 -0.3076923E+00  0.3846154E+00  0.6594944E-15  0.1820665E-02
    1      -45.993328    -45.991891   1.000000   1.000000
    2       -0.651245     -0.651590   1.000000   1.000000
    3        6.282657      6.282425   0.000000   0.000000
    4       10.735554     10.735556   0.000000   0.000000
    5       12.169932     12.169592   0.000000   0.000000
    6       15.671523     15.671318   0.000000   0.000000
 
 -0.2307692E+00  0.3846154E+00  0.6725718E-15  0.1820665E-02
    1      -45.993713    -45.992275   1.000000   1.000000
    2       -0.827224     -0.827560   1.000000   1.000000
    3        7.322006      7.321724   0.000000   0.000000
    4        9.523451      9.523337   0.000000   0.000000
    5       12.134993     12.134773   0.000000   0.000000
    6       17.070359     17.070542   0.000000   0.000000
 
 -0.1538462E+00  0.3846154E+00  0.6130560E-15  0.1820665E-02
    1      -45.993410    -45.991972   1.000000   1.000000
    2       -0.809340     -0.809674   1.000000   1.000000
    3        7.563444      7.563134   0.000000   0.000000
    4        9.229669      9.229586   0.000000   0.000000
    5       12.169998     12.169785   0.000000   0.000000
    6       17.153072     17.152333   0.000000   0.000000
 
 -0.7692308E-01  0.3846154E+00  0.6053167E-15  0.1820665E-02
    1      -45.992461    -45.991024   1.000000   1.000000
    2       -0.598295     -0.598637   1.004266   1.004239
    3        6.561937      6.561690   0.000000   0.000000
    4       10.330984     10.331008   0.000000   0.000000
    5       12.231430     12.231128   0.000000   0.000000
    6       15.558177     15.557914   0.000000   0.000000
 
  0.4844012E-17  0.4615385E+00  0.4957542E-14  0.1820665E-02
    1      -45.989037    -45.987598   1.000000   1.000000
    2        0.721824      0.721408   0.281047   0.281630