 running on   12 total cores
 distrk:  each k-point on   12 cores,    1 groups
 distr:  one band on    6 cores,    2 groups
 using from now: INCAR     
 vasp.6.1.2 22Jul20 (build Mar 20 2021 11:25:07) complex                        
  
 POSCAR found type information on POSCAR Li
 POSCAR found :  1 types and       1 ions
 scaLAPACK will be used
 -----------------------------------------------------------------------------
|                                                                             |
|               ----> ADVICE to this user running VASP <----                  |
|                                                                             |
|     You have a (more or less) 'small supercell' and for smaller cells       |
|     it is recommended to use the reciprocal-space projection scheme!        |
|     The real-space optimization is not efficient for small cells and it     |
|     is also less accurate ...                                               |
|     Therefore, set LREAL=.FALSE. in the INCAR file.                         |
|                                                                             |
 -----------------------------------------------------------------------------

 LDA part: xc-table for Pade appr. of Perdew
 generate k-points for:   13   13   13
 POSCAR, INCAR and KPOINTS ok, starting setup
 FFT: planning ...
 WAVECAR not read
 entering main loop
       N       E                     dE             d eps       ncg     rms          rms(c)
DAV:   1     0.592786256735E+00    0.59279E+00   -0.70503E+02 14406   0.345E+02
DAV:   2    -0.152352095366E+01   -0.21163E+01   -0.20731E+01 20100   0.485E+01
DAV:   3    -0.159904569995E+01   -0.75525E-01   -0.75366E-01 17676   0.638E+00
DAV:   4    -0.160038254362E+01   -0.13368E-02   -0.13356E-02 21630   0.797E-01
DAV:   5    -0.160039036806E+01   -0.78244E-05   -0.78081E-05 18714   0.458E-02    0.545E+00
RMM:   6    -0.182594277597E+01   -0.22555E+00   -0.63858E-02 16795   0.242E+00    0.260E+00
RMM:   7    -0.190059185009E+01   -0.74649E-01   -0.21173E-02 15969   0.153E+00    0.169E-01
RMM:   8    -0.190210180675E+01   -0.15100E-02   -0.89276E-03 17940   0.858E-01    0.890E-02
RMM:   9    -0.190230088804E+01   -0.19908E-03   -0.23146E-03 21243   0.450E-01    0.331E-02
RMM:  10    -0.190268764637E+01   -0.38676E-03   -0.13900E-03 19498   0.353E-01    0.272E-02
RMM:  11    -0.190273844551E+01   -0.50799E-04   -0.28585E-04 21901   0.143E-01    0.214E-02
WARNING in EDDRMM: call to ZHEGV failed, returncode =   6  3      2
WARNING in EDDRMM: call to ZHEGV failed, returncode =   8  4      3
WARNING in EDDRMM: call to ZHEGV failed, returncode =   8  4      3
RMM:  12    -0.190275039253E+01   -0.11947E-04   -0.13634E-04 20767   0.104E-01    0.704E-03
RMM:  13    -0.190276230796E+01   -0.11915E-04   -0.35363E-05 18813   0.596E-02    0.512E-03
RMM:  14    -0.190276461126E+01   -0.23033E-05   -0.15297E-05 13862   0.363E-02
   1 F= -.19027646E+01 E0= -.19027646E+01  d E =0.000000E+00  mag=    -0.0001
 -----------------------------------------------------------------------------
|                                                                             |
|           W    W    AA    RRRRR   N    N  II  N    N   GGGG   !!!           |
|           W    W   A  A   R    R  NN   N  II  NN   N  G    G  !!!           |
|           W    W  A    A  R    R  N N  N  II  N N  N  G       !!!           |
|           W WW W  AAAAAA  RRRRR   N  N N  II  N  N N  G  GGG   !            |
|           WW  WW  A    A  R   R   N   NN  II  N   NN  G    G                |
|           W    W  A    A  R    R  N    N  II  N    N   GGGG   !!!           |
|                                                                             |
|     Tetrahedron method does not include variations of the Fermi             |
|     occupations, so forces and stress will be inaccurate. We suggest        |
|     using a different smearing scheme ISMEAR = 1 or 2 for metals in         |
|     relaxations.                                                            |
|                                                                             |
 -----------------------------------------------------------------------------

