 running on   12 total cores
 distrk:  each k-point on   12 cores,    1 groups
 distr:  one band on    6 cores,    2 groups
 using from now: INCAR     
 vasp.6.1.2 22Jul20 (build Mar 20 2021 11:25:07) complex                        
  
 POSCAR found type information on POSCAR LiO 
 POSCAR found :  2 types and       3 ions
 scaLAPACK will be used
 -----------------------------------------------------------------------------
|                                                                             |
|               ----> ADVICE to this user running VASP <----                  |
|                                                                             |
|     You have a (more or less) 'small supercell' and for smaller cells       |
|     it is recommended to use the reciprocal-space projection scheme!        |
|     The real-space optimization is not efficient for small cells and it     |
|     is also less accurate ...                                               |
|     Therefore, set LREAL=.FALSE. in the INCAR file.                         |
|                                                                             |
 -----------------------------------------------------------------------------

 LDA part: xc-table for Pade appr. of Perdew
 generate k-points for:   12   12   12
 POSCAR, INCAR and KPOINTS ok, starting setup
 FFT: planning ...
 WAVECAR not read
 entering main loop
       N       E                     dE             d eps       ncg     rms          rms(c)
DAV:   1     0.444180739720E+02    0.44418E+02   -0.57685E+03  3496   0.103E+03
DAV:   2    -0.962516761923E+01   -0.54043E+02   -0.52255E+02  4176   0.228E+02
DAV:   3    -0.152828790244E+02   -0.56577E+01   -0.56173E+01  6428   0.533E+01
DAV:   4    -0.153271398907E+02   -0.44261E-01   -0.44257E-01  4044   0.635E+00
DAV:   5    -0.153274924671E+02   -0.35258E-03   -0.35257E-03  4836   0.424E-01    0.116E+01
RMM:   6    -0.142183662900E+02    0.11091E+01   -0.35020E+00  3747   0.124E+01    0.499E+00
RMM:   7    -0.143271986291E+02   -0.10883E+00   -0.12136E-01  4162   0.284E+00    0.208E+00
RMM:   8    -0.143315874478E+02   -0.43888E-02   -0.48468E-02  4624   0.218E+00    0.117E+00
RMM:   9    -0.143446654948E+02   -0.13078E-01   -0.30522E-02  4693   0.194E+00    0.247E-01
RMM:  10    -0.143456566564E+02   -0.99116E-03   -0.83162E-03  5302   0.687E-01    0.142E-01
RMM:  11    -0.143467276564E+02   -0.10710E-02   -0.60342E-03  5054   0.600E-01    0.190E-01
RMM:  12    -0.143464123569E+02    0.31530E-03   -0.15095E-03  5147   0.325E-01    0.799E-02
RMM:  13    -0.143464057320E+02    0.66249E-05   -0.76263E-04  5204   0.223E-01    0.198E-02
RMM:  14    -0.143464387570E+02   -0.33025E-04   -0.24076E-04  4846   0.111E-01    0.283E-02
RMM:  15    -0.143464513589E+02   -0.12602E-04   -0.92342E-05  4536   0.730E-02    0.279E-02
RMM:  16    -0.143464535496E+02   -0.21907E-05   -0.44576E-05  4041   0.516E-02
   1 F= -.14346454E+02 E0= -.14346454E+02  d E =0.000000E+00  mag=    -0.0000
