 running on    8 total cores
 distrk:  each k-point on    8 cores,    1 groups
 distr:  one band on    1 cores,    8 groups
 using from now: INCAR     
 vasp.6.1.2 22Jul20 (build Mar 20 2021 11:25:07) complex                        
  
 POSCAR found type information on POSCAR LiP 
 POSCAR found :  2 types and      40 ions
 scaLAPACK will be used
 -----------------------------------------------------------------------------
|                                                                             |
|           W    W    AA    RRRRR   N    N  II  N    N   GGGG   !!!           |
|           W    W   A  A   R    R  NN   N  II  NN   N  G    G  !!!           |
|           W    W  A    A  R    R  N N  N  II  N N  N  G       !!!           |
|           W WW W  AAAAAA  RRRRR   N  N N  II  N  N N  G  GGG   !            |
|           WW  WW  A    A  R   R   N   NN  II  N   NN  G    G                |
|           W    W  A    A  R    R  N    N  II  N    N   GGGG   !!!           |
|                                                                             |
|     The value NCORE = 6 specified in the INCAR file was overwritten,        |
|     because it was not compatible with the 8 processes available:           |
|     NCORE = 1                                                               |
|     was used instead, please check that this makes sense for your           |
|     machine.                                                                |
|                                                                             |
 -----------------------------------------------------------------------------

 -----------------------------------------------------------------------------
|                                                                             |
|           W    W    AA    RRRRR   N    N  II  N    N   GGGG   !!!           |
|           W    W   A  A   R    R  NN   N  II  NN   N  G    G  !!!           |
|           W    W  A    A  R    R  N N  N  II  N N  N  G       !!!           |
|           W WW W  AAAAAA  RRRRR   N  N N  II  N  N N  G  GGG   !            |
|           WW  WW  A    A  R   R   N   NN  II  N   NN  G    G                |
|           W    W  A    A  R    R  N    N  II  N    N   GGGG   !!!           |
|                                                                             |
|     For optimal performance we recommend to set                             |
|       NCORE = 4 - approx SQRT(number of cores).                             |
|     NCORE specifies how many cores store one orbital (NPAR=cpu/NCORE).      |
|     This setting can greatly improve the performance of VASP for DFT.       |
|     The default, NCORE=1 might be grossly inefficient on modern             |
|     multi-core architectures or massively parallel machines. Do your        |
|     own testing!!!!                                                         |
|     Unfortunately you need to use the default for GW and RPA                |
|     calculations (for HF NCORE is supported but not extensively tested      |
|     yet).                                                                   |
|                                                                             |
 -----------------------------------------------------------------------------

 LDA part: xc-table for Pade appr. of Perdew
 generate k-points for:    4    3    3
 POSCAR, INCAR and KPOINTS ok, starting setup
 FFT: planning ...
 WAVECAR not read
 entering main loop
       N       E                     dE             d eps       ncg     rms          rms(c)
DAV:   1     0.102312798476E+04    0.10231E+04   -0.67479E+04  6144   0.125E+03
DAV:   2    -0.314912344856E+02   -0.10546E+04   -0.97108E+03  7288   0.270E+02
DAV:   3    -0.165643064150E+03   -0.13415E+03   -0.13232E+03  8296   0.922E+01
DAV:   4    -0.181162413618E+03   -0.15519E+02   -0.15405E+02 10880   0.277E+01
DAV:   5    -0.184372892754E+03   -0.32105E+01   -0.32085E+01 10216   0.811E+00    0.317E+01
DAV:   6    -0.184975946863E+03   -0.60305E+00   -0.87605E+00  8080   0.669E+00    0.172E+01
DAV:   7    -0.187105335076E+03   -0.21294E+01   -0.28114E+00  7936   0.395E+00    0.102E+01
DAV:   8    -0.188032271749E+03   -0.92694E+00   -0.12950E+00  7440   0.283E+00    0.242E+00
DAV:   9    -0.188134879228E+03   -0.10261E+00   -0.20053E-01  8488   0.128E+00    0.977E-01
DAV:  10    -0.188154214782E+03   -0.19336E-01   -0.36019E-02  8488   0.491E-01    0.368E-01
DAV:  11    -0.188159332645E+03   -0.51179E-02   -0.58283E-03  7448   0.225E-01    0.201E-01
DAV:  12    -0.188162067923E+03   -0.27353E-02   -0.24948E-03  8144   0.131E-01    0.101E-01
DAV:  13    -0.188163195105E+03   -0.11272E-02   -0.89234E-04  7512   0.749E-02    0.410E-02
DAV:  14    -0.188163507231E+03   -0.31213E-03   -0.28453E-04  7272   0.402E-02    0.232E-02
DAV:  15    -0.188163599319E+03   -0.92087E-04   -0.96748E-05  6648   0.239E-02    0.113E-02
DAV:  16    -0.188163622783E+03   -0.23464E-04   -0.24349E-05  6192   0.132E-02    0.507E-03
DAV:  17    -0.188163627923E+03   -0.51400E-05   -0.56524E-06  5064   0.733E-03
   1 F= -.18816363E+03 E0= -.18816363E+03  d E =0.000000E+00  mag=    -0.0005
