       N       E                     dE             d eps       ncg     rms          rms(c)
DAV:   1     0.417262252578E+03    0.41726E+03   -0.27355E+04 16008   0.146E+03
DAV:   2    -0.434638692381E+02   -0.46073E+03   -0.44118E+03 18680   0.371E+02
DAV:   3    -0.814755744128E+02   -0.38012E+02   -0.37826E+02 23320   0.997E+01
DAV:   4    -0.847168443092E+02   -0.32413E+01   -0.32279E+01 26320   0.234E+01
DAV:   5    -0.849442102716E+02   -0.22737E+00   -0.22735E+00 22376   0.458E+00    0.334E+01
RMM:   6    -0.768991387695E+02    0.80451E+01   -0.30139E+01 17077   0.229E+01    0.139E+01
RMM:   7    -0.773861885627E+02   -0.48705E+00   -0.46349E+00 23747   0.989E+00    0.712E+00
RMM:   8    -0.775627964054E+02   -0.17661E+00   -0.84122E-01 26027   0.472E+00    0.368E+00
RMM:   9    -0.775979841960E+02   -0.35188E-01   -0.27478E-01 25928   0.306E+00    0.104E+00
RMM:  10    -0.776250112700E+02   -0.27027E-01   -0.19418E-01 29677   0.187E+00    0.354E-01
RMM:  11    -0.776352488976E+02   -0.10238E-01   -0.84822E-02 30687   0.110E+00    0.268E-01
RMM:  12    -0.776396617748E+02   -0.44129E-02   -0.33412E-02 31124   0.689E-01    0.179E-01
RMM:  13    -0.776414478026E+02   -0.17860E-02   -0.13320E-02 30790   0.444E-01    0.660E-02
RMM:  14    -0.776421849940E+02   -0.73719E-03   -0.57097E-03 30692   0.306E-01    0.342E-02
RMM:  15    -0.776424677271E+02   -0.28273E-03   -0.25252E-03 30149   0.191E-01    0.277E-02
RMM:  16    -0.776425771225E+02   -0.10940E-03   -0.10510E-03 29688   0.123E-01    0.148E-02
RMM:  17    -0.776426184333E+02   -0.41311E-04   -0.43255E-04 29278   0.820E-02    0.583E-03
RMM:  18    -0.776426422779E+02   -0.23845E-04   -0.18815E-04 27633   0.563E-02    0.580E-03
RMM:  19    -0.776426466888E+02   -0.44110E-05   -0.46757E-05 21364   0.396E-02
   1 F= -.77642647E+02 E0= -.77642647E+02  d E =0.000000E+00  mag=    -0.0000
