       N       E                     dE             d eps       ncg     rms          rms(c)
DAV:   1     0.470031740386E+03    0.47003E+03   -0.40067E+04 21384   0.136E+03
DAV:   2    -0.998466557613E+02   -0.56988E+03   -0.54577E+03 27220   0.306E+02
DAV:   3    -0.137155900594E+03   -0.37309E+02   -0.36999E+02 26704   0.840E+01
DAV:   4    -0.137896764649E+03   -0.74086E+00   -0.73794E+00 27960   0.123E+01
DAV:   5    -0.137915429963E+03   -0.18665E-01   -0.18640E-01 26488   0.186E+00    0.460E+01
DAV:   6    -0.118069819854E+03    0.19846E+02   -0.67566E+01 24922   0.321E+01    0.230E+01
DAV:   7    -0.120412849048E+03   -0.23430E+01   -0.10595E+01 26112   0.117E+01    0.747E+00
DAV:   8    -0.120452509237E+03   -0.39660E-01   -0.59502E-01 25790   0.366E+00    0.454E+00
DAV:   9    -0.120456640478E+03   -0.41312E-02   -0.68770E-02 25706   0.136E+00    0.218E+00
DAV:  10    -0.120455066402E+03    0.15741E-02   -0.26739E-02 26764   0.850E-01    0.472E-01
DAV:  11    -0.120457746527E+03   -0.26801E-02   -0.55245E-03 24702   0.403E-01    0.258E-01
DAV:  12    -0.120458225896E+03   -0.47937E-03   -0.49981E-04 27682   0.129E-01    0.149E-01
DAV:  13    -0.120458507795E+03   -0.28190E-03   -0.28829E-04 25960   0.833E-02    0.593E-02
DAV:  14    -0.120458568427E+03   -0.60632E-04   -0.38849E-05 22208   0.326E-02    0.189E-02
DAV:  15    -0.120458583654E+03   -0.15227E-04   -0.13237E-05 16712   0.185E-02    0.102E-02
DAV:  16    -0.120458587607E+03   -0.39528E-05   -0.48081E-06 15888   0.101E-02
   1 F= -.12045859E+03 E0= -.12045859E+03  d E =0.000000E+00  mag=    -0.0004
