Automatically generated mesh
     230
Reciprocal lattice
    0.00000000000000    0.00000000000000    0.00000000000000             1
    0.11111111111111   -0.00000000000000   -0.00000000000000             4
    0.22222222222222    0.00000000000000   -0.00000000000000             4
    0.33333333333334    0.00000000000000   -0.00000000000000             4
    0.44444444444444    0.00000000000000   -0.00000000000000             4
    0.11111111111111    0.11111111111111    0.00000000000000             2
    0.22222222222222    0.11111111111111    0.00000000000000             4
    0.33333333333334    0.11111111111111    0.00000000000000             4
    0.44444444444444    0.11111111111111    0.00000000000000             4
   -0.44444444444444    0.11111111111111    0.00000000000000             4
   -0.33333333333334    0.11111111111111    0.00000000000000             4
   -0.22222222222222    0.11111111111111    0.00000000000000             4
   -0.11111111111111    0.11111111111111    0.00000000000000             2
    0.22222222222222    0.22222222222222    0.00000000000001             2
    0.33333333333334    0.22222222222222    0.00000000000001             4
    0.44444444444444    0.22222222222222    0.00000000000001             4
   -0.44444444444444    0.22222222222222    0.00000000000001             4
   -0.33333333333334    0.22222222222222    0.00000000000001             4
   -0.22222222222222    0.22222222222222    0.00000000000001             2
    0.33333333333334    0.33333333333334   -0.00000000000000             2
    0.44444444444444    0.33333333333334   -0.00000000000000             4
   -0.44444444444444    0.33333333333334   -0.00000000000000             4
   -0.33333333333334    0.33333333333334   -0.00000000000000             2
    0.44444444444444    0.44444444444444   -0.00000000000000             2
   -0.44444444444444    0.44444444444444   -0.00000000000000             2
    0.00000000000000   -0.00000000000000    0.10000000000000             2
    0.11111111111111   -0.00000000000000    0.10000000000000             4
    0.22222222222222    0.00000000000000    0.10000000000000             4
    0.33333333333334    0.00000000000000    0.10000000000000             4
    0.44444444444444    0.00000000000000    0.10000000000000             4
   -0.44444444444444   -0.00000000000000    0.10000000000000             4
   -0.33333333333334   -0.00000000000000    0.10000000000000             4
   -0.22222222222222   -0.00000000000000    0.10000000000000             4
   -0.11111111111111   -0.00000000000000    0.10000000000000             4
    0.11111111111111    0.11111111111111    0.10000000000000             2
    0.22222222222222    0.11111111111111    0.10000000000000             4
    0.33333333333334    0.11111111111111    0.10000000000000             4
    0.44444444444444    0.11111111111111    0.10000000000000             4
   -0.44444444444444    0.11111111111111    0.10000000000000             4
   -0.33333333333334    0.11111111111111    0.10000000000000             4
   -0.22222222222222    0.11111111111111    0.10000000000000             4
   -0.11111111111111    0.11111111111111    0.10000000000000             4
    0.22222222222222    0.22222222222222    0.10000000000000             2
    0.33333333333334    0.22222222222222    0.10000000000000             4
    0.44444444444444    0.22222222222222    0.10000000000000             4
   -0.44444444444444    0.22222222222222    0.10000000000000             4
   -0.33333333333334    0.22222222222222    0.10000000000000             4
   -0.22222222222222    0.22222222222222    0.10000000000000             4
   -0.11111111111111    0.22222222222222    0.10000000000000             4
    0.33333333333334    0.33333333333334    0.10000000000000             2
    0.44444444444444    0.33333333333334    0.10000000000000             4
   -0.44444444444444    0.33333333333334    0.10000000000000             4
   -0.33333333333334    0.33333333333334    0.10000000000000             4
   -0.22222222222222    0.33333333333334    0.10000000000000             4
   -0.11111111111111    0.33333333333334    0.10000000000000             4
    0.44444444444444    0.44444444444444    0.10000000000001             2
   -0.44444444444444    0.44444444444444    0.10000000000001             4
   -0.33333333333334    0.44444444444444    0.10000000000001             4
   -0.22222222222222    0.44444444444444    0.10000000000001             4
   -0.11111111111111    0.44444444444444    0.10000000000001             4
   -0.44444444444444   -0.44444444444444    0.10000000000000             2
   -0.33333333333334   -0.44444444444444    0.10000000000000             4
   -0.22222222222222   -0.44444444444444    0.10000000000000             4
   -0.11111111111111   -0.44444444444444    0.10000000000000             4
   -0.33333333333334   -0.33333333333334    0.10000000000000             2
   -0.22222222222222   -0.33333333333334    0.10000000000000             4
   -0.11111111111111   -0.33333333333334    0.10000000000000             4
   -0.22222222222222   -0.22222222222222    0.10000000000000             2
   -0.11111111111111   -0.22222222222222    0.10000000000000             4
   -0.11111111111111   -0.11111111111111    0.10000000000001             2
   -0.00000000000000    0.00000000000000    0.20000000000000             2
    0.11111111111111    0.00000000000000    0.20000000000000             4
    0.22222222222222    0.00000000000000    0.20000000000000             4
    0.33333333333334    0.00000000000000    0.20000000000000             4
    0.44444444444444    0.00000000000000    0.20000000000000             4
   -0.44444444444444   -0.00000000000000    0.20000000000000             4
   -0.33333333333334   -0.00000000000000    0.20000000000000             4
   -0.22222222222222    0.00000000000000    0.20000000000000             4
   -0.11111111111111   -0.00000000000000    0.20000000000000             4
    0.11111111111111    0.11111111111111    0.20000000000000             2
    0.22222222222222    0.11111111111111    0.20000000000000             4
    0.33333333333334    0.11111111111111    0.20000000000000             4
    0.44444444444444    0.11111111111111    0.20000000000000             4
   -0.44444444444444    0.11111111111111    0.20000000000000             4
   -0.33333333333334    0.11111111111111    0.20000000000000             4
   -0.22222222222222    0.11111111111111    0.20000000000000             4
   -0.11111111111111    0.11111111111111    0.20000000000000             4
    0.22222222222222    0.22222222222222    0.20000000000000             2
    0.33333333333334    0.22222222222222    0.20000000000000             4
    0.44444444444444    0.22222222222222    0.20000000000000             4
   -0.44444444444444    0.22222222222222    0.20000000000000             4
   -0.33333333333334    0.22222222222222    0.20000000000000             4
   -0.22222222222222    0.22222222222222    0.20000000000000             4
   -0.11111111111111    0.22222222222222    0.20000000000000             4
    0.33333333333334    0.33333333333334    0.20000000000000             2
    0.44444444444444    0.33333333333334    0.20000000000000             4
   -0.44444444444444    0.33333333333334    0.20000000000000             4
   -0.33333333333334    0.33333333333334    0.20000000000000             4
   -0.22222222222222    0.33333333333334    0.20000000000000             4
   -0.11111111111111    0.33333333333334    0.20000000000000             4
    0.44444444444444    0.44444444444444    0.20000000000000             2
   -0.44444444444444    0.44444444444444    0.20000000000000             4
   -0.33333333333334    0.44444444444444    0.20000000000000             4
   -0.22222222222222    0.44444444444444    0.20000000000000             4
   -0.11111111111111    0.44444444444444    0.20000000000000             4
   -0.44444444444444   -0.44444444444444    0.20000000000000             2
   -0.33333333333334   -0.44444444444444    0.20000000000000             4
   -0.22222222222222   -0.44444444444444    0.20000000000000             4
   -0.11111111111111   -0.44444444444444    0.20000000000000             4
   -0.33333333333334   -0.33333333333334    0.20000000000000             2
   -0.22222222222222   -0.33333333333334    0.20000000000000             4
   -0.11111111111111   -0.33333333333334    0.20000000000000             4
   -0.22222222222222   -0.22222222222222    0.20000000000000             2
   -0.11111111111111   -0.22222222222222    0.20000000000000             4
   -0.11111111111111   -0.11111111111111    0.20000000000000             2
   -0.00000000000000    0.00000000000000    0.30000000000000             2
    0.11111111111111   -0.00000000000000    0.30000000000000             4
    0.22222222222222   -0.00000000000000    0.30000000000000             4
    0.33333333333334    0.00000000000000    0.30000000000000             4
    0.44444444444444   -0.00000000000000    0.30000000000000             4
   -0.44444444444444   -0.00000000000000    0.30000000000000             4
   -0.33333333333334   -0.00000000000000    0.30000000000000             4
   -0.22222222222222   -0.00000000000000    0.30000000000000             4
   -0.11111111111111    0.00000000000000    0.30000000000000             4
    0.11111111111111    0.11111111111111    0.30000000000000             2
    0.22222222222222    0.11111111111111    0.30000000000000             4
    0.33333333333334    0.11111111111111    0.30000000000000             4
    0.44444444444444    0.11111111111111    0.30000000000000             4
   -0.44444444444444    0.11111111111111    0.30000000000000             4
   -0.33333333333334    0.11111111111111    0.30000000000000             4
   -0.22222222222222    0.11111111111111    0.30000000000000             4
   -0.11111111111111    0.11111111111111    0.30000000000000             4
    0.22222222222222    0.22222222222222    0.30000000000000             2
    0.33333333333334    0.22222222222222    0.30000000000000             4
    0.44444444444444    0.22222222222222    0.30000000000000             4
   -0.44444444444444    0.22222222222222    0.30000000000000             4
   -0.33333333333334    0.22222222222222    0.30000000000000             4
   -0.22222222222222    0.22222222222222    0.30000000000000             4
   -0.11111111111111    0.22222222222222    0.30000000000000             4
    0.33333333333334    0.33333333333334    0.30000000000000             2
    0.44444444444444    0.33333333333334    0.30000000000000             4
   -0.44444444444444    0.33333333333334    0.30000000000000             4
   -0.33333333333334    0.33333333333334    0.30000000000000             4
   -0.22222222222222    0.33333333333334    0.30000000000000             4
   -0.11111111111111    0.33333333333334    0.30000000000000             4
    0.44444444444444    0.44444444444444    0.30000000000000             2
   -0.44444444444444    0.44444444444444    0.30000000000000             4
   -0.33333333333334    0.44444444444444    0.30000000000000             4
   -0.22222222222222    0.44444444444444    0.30000000000000             4
   -0.11111111111111    0.44444444444444    0.30000000000000             4
   -0.44444444444444   -0.44444444444444    0.30000000000000             2
   -0.33333333333334   -0.44444444444444    0.30000000000000             4
   -0.22222222222222   -0.44444444444444    0.30000000000000             4
   -0.11111111111111   -0.44444444444444    0.30000000000000             4
   -0.33333333333334   -0.33333333333334    0.30000000000000             2
   -0.22222222222222   -0.33333333333334    0.30000000000000             4
   -0.11111111111111   -0.33333333333334    0.30000000000000             4
   -0.22222222222222   -0.22222222222222    0.30000000000000             2
   -0.11111111111111   -0.22222222222222    0.30000000000000             4
   -0.11111111111111   -0.11111111111111    0.30000000000000             2
   -0.00000000000000    0.00000000000000    0.40000000000000             2
    0.11111111111111   -0.00000000000000    0.40000000000000             4
    0.22222222222222   -0.00000000000000    0.40000000000000             4
    0.33333333333334    0.00000000000000    0.40000000000000             4
    0.44444444444444    0.00000000000000    0.40000000000000             4
   -0.44444444444444    0.00000000000000    0.40000000000000             4
   -0.33333333333334   -0.00000000000000    0.40000000000000             4
   -0.22222222222222   -0.00000000000000    0.40000000000000             4
   -0.11111111111111   -0.00000000000000    0.40000000000000             4
    0.11111111111111    0.11111111111111    0.39999999999999             2
    0.22222222222222    0.11111111111111    0.39999999999999             4
    0.33333333333334    0.11111111111111    0.39999999999999             4
    0.44444444444444    0.11111111111111    0.39999999999999             4
   -0.44444444444444    0.11111111111111    0.39999999999999             4
   -0.33333333333334    0.11111111111111    0.39999999999999             4
   -0.22222222222222    0.11111111111111    0.39999999999999             4
   -0.11111111111111    0.11111111111111    0.39999999999999             4
    0.22222222222222    0.22222222222222    0.40000000000000             2
    0.33333333333334    0.22222222222222    0.40000000000000             4
    0.44444444444444    0.22222222222222    0.40000000000000             4
   -0.44444444444444    0.22222222222222    0.40000000000000             4
   -0.33333333333334    0.22222222222222    0.40000000000000             4
   -0.22222222222222    0.22222222222222    0.40000000000000             4
   -0.11111111111111    0.22222222222222    0.40000000000000             4
    0.33333333333334    0.33333333333334    0.40000000000000             2
    0.44444444444444    0.33333333333334    0.40000000000000             4
   -0.44444444444444    0.33333333333334    0.40000000000000             4
   -0.33333333333334    0.33333333333334    0.40000000000000             4
   -0.22222222222222    0.33333333333334    0.40000000000000             4
   -0.11111111111111    0.33333333333334    0.40000000000000             4
    0.44444444444444    0.44444444444444    0.40000000000000             2
   -0.44444444444444    0.44444444444444    0.40000000000000             4
   -0.33333333333334    0.44444444444444    0.40000000000000             4
   -0.22222222222222    0.44444444444444    0.40000000000000             4
   -0.11111111111111    0.44444444444444    0.40000000000000             4
   -0.44444444444444   -0.44444444444444    0.39999999999999             2
   -0.33333333333334   -0.44444444444444    0.39999999999999             4
   -0.22222222222222   -0.44444444444444    0.39999999999999             4
   -0.11111111111111   -0.44444444444444    0.39999999999999             4
   -0.33333333333334   -0.33333333333334    0.40000000000000             2
   -0.22222222222222   -0.33333333333334    0.40000000000000             4
   -0.11111111111111   -0.33333333333334    0.40000000000000             4
   -0.22222222222222   -0.22222222222222    0.40000000000000             2
   -0.11111111111111   -0.22222222222222    0.40000000000000             4
   -0.11111111111111   -0.11111111111111    0.40000000000000             2
   -0.00000000000000    0.00000000000000    0.50000000000000             1
    0.11111111111111   -0.00000000000000    0.50000000000000             4
    0.22222222222222    0.00000000000000    0.50000000000000             4
    0.33333333333334   -0.00000000000000    0.50000000000000             4
    0.44444444444444   -0.00000000000000    0.50000000000000             4
    0.11111111111111    0.11111111111111    0.50000000000000             2
    0.22222222222222    0.11111111111111    0.50000000000000             4
    0.33333333333334    0.11111111111111    0.50000000000000             4
    0.44444444444444    0.11111111111111    0.50000000000000             4
   -0.44444444444444    0.11111111111111    0.50000000000000             4
   -0.33333333333334    0.11111111111111    0.50000000000000             4
   -0.22222222222222    0.11111111111111    0.50000000000000             4
   -0.11111111111111    0.11111111111111    0.50000000000000             2
    0.22222222222222    0.22222222222222    0.50000000000000             2
    0.33333333333334    0.22222222222222    0.50000000000000             4
    0.44444444444444    0.22222222222222    0.50000000000000             4
   -0.44444444444444    0.22222222222222    0.50000000000000             4
   -0.33333333333334    0.22222222222222    0.50000000000000             4
   -0.22222222222222    0.22222222222222    0.50000000000000             2
    0.33333333333334    0.33333333333334    0.49999999999999             2
    0.44444444444444    0.33333333333334    0.49999999999999             4
   -0.44444444444444    0.33333333333334    0.50000000000000             4
   -0.33333333333334    0.33333333333334    0.50000000000000             2
    0.44444444444444    0.44444444444444    0.50000000000000             2
   -0.44444444444444    0.44444444444444    0.50000000000000             2
Tetrahedra
      1215    0.00020576131687
         4         1         2         6        26
         4         2         6        26        27
         4         6        26        27        35
         4         2         3         7        27
         4         2         6         7        27
         4         6         7        27        35
         4         3         7        27        28
         4         7        27        28        36
         4         7        27        35        36
         4         3         4         8        28
         4         3         7         8        28
         4         7         8        28        36
         4         4         8        28        29
         4         8        28        29        37
         4         8        28        36        37
         4         4         5         9        29
         4         4         8         9        29
         4         8         9        29        37
         4         5         9        29        30
         4         9        29        30        38
         4         9        29        37        38
         4         5         5        10        30
         4         5         9        10        30
         4         9        10        30        38
         4         5        10        30        31
         4        10        30        31        39
         4        10        30        38        39
         4         4         5        11        31
         4         5        10        11        31
         4        10        11        31        39
         4         4        11        31        32
         4        11        31        32        40
         4        11        31        39        40
         4         3         4        12        32
         4         4        11        12        32
         4        11        12        32        40
         4         3        12        32        33
         4        12        32        33        41
         4        12        32        40        41
         4         2         3        13        33
         4         3        12        13        33
         4        12        13        33        41
         4         2        13        33        34
         4        13        33        34        42
         4        13        33        41        42
         4         1         2         2        34
         4         2         2        13        34
         4         2        13        34        42
         4         1         2        26        34
         4         2        26        27        34
         4         2        27        34        42
         4         6         7        14        35
         4         7        14        35        36
         4        14        35        36        43
         4         7         8        15        36
         4         7        14        15        36
         4        14        15        36        43
         4         8        15        36        37
         4        15        36        37        44
         4        15        36        43        44
         4         8         9        16        37
         4         8        15        16        37
         4        15        16        37        44
         4         9        16        37        38
         4        16        37        38        45
         4        16        37        44        45
         4         9        10        17        38
         4         9        16        17        38
         4        16        17        38        45
         4        10        17        38        39
         4        17        38        39        46
         4        17        38        45        46
         4        10        11        18        39
         4        10        17        18        39
         4        17        18        39        46
         4        11        18        39        40
         4        18        39        40        47
         4        18        39        46        47
         4        11        12        19        40
         4        11        18        19        40
         4        18        19        40        47
         4        12        19        40        41
         4        19        40        41        48
         4        19        40        47        48
         4        12        12        13        41
         4        12        12        19        41
         4        12        19        41        48
         4        12        13        41        42
         4        12        41        42        49
         4        12        41        48        49
         4         2         3        13        42
         4         3        12        13        42
         4         3        12        42        49
         4         2         3        27        42
         4         3        27        28        42
         4         3        28        42        49
         4        14        15        20        43
         4        15        20        43        44
         4        20        43        44        50
         4        15        16        21        44
         4        15        20        21        44
         4        20        21        44        50
         4        16        21        44        45
         4        21        44        45        51
         4        21        44        50        51
         4        16        17        22        45
         4        16        21        22        45
         4        21        22        45        51
         4        17        22        45        46
         4        22        45        46        52
         4        22        45        51        52
         4        17        18        23        46
         4        17        22        23        46
         4        22        23        46        52
         4        18        23        46        47
         4        23        46        47        53
         4        23        46        52        53
         4        18        18        19        47
         4        18        18        23        47
         4        18        23        47        53
         4        18        19        47        48
         4        18        47        48        54
         4        18        47        53        54
         4        11        12        19        48
         4        11        18        19        48
         4        11        18        48        54
         4        11        12        48        49
         4        11        48        49        55
         4        11        48        54        55
         4         3         4        12        49
         4         4        11        12        49
         4         4        11        49        55
         4         3         4        28        49
         4         4        28        29        49
         4         4        29        49        55
         4        20        21        24        50
         4        21        24        50        51
         4        24        50        51        56
         4        21        22        25        51
         4        21        24        25        51
         4        24        25        51        56
         4        22        25        51        52
         4        25        51        52        57
         4        25        51        56        57
         4        22        22        23        52
         4        22        22        25        52
         4        22        25        52        57
         4        22        23        52        53
         4        22        52        53        58
         4        22        52        57        58
         4        17        18        23        53
         4        17        22        23        53
         4        17        22        53        58
         4        17        18        53        54
         4        17        53        54        59
         4        17        53        58        59
         4        10        11        18        54
         4        10        17        18        54
         4        10        17        54        59
         4        10        11        54        55
         4        10        54        55        60
         4        10        54        59        60
         4         4         5        11        55
         4         5        10        11        55
         4         5        10        55        60
         4         4         5        29        55
         4         5        29        30        55
         4         5        30        55        60
         4        24        24        25        56
         4        24        25        56        57
         4        24        56        57        61
         4        21        22        25        57
         4        21        24        25        57
         4        21        24        57        61
         4        21        22        57        58
         4        21        57        58        62
         4        21        57        61        62
         4        16        17        22        58
         4        16        21        22        58
         4        16        21        58        62
         4        16        17        58        59
         4        16        58        59        63
         4        16        58        62        63
         4         9        10        17        59
         4         9        16        17        59
         4         9        16        59        63
         4         9        10        59        60
         4         9        59        60        64
         4         9        59        63        64
         4         5         5        10        60
         4         5         9        10        60
         4         5         9        60        64
         4         5         5        30        60
         4         5        30        31        60
         4         5        31        60        64
         4        20        21        24        61
         4        20        21        61        62
         4        20        61        62        65
         4        15        16        21        62
         4        15        20        21        62
         4        15        20        62        65
         4        15        16        62        63
         4        15        62        63        66
         4        15        62        65        66
         4         8         9        16        63
         4         8        15        16        63
         4         8        15        63        66
         4         8         9        63        64
         4         8        63        64        67
         4         8        63        66        67
         4         4         5         9        64
         4         4         8         9        64
         4         4         8        64        67
         4         4         5        31        64
         4         4        31        32        64
         4         4        32        64        67
         4        14        15        20        65
         4        14        15        65        66
         4        14        65        66        68
         4         7         8        15        66
         4         7        14        15        66
         4         7        14        66        68
         4         7         8        66        67
         4         7        66        67        69
         4         7        66        68        69
         4         3         4         8        67
         4         3         7         8        67
         4         3         7        67        69
         4         3         4        32        67
         4         3        32        33        67
         4         3        33        67        69
         4         6         7        14        68
         4         6         7        68        69
         4         6        68        69        70
         4         2         3         7        69
         4         2         6         7        69
         4         2         6        69        70
         4         2         3        33        69
         4         2        33        34        69
         4         2        34        69        70
         4         1         2         6        70
         4         1         2        34        70
         4         1        26        34        70
         4        26        27        35        71
         4        27        35        71        72
         4        35        71        72        80
         4        27        28        36        72
         4        27        35        36        72