    8    8    1    2
  0.8524643E+01  0.4698227E-09  0.4698227E-09  0.4698227E-09  0.5000000E-15
  1.000000000000000E-004
  CAR 
 unknown system                          
     36    230     32
 
  0.0000000E+00  0.0000000E+00  0.0000000E+00  0.1234568E-02
    1      -37.314830    -37.314558   1.000000   1.000000
    2      -37.278391    -37.278118   1.000000   1.000000
    3      -13.743748    -13.743765   1.000000   1.000000
    4       -8.840022     -8.840049   1.000000   1.000000
    5       -8.840022     -8.840049   1.000000   1.000000
    6       -8.560925     -8.560953   1.000000   1.000000
    7       -6.488897     -6.488913   1.000000   1.000000
    8       -1.736016     -1.736033   1.000000   1.000000
    9       -1.736016     -1.736033   1.000000   1.000000
   10       -1.050612     -1.050632   1.000000   1.000000
   11        1.676539      1.676515   1.000000   1.000000
   12        2.977191      2.977176   1.000000   1.000000
   13        3.036937      3.036946   1.000000   1.000000
   14        4.249076      4.249060   1.000000   1.000000
   15        4.249077      4.249061   1.000000   1.000000
   16        4.754810      4.754793   1.000000   1.000000
   17        4.754812      4.754794   1.000000   1.000000
   18        4.861143      4.861120   1.000000   1.000000
   19        9.621713      9.621734   0.000003   0.000003
   20       13.230436     13.230464   0.000000   0.000000
   21       15.124118     15.124127   0.000000   0.000000
   22       15.124119     15.124127   0.000000   0.000000
   23       15.374804     15.374791   0.000000   0.000000
   24       15.374805     15.374792   0.000000   0.000000
   25       16.574707     16.574715   0.000000   0.000000
   26       16.745981     16.745982   0.000000   0.000000
   27       17.138297     17.138338   0.000000   0.000000
   28       17.363578     17.363587   0.000000   0.000000
   29       19.585325     19.585307   0.000000   0.000000
   30       20.134804     20.134804   0.000000   0.000000
   31       20.134807     20.134807   0.000000   0.000000
   32       21.038139     21.039388   0.000000   0.000000
 
  0.1111111E+00 -0.2815593E-17  0.1669338E-16  0.4938272E-02
    1      -37.313981    -37.313709   1.000000   1.000000
    2      -37.279148    -37.278875   1.000000   1.000000
    3      -13.677054    -13.677072   1.000000   1.000000
    4       -9.111555     -9.111580   1.000000   1.000000
    5       -8.863189     -8.863215   1.000000   1.000000
    6       -8.640966     -8.640994   1.000000   1.000000
    7       -6.166320     -6.166337   1.000000   1.000000
    8       -1.750852     -1.750869   1.000000   1.000000
    9       -1.714647     -1.714664   1.000000   1.000000
   10       -0.960785     -0.960805   1.000000   1.000000
   11        1.615507      1.615485   1.000000   1.000000
   12        2.978288      2.978273   1.000000   1.000000
   13        3.135483      3.135488   1.000000   1.000000
   14        4.166434      4.166415   1.000000   1.000000
   15        4.291918      4.291900   1.000000   1.000000
   16        4.664736      4.664721   1.000000   1.000000
   17        4.725304      4.725288   1.000000   1.000000
   18        4.856940      4.856922   1.000000   1.000000
   19        9.918798      9.918817  -0.000000  -0.000000
   20       13.392619     13.392648   0.000000   0.000000
   21       14.527988     14.527987   0.000000   0.000000
   22       14.639666     14.639664   0.000000   0.000000
   23       15.395482     15.395479   0.000000   0.000000
   24       15.701393     15.701390   0.000000   0.000000
   25       16.293601     16.293604   0.000000   0.000000
   26       17.256146     17.256174   0.000000   0.000000
   27       17.387977     17.387985   0.000000   0.000000
   28       17.661783     17.661792   0.000000   0.000000
   29       19.338622     19.338607   0.000000   0.000000
   30       19.720899     19.720909   0.000000   0.000000
   31       19.960656     19.960654   0.000000   0.000000
   32       20.981551     21.001835   0.000000   0.000000
 
  0.2222222E+00 -0.7431794E-17  0.7431794E-17  0.4938272E-02
    1      -37.311576    -37.311304   1.000000   1.000000
    2      -37.281330    -37.281057   1.000000   1.000000
    3      -13.486413    -13.486431   1.000000   1.000000
    4       -9.769692     -9.769715   1.000000   1.000000
    5       -8.907583     -8.907609   1.000000   1.000000
    6       -8.704377     -8.704404   1.000000   1.000000
    7       -5.552546     -5.552564   1.000000   1.000000
    8       -1.789206     -1.789223   1.000000   1.000000
    9       -1.589422     -1.589439   1.000000   1.000000
   10       -0.784033     -0.784052   1.000000   1.000000
   11        1.539708      1.539689   1.000000   1.000000
   12        2.988341      2.988326   1.000000   1.000000
   13        3.294199      3.294186   1.000000   1.000000
   14        3.602582      3.602578   1.000000   1.000000
   15        4.292980      4.292959   1.000000   1.000000
   16        4.564669      4.564652   1.000000   1.000000
   17        4.748561      4.748552   1.000000   1.000000
   18        5.155551      5.155534   1.000000   1.000000
   19       10.734512     10.734527   0.000000   0.000000
   20       13.416502     13.416522   0.000000   0.000000
   21       13.742945     13.742951   0.000000   0.000000
   22       14.220463     14.220459   0.000000   0.000000
   23       15.092737     15.092731   0.000000   0.000000
   24       16.149804     16.149807   0.000000   0.000000
   25       16.372201     16.372208   0.000000   0.000000
   26       17.466871     17.466873   0.000000   0.000000
   27       17.555315     17.555323   0.000000   0.000000
   28       18.573864     18.573854   0.000000   0.000000
   29       18.687264     18.687289   0.000000   0.000000
   30       18.913854     18.913861   0.000000   0.000000
   31       19.677592     19.677608   0.000000   0.000000
   32       20.893270     20.899609   0.000000   0.000000
 
  0.3333333E+00 -0.4134036E-16  0.4134036E-16  0.4938272E-02
    1      -37.308405    -37.308133   1.000000   1.000000
    2      -37.284336    -37.284063   1.000000   1.000000
    3      -13.210651    -13.210670   1.000000   1.000000
    4      -10.445677    -10.445698   1.000000   1.000000
    5       -8.936718     -8.936744   1.000000   1.000000
    6       -8.774905     -8.774932   1.000000   1.000000
    7       -5.010972     -5.010991   1.000000   1.000000
    8       -1.789654     -1.789671   1.000000   1.000000
    9       -1.343356     -1.343374   1.000000   1.000000
   10       -0.682193     -0.682212   1.000000   1.000000
   11        1.599952      1.599934   1.000000   1.000000
   12        2.670171      2.670154   1.000000   1.000000
   13        2.984769      2.984757   1.000000   1.000000
   14        3.562085      3.562079   1.000000   1.000000
   15        4.179207      4.179195   1.000000   1.000000
   16        4.453382      4.453363   1.000000   1.000000
   17        4.974138      4.974128   1.000000   1.000000
   18        5.555543      5.555521   1.000000   1.000000
   19       11.879710     11.879718   0.000000   0.000000
   20       12.768118     12.768123   0.000000   0.000000
   21       13.480701     13.480715   0.000000   0.000000
   22       14.081563     14.081569   0.000000   0.000000
   23       14.921356     14.921341   0.000000   0.000000
   24       16.310393     16.310405   0.000000   0.000000
   25       16.635953     16.635963   0.000000   0.000000
   26       17.371368     17.371366   0.000000   0.000000
   27       17.568080     17.568103   0.000000   0.000000
   28       17.814519     17.814511   0.000000   0.000000
   29       18.289049     18.289060   0.000000   0.000000
   30       19.278233     19.278238   0.000000   0.000000
   31       19.511711     19.512069   0.000000   0.000000
   32       20.885253     20.887497   0.000000   0.000000
 
  0.4444444E+00 -0.1486359E-16  0.1486359E-16  0.4938272E-02
    1      -37.305817    -37.305545   1.000000   1.000000
    2      -37.286872    -37.286599   1.000000   1.000000
    3      -12.964506    -12.964527   1.000000   1.000000
    4      -10.909375    -10.909396   1.000000   1.000000
    5       -8.936876     -8.936901   1.000000   1.000000
    6       -8.837446     -8.837472   1.000000   1.000000
    7       -4.710307     -4.710325   1.000000   1.000000
    8       -1.753915     -1.753935   1.000000   1.000000
    9       -1.048630     -1.048649   1.000000   1.000000
   10       -0.732816     -0.732835   1.000000   1.000000
   11        1.751438      1.751424   1.000000   1.000000
   12        2.160027      2.160011   1.000000   1.000000
   13        2.747475      2.747465   1.000000   1.000000
   14        3.825381      3.825367   1.000000   1.000000
   15        4.090068      4.090055   1.000000   1.000000
   16        4.280130      4.280120   1.000000   1.000000
   17        5.200479      5.200464   1.000000   1.000000
   18        5.794337      5.794312   1.000000   1.000000
   19       12.292721     12.292727   0.000000   0.000000
   20       12.982611     12.982609   0.000000   0.000000
   21       13.546975     13.546979   0.000000   0.000000
   22       13.989179     13.989185   0.000000   0.000000
   23       14.835970     14.835958   0.000000   0.000000
   24       15.832375     15.832397   0.000000   0.000000
   25       16.470576     16.470709   0.000000   0.000000
   26       17.036346     17.036346   0.000000   0.000000
   27       17.248604     17.248614   0.000000   0.000000
   28       17.950702     17.950693   0.000000   0.000000
   29       18.471169     18.471186   0.000000   0.000000
   30       18.920940     18.920924   0.000000   0.000000
   31       19.755343     19.755318   0.000000   0.000000
   32       20.490340     20.488282   0.000000   0.000000
 
  0.1111111E+00  0.1111111E+00  0.8277581E-15  0.2469136E-02
    1      -37.312602    -37.312330   1.000000   1.000000
    2      -37.280385    -37.280112   1.000000   1.000000
    3      -13.569842    -13.569860   1.000000   1.000000
    4       -9.481913     -9.481937   1.000000   1.000000
    5       -8.904604     -8.904630   1.000000   1.000000
    6       -8.729421     -8.729448   1.000000   1.000000
    7       -5.736683     -5.736701   1.000000   1.000000
    8       -1.831167     -1.831183   1.000000   1.000000
    9       -1.512849     -1.512867   1.000000   1.000000
   10       -0.921639     -0.921658   1.000000   1.000000
   11        1.609020      1.609000   1.000000   1.000000
   12        2.941973      2.941958   1.000000   1.000000
   13        3.231189      3.231188   1.000000   1.000000
   14        3.879275      3.879260   1.000000   1.000000
   15        4.247429      4.247407   1.000000   1.000000
   16        4.586782      4.586766   1.000000   1.000000
   17        4.856365      4.856347   1.000000   1.000000
   18        4.873627      4.873617   1.000000   1.000000
   19       10.379058     10.379075  -0.000000  -0.000000
   20       13.402453     13.402479   0.000000   0.000000
   21       14.041816     14.041815   0.000000   0.000000
   22       14.231712     14.231710   0.000000   0.000000
   23       15.473491     15.473483   0.000000   0.000000
   24       15.800753     15.800758   0.000000   0.000000
   25       16.195314     16.195319   0.000000   0.000000
   26       17.186411     17.186423   0.000000   0.000000
   27       17.748382     17.748392   0.000000   0.000000
   28       18.327961     18.327979   0.000000   0.000000
   29       19.105005     19.104994   0.000000   0.000000
   30       19.332192     19.332189   0.000000   0.000000
   31       19.829696     19.829698   0.000000   0.000000
   32       20.663341     20.650156   0.000000   0.000000
 
  0.2222222E+00  0.1111111E+00  0.8740076E-15  0.4938272E-02
    1      -37.309885    -37.309613   1.000000   1.000000
    2      -37.282938    -37.282666   1.000000   1.000000
    3      -13.345674    -13.345693   1.000000   1.000000
    4      -10.112606    -10.112628   1.000000   1.000000
    5       -8.958517     -8.958543   1.000000   1.000000
    6       -8.782088     -8.782115   1.000000   1.000000
    7       -5.168680     -5.168699   1.000000   1.000000
    8       -1.884904     -1.884920   1.000000   1.000000
    9       -1.307896     -1.307914   1.000000   1.000000
   10       -0.780520     -0.780540   1.000000   1.000000
   11        1.623187      1.623169   1.000000   1.000000
   12        2.884696      2.884681   1.000000   1.000000
   13        2.988815      2.988801   1.000000   1.000000
   14        3.593325      3.593321   1.000000   1.000000
   15        4.155990      4.155970   1.000000   1.000000
   16        4.610545      4.610526   1.000000   1.000000
   17        4.926131      4.926118   1.000000   1.000000
   18        5.226405      5.226388   1.000000   1.000000
   19       11.263081     11.263094   0.000000   0.000000
   20       13.052621     13.052635   0.000000   0.000000
   21       13.356488     13.356492   0.000000   0.000000
   22       14.332719     14.332723   0.000000   0.000000
   23       15.152557     15.152551   0.000000   0.000000
   24       15.884867     15.884874   0.000000   0.000000
   25       16.428548     16.428556   0.000000   0.000000
   26       17.403258     17.403257   0.000000   0.000000
   27       17.918590     17.918600   0.000000   0.000000
   28       18.408158     18.408150   0.000000   0.000000
   29       18.560482     18.560509   0.000000   0.000000
   30       19.156573     19.156594   0.000000   0.000000
   31       19.530527     19.530593   0.000000   0.000000
   32       20.554908     20.559604   0.000000   0.000000
 
  0.3333333E+00  0.1111111E+00  0.9462122E-15  0.4938272E-02
    1      -37.306701    -37.306429   1.000000   1.000000
    2      -37.285991    -37.285718   1.000000   1.000000
    3      -13.057839    -13.057858   1.000000   1.000000
    4      -10.712980    -10.713002   1.000000   1.000000
    5       -8.984363     -8.984388   1.000000   1.000000
    6       -8.842921     -8.842947   1.000000   1.000000
    7       -4.720152     -4.720170   1.000000   1.000000
    8       -1.889912     -1.889930   1.000000   1.000000
    9       -1.072383     -1.072401   1.000000   1.000000
   10       -0.712839     -0.712860   1.000000   1.000000
   11        1.756487      1.756471   1.000000   1.000000
   12        2.249164      2.249153   1.000000   1.000000
   13        2.889261      2.889248   1.000000   1.000000
   14        3.624672      3.624659   1.000000   1.000000
   15        4.139724      4.139711   1.000000   1.000000
   16        4.556714      4.556695   1.000000   1.000000
   17        5.101060      5.101046   1.000000   1.000000
   18        5.581932      5.581910   1.000000   1.000000
   19       12.299569     12.299575   0.000000   0.000000
   20       12.636378     12.636382   0.000000   0.000000
   21       13.135146     13.135156   0.000000   0.000000
   22       14.130290     14.130294   0.000000   0.000000
   23       15.089509     15.089501   0.000000   0.000000
   24       15.945705     15.945721   0.000000   0.000000
   25       16.664189     16.664202   0.000000   0.000000
   26       17.277270     17.277268   0.000000   0.000000
   27       17.421488     17.421505   0.000000   0.000000
   28       17.922150     17.922143   0.000000   0.000000
   29       18.308597     18.308608   0.000000   0.000000
   30       19.068645     19.068675   0.000000   0.000000
   31       19.622467     19.622671   0.000000   0.000000
   32       20.817365     20.817613   0.000000   0.000000
 
  0.4444444E+00  0.1111111E+00  0.8986546E-15  0.4938272E-02
    1      -37.304694    -37.304422   1.000000   1.000000
    2      -37.287915    -37.287642   1.000000   1.000000
    3      -12.860928    -12.860949   1.000000   1.000000
    4      -11.043624    -11.043644   1.000000   1.000000
    5       -8.990764     -8.990789   1.000000   1.000000
    6       -8.872693     -8.872719   1.000000   1.000000
    7       -4.533477     -4.533494   1.000000   1.000000
    8       -1.898037     -1.898057   1.000000   1.000000
    9       -0.927903     -0.927923   1.000000   1.000000
   10       -0.701774     -0.701793   1.000000   1.000000
   11        1.670893      1.670886   1.000000   1.000000
   12        2.124223      2.124205   1.000000   1.000000
   13        2.736608      2.736597   1.000000   1.000000
   14        3.829647      3.829630   1.000000   1.000000
   15        4.141994      4.141983   1.000000   1.000000
   16        4.435090      4.435076   1.000000   1.000000
   17        5.211160      5.211144   1.000000   1.000000
   18        5.747992      5.747967   1.000000   1.000000
   19       12.196919     12.196925   0.000000   0.000000
   20       13.143905     13.143906   0.000000   0.000000
   21       13.495432     13.495431   0.000000   0.000000
   22       13.938024     13.938022   0.000000   0.000000
   23       15.067111     15.067108   0.000000   0.000000
   24       15.739899     15.739931   0.000000   0.000000
   25       16.436265     16.436330   0.000000   0.000000
   26       16.834019     16.834030   0.000000   0.000000
   27       17.083314     17.083308   0.000000   0.000000
   28       18.105066     18.105055   0.000000   0.000000
   29       18.462074     18.462074   0.000000   0.000000
   30       18.729827     18.729926   0.000000   0.000000
   31       19.801312     19.801246   0.000000   0.000000
   32       20.565787     20.564128   0.000000   0.000000
 
 -0.4444444E+00  0.1111111E+00  0.7478929E-15  0.4938272E-02
    1      -37.305738    -37.305466   1.000000   1.000000
    2      -37.286909    -37.286636   1.000000   1.000000
    3      -12.961076    -12.961096   1.000000   1.000000
    4      -10.874971    -10.874993   1.000000   1.000000
    5       -8.997496     -8.997521   1.000000   1.000000
    6       -8.832527     -8.832553   1.000000   1.000000
    7       -4.657276     -4.657294   1.000000   1.000000
    8       -1.977148     -1.977167   1.000000   1.000000
    9       -1.102576     -1.102595   1.000000   1.000000
   10       -0.556785     -0.556804   1.000000   1.000000
   11        1.537940      1.537926   1.000000   1.000000
   12        2.235544      2.235533   1.000000   1.000000
   13        2.976728      2.976713   1.000000   1.000000
   14        3.926886      3.926872   1.000000   1.000000
   15        4.133058      4.133040   1.000000   1.000000
   16        4.368047      4.368037   1.000000   1.000000
   17        5.125194      5.125181   1.000000   1.000000
   18        5.691989      5.691965   1.000000   1.000000
   19       12.286305     12.286309   0.000000   0.000000
   20       12.707984     12.707988   0.000000   0.000000
   21       13.726913     13.726918   0.000000   0.000000
   22       14.066940     14.066943   0.000000   0.000000
   23       14.929064     14.929057   0.000000   0.000000
   24       15.857903     15.857930   0.000000   0.000000
   25       16.615441     16.615452   0.000000   0.000000
   26       16.846185     16.846186   0.000000   0.000000
   27       17.113087     17.113110   0.000000   0.000000
   28       18.103218     18.103218   0.000000   0.000000
   29       18.425772     18.425765   0.000000   0.000000
   30       18.890923     18.890924   0.000000   0.000000
   31       19.752424     19.752549   0.000000   0.000000
   32       20.537722     20.536447   0.000000   0.000000
 
 -0.3333333E+00  0.1111111E+00  0.7280910E-15  0.4938272E-02
    1      -37.308738    -37.308465   1.000000   1.000000
    2      -37.283984    -37.283711   1.000000   1.000000
    3      -13.240610    -13.240629   1.000000   1.000000
    4      -10.339299    -10.339322   1.000000   1.000000
    5       -8.978171     -8.978196   1.000000   1.000000
    6       -8.756443     -8.756470   1.000000   1.000000
    7       -5.064410     -5.064429   1.000000   1.000000
    8       -2.055680     -2.055696   1.000000   1.000000
    9       -1.319669     -1.319687   1.000000   1.000000
   10       -0.534627     -0.534647   1.000000   1.000000
   11        1.375303      1.375286   1.000000   1.000000
   12        2.813576      2.813561   1.000000   1.000000
   13        3.197798      3.197781   1.000000   1.000000
   14        3.723400      3.723395   1.000000   1.000000
   15        4.257976      4.257956   1.000000   1.000000
   16        4.421498      4.421480   1.000000   1.000000
   17        4.921327      4.921320   1.000000   1.000000
   18        5.429353      5.429334   1.000000   1.000000
   19       11.585405     11.585415   0.000000   0.000000
   20       12.900934     12.900943   0.000000   0.000000
   21       13.787489     13.787499   0.000000   0.000000
   22       14.234158     14.234161   0.000000   0.000000
   23       14.928790     14.928781   0.000000   0.000000
   24       15.876148     15.876160   0.000000   0.000000
   25       16.633000     16.633002   0.000000   0.000000
   26       17.311704     17.311704   0.000000   0.000000
   27       17.670953     17.670962   0.000000   0.000000
   28       18.061606     18.061623   0.000000   0.000000
   29       18.444587     18.444585   0.000000   0.000000
   30       18.996579     18.996595   0.000000   0.000000
   31       19.561953     19.562074   0.000000   0.000000
   32       20.725206     20.737063   0.000000   0.000000
 
 -0.2222222E+00  0.1111111E+00  0.8038970E-15  0.4938272E-02
    1      -37.311774    -37.311502   1.000000   1.000000
    2      -37.281165    -37.280892   1.000000   1.000000
    3      -13.497710    -13.497728   1.000000   1.000000
    4       -9.704768     -9.704792   1.000000   1.000000
    5       -8.926827     -8.926853   1.000000   1.000000
    6       -8.678651     -8.678678   1.000000   1.000000
    7       -5.629846     -5.629865   1.000000   1.000000
    8       -2.043644     -2.043659   1.000000   1.000000
    9       -1.494729     -1.494747   1.000000   1.000000
   10       -0.662462     -0.662483   1.000000   1.000000
   11        1.376247      1.376228   1.000000   1.000000
   12        3.152433      3.152416   1.000000   1.000000
   13        3.315762      3.315750   1.000000   1.000000
   14        3.766568      3.766562   1.000000   1.000000
   15        4.316761      4.316739   1.000000   1.000000
   16        4.526757      4.526737   1.000000   1.000000
   17        4.790302      4.790294   1.000000   1.000000
   18        5.067147      5.067134   1.000000   1.000000
   19       10.606263     10.606278   0.000000   0.000000
   20       13.543457     13.543478   0.000000   0.000000
   21       14.140738     14.140738   0.000000   0.000000
   22       14.399671     14.399670   0.000000   0.000000
   23       14.952521     14.952520   0.000000   0.000000
   24       15.439891     15.439893   0.000000   0.000000
   25       16.784786     16.784789   0.000000   0.000000
   26       17.175801     17.175801   0.000000   0.000000
   27       18.010325     18.010338   0.000000   0.000000
   28       18.251445     18.251462   0.000000   0.000000
   29       18.617454     18.617452   0.000000   0.000000
   30       18.860924     18.860950   0.000000   0.000000
   31       19.793345     19.793307   0.000000   0.000000
   32       20.923197     20.911126   0.000000   0.000000
 
 -0.1111111E+00  0.1111111E+00  0.7772295E-15  0.2469136E-02
    1      -37.313723    -37.313451   1.000000   1.000000
    2      -37.279431    -37.279158   1.000000   1.000000
    3      -13.651833    -13.651851   1.000000   1.000000
    4       -9.217383     -9.217407   1.000000   1.000000
    5       -8.875734     -8.875760   1.000000   1.000000
    6       -8.607351     -8.607378   1.000000   1.000000
    7       -6.114313     -6.114330   1.000000   1.000000
    8       -1.930022     -1.930038   1.000000   1.000000
    9       -1.620368     -1.620386   1.000000   1.000000
   10       -0.848510     -0.848530   1.000000   1.000000
   11        1.511709      1.511689   1.000000   1.000000
   12        3.059605      3.059589   1.000000   1.000000
   13        3.183910      3.183913   1.000000   1.000000
   14        4.136777      4.136759   1.000000   1.000000
   15        4.306112      4.306092   1.000000   1.000000
   16        4.674832      4.674814   1.000000   1.000000
   17        4.729711      4.729696   1.000000   1.000000
   18        4.856715      4.856703   1.000000   1.000000
   19        9.998883      9.998901   0.000000   0.000000
   20       13.487917     13.487944   0.000000   0.000000
   21       14.672991     14.672994   0.000000   0.000000
   22       14.902845     14.902840   0.000000   0.000000
   23       15.087158     15.087146   0.000000   0.000000
   24       15.137716     15.137724   0.000000   0.000000
   25       16.806119     16.806122   0.000000   0.000000
   26       17.158223     17.158234   0.000000   0.000000
   27       17.389275     17.389287   0.000000   0.000000
   28       17.722591     17.722613   0.000000   0.000000
   29       19.144619     19.144603   0.000000   0.000000
   30       19.472613     19.472623   0.000000   0.000000
   31       20.035423     20.035425   0.000000   0.000000
   32       21.081331     21.108737   0.000000   0.000000
 
  0.2222222E+00  0.2222222E+00  0.5184075E-14  0.2469136E-02
    1      -37.307057    -37.306785   1.000000   1.000000
    2      -37.285664    -37.285392   1.000000   1.000000
    3      -13.094626    -13.094645   1.000000   1.000000
    4      -10.607460    -10.607482   1.000000   1.000000
    5       -9.048378     -9.048402   1.000000   1.000000
    6       -8.843056     -8.843082   1.000000   1.000000
    7       -4.684721     -4.684741   1.000000   1.000000
    8       -2.011096     -2.011113   1.000000   1.000000
    9       -1.063799     -1.063816   1.000000   1.000000
   10       -0.677408     -0.677429   1.000000   1.000000
   11        1.739646      1.739629   1.000000   1.000000
   12        2.249579      2.249572   1.000000   1.000000
   13        2.914296      2.914282   1.000000   1.000000
   14        3.795189      3.795178   1.000000   1.000000
   15        4.100028      4.100008   1.000000   1.000000
   16        4.669748      4.669729   1.000000   1.000000
   17        5.126266      5.126248   1.000000   1.000000
   18        5.335590      5.335574   1.000000   1.000000
   19       12.017848     12.017857   0.000000   0.000000
   20       12.765266     12.765277   0.000000   0.000000
   21       12.932712     12.932714   0.000000   0.000000
   22       14.337898     14.337896   0.000000   0.000000
   23       15.377879     15.377891   0.000000   0.000000
   24       15.518903     15.518908   0.000000   0.000000
   25       16.436167     16.436175   0.000000   0.000000
   26       17.642529     17.642525   0.000000   0.000000
   27       17.882681     17.882679   0.000000   0.000000
   28       17.918588     17.918633   0.000000   0.000000
   29       18.485546     18.485549   0.000000   0.000000
   30       18.892378     18.892407   0.000000   0.000000
   31       19.633813     19.633813   0.000000   0.000000
   32       20.303115     20.314386   0.000000   0.000000
 
  0.3333333E+00  0.2222222E+00  0.5277361E-14  0.4938272E-02
    1      -37.303914    -37.303641   1.000000   1.000000
    2      -37.288658    -37.288386   1.000000   1.000000
    3      -12.797906    -12.797926   1.000000   1.000000
    4      -11.083664    -11.083687   1.000000   1.000000
    5       -9.090841     -9.090865   1.000000   1.000000
    6       -8.904462     -8.904487   1.000000   1.000000
    7       -4.304177     -4.304196   1.000000   1.000000
    8       -2.149001     -2.149020   1.000000   1.000000
    9       -0.871651     -0.871667   1.000000   1.000000
   10       -0.624412     -0.624432   1.000000   1.000000
   11        1.701171      1.701166   1.000000   1.000000
   12        2.027117      2.027101   1.000000   1.000000
   13        2.773762      2.773749   1.000000   1.000000
   14        3.818320      3.818303   1.000000   1.000000
   15        4.272841      4.272823   1.000000   1.000000
   16        4.709606      4.709589   1.000000   1.000000
   17        5.168613      5.168595   1.000000   1.000000
   18        5.525682      5.525661   1.000000   1.000000
   19       12.285045     12.285048   0.000000   0.000000
   20       12.891800     12.891806   0.000000   0.000000
   21       13.111970     13.111974   0.000000   0.000000
   22       14.019739     14.019736   0.000000   0.000000
   23       15.279709     15.279717   0.000000   0.000000
   24       15.815107     15.815129   0.000000   0.000000
   25       16.445175     16.445182   0.000000   0.000000
   26       17.141621     17.141645   0.000000   0.000000
   27       17.226242     17.226242   0.000000   0.000000
   28       17.838731     17.838716   0.000000   0.000000
   29       18.373199     18.373217   0.000000   0.000000
   30       18.769650     18.769667   0.000000   0.000000
   31       19.683707     19.683853   0.000000   0.000000
   32       20.459882     20.463892   0.000000   0.000000
 
  0.4444444E+00  0.2222222E+00  0.5264234E-14  0.4938272E-02
    1      -37.302591    -37.302318   1.000000   1.000000
    2      -37.289971    -37.289698   1.000000   1.000000
    3      -12.657679    -12.657700   1.000000   1.000000
    4      -11.272849    -11.272870   1.000000   1.000000
    5       -9.088330     -9.088353   1.000000   1.000000
    6       -8.932341     -8.932367   1.000000   1.000000
    7       -4.195086     -4.195105   1.000000   1.000000
    8       -2.323160     -2.323180   1.000000   1.000000
    9       -0.822676     -0.822694   1.000000   1.000000
   10       -0.516968     -0.516987   1.000000   1.000000
   11        1.505043      1.505038   1.000000   1.000000
   12        2.164111      2.164097   1.000000   1.000000
   13        2.773584      2.773570   1.000000   1.000000
   14        3.813449      3.813429   1.000000   1.000000
   15        4.425508      4.425491   1.000000   1.000000
   16        4.688918      4.688900   1.000000   1.000000