 running on   48 total cores
 distrk:  each k-point on   48 cores,    1 groups
 distr:  one band on    6 cores,    8 groups
 using from now: INCAR     
 vasp.6.1.2 22Jul20 (build Mar 31 2021 18:09:49) complex                        
  
 POSCAR found type information on POSCAR LiP O 
 POSCAR found :  3 types and     100 ions
 scaLAPACK will be used
 LDA part: xc-table for Pade appr. of Perdew
 generate k-points for:    6    3    2
 POSCAR, INCAR and KPOINTS ok, starting setup
 FFT: planning ...
 WAVECAR not read
 entering main loop
       N       E                     dE             d eps       ncg     rms          rms(c)
DAV:   1     0.449438802111E+04    0.44944E+04   -0.25645E+05 27520   0.151E+03
DAV:   2    -0.263162448703E+03   -0.47576E+04   -0.45107E+04 32488   0.387E+02
DAV:   3    -0.715236676423E+03   -0.45207E+03   -0.44879E+03 34368   0.128E+02
DAV:   4    -0.745495020260E+03   -0.30258E+02   -0.30117E+02 47560   0.266E+01
DAV:   5    -0.751829104361E+03   -0.63341E+01   -0.63307E+01 44280   0.723E+00    0.107E+02
DAV:   6    -0.574655722148E+03    0.17717E+03   -0.43607E+02 33368   0.388E+01    0.566E+01
DAV:   7    -0.599485806703E+03   -0.24830E+02   -0.61837E+01 34208   0.137E+01    0.207E+01
DAV:   8    -0.615948202789E+03   -0.16462E+02   -0.12019E+01 33760   0.670E+00    0.120E+01
DAV:   9    -0.637323372696E+03   -0.21375E+02   -0.10717E+01 33360   0.545E+00    0.714E+00
DAV:  10    -0.660770420763E+03   -0.23447E+02   -0.22115E+01 33904   0.664E+00    0.401E+00
DAV:  11    -0.670896288337E+03   -0.10126E+02   -0.12442E+01 34384   0.483E+00    0.266E+00
DAV:  12    -0.672701089940E+03   -0.18048E+01   -0.28183E+00 33896   0.267E+00    0.165E+00
DAV:  13    -0.672809181449E+03   -0.10809E+00   -0.33119E-01 32920   0.106E+00    0.891E-01
DAV:  14    -0.672825380842E+03   -0.16199E-01   -0.58367E-02 35464   0.525E-01    0.529E-01
DAV:  15    -0.672823170810E+03    0.22100E-02   -0.13176E-02 31256   0.267E-01    0.250E-01
DAV:  16    -0.672824075339E+03   -0.90453E-03   -0.41601E-03 38048   0.148E-01    0.943E-02
DAV:  17    -0.672824459791E+03   -0.38445E-03   -0.15214E-03 32720   0.803E-02    0.513E-02
DAV:  18    -0.672824579013E+03   -0.11922E-03   -0.22581E-04 34152   0.367E-02    0.264E-02
DAV:  19    -0.672824603944E+03   -0.24931E-04   -0.51100E-05 27440   0.163E-02    0.129E-02
DAV:  20    -0.672824610209E+03   -0.62650E-05   -0.12554E-05 22408   0.925E-03
   1 F= -.67282461E+03 E0= -.67282461E+03  d E =0.000000E+00  mag=     0.0000
