 running on    8 total cores
 distrk:  each k-point on    8 cores,    1 groups
 distr:  one band on    1 cores,    8 groups
 using from now: INCAR     
 vasp.6.1.2 22Jul20 (build Mar 20 2021 11:25:07) complex                        
  
 POSCAR found type information on POSCAR LiP 
 POSCAR found :  2 types and      16 ions
 scaLAPACK will be used
 -----------------------------------------------------------------------------
|                                                                             |
|           W    W    AA    RRRRR   N    N  II  N    N   GGGG   !!!           |
|           W    W   A  A   R    R  NN   N  II  NN   N  G    G  !!!           |
|           W    W  A    A  R    R  N N  N  II  N N  N  G       !!!           |
|           W WW W  AAAAAA  RRRRR   N  N N  II  N  N N  G  GGG   !            |
|           WW  WW  A    A  R   R   N   NN  II  N   NN  G    G                |
|           W    W  A    A  R    R  N    N  II  N    N   GGGG   !!!           |
|                                                                             |
|     The value NCORE = 6 specified in the INCAR file was overwritten,        |
|     because it was not compatible with the 8 processes available:           |
|     NCORE = 1                                                               |
|     was used instead, please check that this makes sense for your           |
|     machine.                                                                |
|                                                                             |
 -----------------------------------------------------------------------------

 -----------------------------------------------------------------------------
|                                                                             |
|           W    W    AA    RRRRR   N    N  II  N    N   GGGG   !!!           |
|           W    W   A  A   R    R  NN   N  II  NN   N  G    G  !!!           |
|           W    W  A    A  R    R  N N  N  II  N N  N  G       !!!           |
|           W WW W  AAAAAA  RRRRR   N  N N  II  N  N N  G  GGG   !            |
|           WW  WW  A    A  R   R   N   NN  II  N   NN  G    G                |
|           W    W  A    A  R    R  N    N  II  N    N   GGGG   !!!           |
|                                                                             |
|     For optimal performance we recommend to set                             |
|       NCORE = 4 - approx SQRT(number of cores).                             |
|     NCORE specifies how many cores store one orbital (NPAR=cpu/NCORE).      |
|     This setting can greatly improve the performance of VASP for DFT.       |
|     The default, NCORE=1 might be grossly inefficient on modern             |
|     multi-core architectures or massively parallel machines. Do your        |
|     own testing!!!!                                                         |
|     Unfortunately you need to use the default for GW and RPA                |
|     calculations (for HF NCORE is supported but not extensively tested      |
|     yet).                                                                   |
|                                                                             |
 -----------------------------------------------------------------------------

 LDA part: xc-table for Pade appr. of Perdew
 generate k-points for:    6    6    4
 POSCAR, INCAR and KPOINTS ok, starting setup
 FFT: planning ...
 WAVECAR not read
 entering main loop
       N       E                     dE             d eps       ncg     rms          rms(c)
DAV:   1     0.394768403362E+03    0.39477E+03   -0.25729E+04 14592   0.131E+03
DAV:   2    -0.405842247180E+01   -0.39883E+03   -0.36491E+03 16208   0.314E+02
DAV:   3    -0.559082339637E+02   -0.51850E+02   -0.51165E+02 20976   0.882E+01
DAV:   4    -0.633565321344E+02   -0.74483E+01   -0.73709E+01 25888   0.325E+01
DAV:   5    -0.640711161702E+02   -0.71458E+00   -0.71428E+00 20296   0.741E+00    0.210E+01
DAV:   6    -0.654008300825E+02   -0.13297E+01   -0.27682E+00 19376   0.645E+00    0.112E+01
DAV:   7    -0.666796160912E+02   -0.12788E+01   -0.72391E-01 17856   0.408E+00    0.588E+00
DAV:   8    -0.669143530229E+02   -0.23474E+00   -0.60925E-01 19064   0.286E+00    0.126E+00
DAV:   9    -0.669450961338E+02   -0.30743E-01   -0.80032E-02 21784   0.110E+00    0.496E-01
DAV:  10    -0.669489472919E+02   -0.38512E-02   -0.65292E-03 18776   0.370E-01    0.210E-01
DAV:  11    -0.669504101069E+02   -0.14628E-02   -0.18530E-03 18256   0.201E-01    0.970E-02
DAV:  12    -0.669506891835E+02   -0.27908E-03   -0.59542E-04 18560   0.991E-02    0.408E-02
DAV:  13    -0.669507345417E+02   -0.45358E-04   -0.91619E-05 17072   0.494E-02    0.206E-02
DAV:  14    -0.669507480388E+02   -0.13497E-04   -0.28823E-05 14880   0.272E-02    0.602E-03
DAV:  15    -0.669507496031E+02   -0.15643E-05   -0.40599E-06 10840   0.123E-02
   1 F= -.66950750E+02 E0= -.66950750E+02  d E =0.000000E+00  mag=    -0.0003
