 running on   48 total cores
 distrk:  each k-point on   48 cores,    1 groups
 distr:  one band on    6 cores,    8 groups
 using from now: INCAR     
 vasp.6.1.2 22Jul20 (build Mar 31 2021 18:09:49) complex                        
  
 POSCAR found type information on POSCAR LiP O 
 POSCAR found :  3 types and     100 ions
 scaLAPACK will be used
 LDA part: xc-table for Pade appr. of Perdew
 generate k-points for:    6    3    2
 POSCAR, INCAR and KPOINTS ok, starting setup
 FFT: planning ...
 WAVECAR not read
 entering main loop
       N       E                     dE             d eps       ncg     rms          rms(c)
DAV:   1     0.449624198514E+04    0.44962E+04   -0.25650E+05 27520   0.151E+03
DAV:   2    -0.262709168488E+03   -0.47590E+04   -0.45125E+04 32488   0.387E+02
DAV:   3    -0.714305990567E+03   -0.45160E+03   -0.44833E+03 34216   0.128E+02
DAV:   4    -0.744799953042E+03   -0.30494E+02   -0.30352E+02 47640   0.265E+01
DAV:   5    -0.751165694915E+03   -0.63657E+01   -0.63623E+01 44496   0.730E+00    0.107E+02
DAV:   6    -0.573850845057E+03    0.17731E+03   -0.43603E+02 33384   0.390E+01    0.574E+01
DAV:   7    -0.598653736171E+03   -0.24803E+02   -0.63114E+01 34240   0.139E+01    0.206E+01
DAV:   8    -0.614947069220E+03   -0.16293E+02   -0.12078E+01 33776   0.676E+00    0.120E+01
DAV:   9    -0.636234436916E+03   -0.21287E+02   -0.10629E+01 33592   0.546E+00    0.725E+00
DAV:  10    -0.659741660282E+03   -0.23507E+02   -0.22030E+01 33800   0.665E+00    0.404E+00
DAV:  11    -0.669856698791E+03   -0.10115E+02   -0.12184E+01 34360   0.480E+00    0.271E+00
DAV:  12    -0.671861703896E+03   -0.20050E+01   -0.29510E+00 33880   0.272E+00    0.169E+00
DAV:  13    -0.672001127064E+03   -0.13942E+00   -0.38308E-01 32816   0.113E+00    0.912E-01
DAV:  14    -0.672017641943E+03   -0.16515E-01   -0.62237E-02 35184   0.543E-01    0.543E-01
DAV:  15    -0.672015702188E+03    0.19398E-02   -0.14202E-02 31032   0.278E-01    0.259E-01
DAV:  16    -0.672016526038E+03   -0.82385E-03   -0.43156E-03 38264   0.149E-01    0.964E-02
DAV:  17    -0.672016940371E+03   -0.41433E-03   -0.14891E-03 33144   0.805E-02    0.516E-02
DAV:  18    -0.672017065880E+03   -0.12551E-03   -0.22959E-04 34272   0.370E-02    0.272E-02
DAV:  19    -0.672017092574E+03   -0.26694E-04   -0.49866E-05 27456   0.164E-02    0.131E-02
DAV:  20    -0.672017099262E+03   -0.66877E-05   -0.12978E-05 22480   0.940E-03
   1 F= -.67201710E+03 E0= -.67201710E+03  d E =0.000000E+00  mag=     0.0000
