 running on   24 total cores
 distrk:  each k-point on   24 cores,    1 groups
 distr:  one band on    6 cores,    4 groups
 using from now: INCAR     
 vasp.6.1.2 22Jul20 (build Mar 31 2021 18:09:49) complex                        
  
 POSCAR found type information on POSCAR LiP 
 POSCAR found :  2 types and       8 ions
 scaLAPACK will be used
 -----------------------------------------------------------------------------
|                                                                             |
|               ----> ADVICE to this user running VASP <----                  |
|                                                                             |
|     You have a (more or less) 'small supercell' and for smaller cells       |
|     it is recommended to use the reciprocal-space projection scheme!        |
|     The real-space optimization is not efficient for small cells and it     |
|     is also less accurate ...                                               |
|     Therefore, set LREAL=.FALSE. in the INCAR file.                         |
|                                                                             |
 -----------------------------------------------------------------------------

 LDA part: xc-table for Pade appr. of Perdew
 generate k-points for:    9    9    4
 POSCAR, INCAR and KPOINTS ok, starting setup
 FFT: planning ...
 WAVECAR not read
 entering main loop
       N       E                     dE             d eps       ncg     rms          rms(c)
DAV:   1     0.158851841430E+03    0.15885E+03   -0.11796E+04  9120   0.118E+03
DAV:   2     0.176665659163E+01   -0.15709E+03   -0.14844E+03  9960   0.300E+02
DAV:   3    -0.236388285527E+02   -0.25405E+02   -0.25174E+02 16232   0.697E+01
DAV:   4    -0.264379892690E+02   -0.27992E+01   -0.27774E+01 13536   0.311E+01
DAV:   5    -0.266456968395E+02   -0.20771E+00   -0.20769E+00 14408   0.679E+00    0.149E+01
RMM:   6    -0.271097736209E+02   -0.46408E+00   -0.16274E+00 11093   0.629E+00    0.755E+00
RMM:   7    -0.278156768558E+02   -0.70590E+00   -0.48997E-01 12500   0.424E+00    0.285E+00
RMM:   8    -0.278871625976E+02   -0.71486E-01   -0.39055E-01 14282   0.286E+00    0.118E+00
RMM:   9    -0.278959450279E+02   -0.87824E-02   -0.95266E-02 15126   0.168E+00    0.517E-01
RMM:  10    -0.279041226808E+02   -0.81777E-02   -0.42415E-02 15860   0.100E+00    0.268E-01
RMM:  11    -0.279062712607E+02   -0.21486E-02   -0.15438E-02 16118   0.577E-01    0.197E-01
RMM:  12    -0.279070108875E+02   -0.73963E-03   -0.56498E-03 15733   0.439E-01    0.502E-02
RMM:  13    -0.279075892826E+02   -0.57840E-03   -0.32107E-03 16226   0.267E-01    0.187E-02
RMM:  14    -0.279077875380E+02   -0.19826E-03   -0.15797E-03 15948   0.171E-01    0.220E-02
RMM:  15    -0.279078716052E+02   -0.84067E-04   -0.72225E-04 14280   0.113E-01    0.187E-02
RMM:  16    -0.279079140544E+02   -0.42449E-04   -0.37142E-04 14046   0.810E-02    0.245E-02
WARNING in EDDRMM: call to ZHEGV failed, returncode =   6  3      3
RMM:  17    -0.279079315477E+02   -0.17493E-04   -0.20689E-04 13784   0.674E-02    0.190E-02
RMM:  18    -0.279079449784E+02   -0.13431E-04   -0.11887E-04 12581   0.500E-02    0.186E-02
RMM:  19    -0.279079521340E+02   -0.71556E-05   -0.80937E-05 11916   0.426E-02
   1 F= -.27907952E+02 E0= -.27907952E+02  d E =0.000000E+00  mag=    -0.0001
