    8    8    1    2
  0.8856709E+01  0.3339380E-09  0.3180362E-09  0.7703522E-09  0.5000000E-15
  1.000000000000000E-004
  CAR 
 unknown system                          
     36    201     26
 
  0.0000000E+00  0.0000000E+00  0.0000000E+00  0.1893939E-02
    1      -42.257384    -42.257223   1.000000   1.000000
    2      -42.252709    -42.252548   1.000000   1.000000
    3      -41.871542    -41.871410   1.000000   1.000000
    4      -41.867559    -41.867427   1.000000   1.000000
    5      -18.337210    -18.337254   1.000000   1.000000
    6      -18.158474    -18.158522   1.000000   1.000000
    7      -13.305082    -13.305129   1.000000   1.000000
    8      -12.623064    -12.623126   1.000000   1.000000
    9       -4.182736     -4.182744   1.000000   1.000000
   10       -2.504398     -2.504438   1.000000   1.000000
   11       -1.391966     -1.392011   1.000000   1.000000
   12       -1.240291     -1.240337   1.000000   1.000000
   13       -1.222023     -1.222072   1.000000   1.000000
   14       -1.081491     -1.081539   1.000000   1.000000
   15        1.742002      1.741939   1.000000   1.000000
   16        1.866691      1.866629   1.000000   1.000000
   17        2.001481      2.001412   1.000000   1.000000
   18        2.106297      2.106230   1.000000   1.000000
   19        4.154173      4.154164   0.000002   0.000002
   20        6.346618      6.346560   0.000000   0.000000
   21        7.647349      7.647367   0.000000   0.000000
   22        7.936665      7.936703   0.000000   0.000000
   23       10.319233     10.319236   0.000000   0.000000
   24       10.496122     10.496104   0.000000   0.000000
   25       12.862864     12.862850   0.000000   0.000000
   26       13.579916     13.595734   0.000000   0.000000
 
  0.9090909E-01 -0.2142565E-16  0.0000000E+00  0.3787879E-02
    1      -42.256574    -42.256413   1.000000   1.000000
    2      -42.252165    -42.252003   1.000000   1.000000
    3      -41.870636    -41.870504   1.000000   1.000000
    4      -41.866977    -41.866845   1.000000   1.000000
    5      -18.326858    -18.326903   1.000000   1.000000
    6      -18.152557    -18.152604   1.000000   1.000000
    7      -13.277632    -13.277679   1.000000   1.000000
    8      -12.612073    -12.612135   1.000000   1.000000
    9       -4.165824     -4.165832   1.000000   1.000000
   10       -2.520865     -2.520905   1.000000   1.000000
   11       -1.553886     -1.553928   1.000000   1.000000
   12       -1.338595     -1.338641   1.000000   1.000000
   13       -1.295717     -1.295762   1.000000   1.000000
   14       -1.104298     -1.104346   1.000000   1.000000
   15        1.552131      1.552072   1.000000   1.000000
   16        1.803049      1.802988   1.000000   1.000000
   17        1.860700      1.860635   1.000000   1.000000
   18        2.116304      2.116235   1.000000   1.000000
   19        4.232671      4.232657   0.000000   0.000000
   20        6.337645      6.337586   0.000000   0.000000
   21        7.853847      7.853860   0.000000   0.000000
   22        8.117950      8.117988   0.000000   0.000000
   23       10.456853     10.456852   0.000000   0.000000
   24       10.740021     10.740002   0.000000   0.000000
   25       12.678334     12.677941   0.000000   0.000000
   26       13.725820     13.724502   0.000000   0.000000
 
  0.1818182E+00 -0.1922705E-16  0.0000000E+00  0.3787879E-02
    1      -42.254344    -42.254183   1.000000   1.000000
    2      -42.250763    -42.250601   1.000000   1.000000
    3      -41.868259    -41.868127   1.000000   1.000000
    4      -41.865350    -41.865218   1.000000   1.000000
    5      -18.298073    -18.298119   1.000000   1.000000
    6      -18.137328    -18.137376   1.000000   1.000000
    7      -13.200481    -13.200530   1.000000   1.000000
    8      -12.584651    -12.584713   1.000000   1.000000
    9       -4.117480     -4.117489   1.000000   1.000000
   10       -2.583957     -2.583995   1.000000   1.000000
   11       -1.934979     -1.935014   1.000000   1.000000
   12       -1.636926     -1.636966   1.000000   1.000000
   13       -1.442468     -1.442511   1.000000   1.000000
   14       -1.169943     -1.169991   1.000000   1.000000
   15        1.115565      1.115515   1.000000   1.000000
   16        1.476143      1.476087   1.000000   1.000000
   17        1.668540      1.668481   1.000000   1.000000
   18        2.120627      2.120558   1.000000   1.000000
   19        4.416528      4.416505   0.000000   0.000000
   20        6.297788      6.297729   0.000000   0.000000
   21        8.387040      8.387038   0.000000   0.000000
   22        8.598249      8.598274   0.000000   0.000000
   23       10.819260     10.819255   0.000000   0.000000
   24       11.384166     11.384095   0.000000   0.000000
   25       12.296921     12.297078   0.000000   0.000000
   26       14.141179     14.117514   0.000000   0.000000
 
  0.2727273E+00 -0.6556459E-16  0.0000000E+00  0.3787879E-02
    1      -42.251451    -42.251289   1.000000   1.000000
    2      -42.248913    -42.248752   1.000000   1.000000
    3      -41.865170    -41.865038   1.000000   1.000000
    4      -41.863217    -41.863085   1.000000   1.000000
    5      -18.258064    -18.258111   1.000000   1.000000
    6      -18.118966    -18.119016   1.000000   1.000000
    7      -13.089619    -13.089670   1.000000   1.000000
    8      -12.555849    -12.555912   1.000000   1.000000
    9       -4.045414     -4.045425   1.000000   1.000000
   10       -2.762265     -2.762295   1.000000   1.000000
   11       -2.294248     -2.294281   1.000000   1.000000
   12       -2.011842     -2.011876   1.000000   1.000000
   13       -1.606333     -1.606375   1.000000   1.000000
   14       -1.264069     -1.264116   1.000000   1.000000
   15        0.642949      0.642908   1.000000   1.000000
   16        0.991390      0.991343   1.000000   1.000000
   17        1.520631      1.520575   1.000000   1.000000
   18        2.103567      2.103499   1.000000   1.000000
   19        4.632692      4.632662   0.000000   0.000000
   20        6.213505      6.213447   0.000000   0.000000
   21        8.999180      8.999178   0.000000   0.000000
   22        9.266971      9.266986   0.000000   0.000000
   23       11.277010     11.277051   0.000000   0.000000
   24       11.962690     11.962991   0.000000   0.000000
   25       12.238152     12.236891   0.000000   0.000000
   26       13.672153     13.674801   0.000000   0.000000
 
  0.3636364E+00 -0.2044499E-16  0.0000000E+00  0.3787879E-02
    1      -42.248778    -42.248617   1.000000   1.000000
    2      -42.247238    -42.247077   1.000000   1.000000
    3      -41.862363    -41.862231   1.000000   1.000000
    4      -41.861208    -41.861076   1.000000   1.000000
    5      -18.217578    -18.217627   1.000000   1.000000
    6      -18.104603    -18.104654   1.000000   1.000000
    7      -12.972604    -12.972657   1.000000   1.000000
    8      -12.541938    -12.542000   1.000000   1.000000
    9       -3.963273     -3.963287   1.000000   1.000000
   10       -3.072728     -3.072746   1.000000   1.000000
   11       -2.474717     -2.474748   1.000000   1.000000
   12       -2.314164     -2.314196   1.000000   1.000000
   13       -1.744554     -1.744594   1.000000   1.000000
   14       -1.353337     -1.353383   1.000000   1.000000
   15        0.280630      0.280597   1.000000   1.000000
   16        0.555775      0.555733   1.000000   1.000000
   17        1.398619      1.398566   1.000000   1.000000
   18        2.077666      2.077598   1.000000   1.000000
   19        4.836258      4.836222   0.000000   0.000000
   20        6.098470      6.098414   0.000000   0.000000
   21        9.421081      9.421192   0.000000   0.000000
   22        9.976134      9.976153   0.000000   0.000000
   23       11.687895     11.688253   0.000000   0.000000
   24       11.774740     11.774826   0.000000   0.000000
   25       13.063239     13.058654   0.000000   0.000000
   26       13.352314     13.355367   0.000000   0.000000
 
  0.4545455E+00  0.9781180E-18  0.0000000E+00  0.3787879E-02
    1      -42.247222    -42.247061   1.000000   1.000000
    2      -42.246214    -42.246053   1.000000   1.000000
    3      -41.860755    -41.860623   1.000000   1.000000
    4      -41.859940    -41.859808   1.000000   1.000000
    5      -18.190885    -18.190935   1.000000   1.000000
    6      -18.098316    -18.098366   1.000000   1.000000
    7      -12.891004    -12.891059   1.000000   1.000000
    8      -12.544383    -12.544445   1.000000   1.000000
    9       -3.895792     -3.895808   1.000000   1.000000
   10       -3.303591     -3.303604   1.000000   1.000000
   11       -2.580597     -2.580624   1.000000   1.000000
   12       -2.444472     -2.444508   1.000000   1.000000
   13       -1.822721     -1.822760   1.000000   1.000000
   14       -1.406684     -1.406730   1.000000   1.000000
   15        0.103325      0.103297   1.000000   1.000000
   16        0.286806      0.286766   1.000000   1.000000
   17        1.330319      1.330266   1.000000   1.000000
   18        2.059589      2.059521   1.000000   1.000000
   19        4.973588      4.973549   0.000000   0.000000
   20        6.003948      6.003894   0.000000   0.000000
   21        9.597180      9.597511   0.000000   0.000000
   22       10.453492     10.453493   0.000000   0.000000
   23       11.704967     11.704855   0.000000   0.000000
   24       11.933647     11.933615   0.000000   0.000000
   25       13.220705     13.220487   0.000000   0.000000
   26       13.515898     13.517920   0.000000   0.000000
 
 -0.2581119E-17  0.8333333E-01  0.0000000E+00  0.3787879E-02
    1      -42.256510    -42.256349   1.000000   1.000000
    2      -42.252133    -42.251972   1.000000   1.000000
    3      -41.870591    -41.870459   1.000000   1.000000
    4      -41.866874    -41.866741   1.000000   1.000000
    5      -18.325905    -18.325949   1.000000   1.000000
    6      -18.151009    -18.151057   1.000000   1.000000
    7      -13.278240    -13.278287   1.000000   1.000000
    8      -12.610234    -12.610296   1.000000   1.000000
    9       -4.165787     -4.165795   1.000000   1.000000
   10       -2.513684     -2.513724   1.000000   1.000000
   11       -1.463765     -1.463808   1.000000   1.000000
   12       -1.395973     -1.396016   1.000000   1.000000
   13       -1.242523     -1.242571   1.000000   1.000000
   14       -1.178727     -1.178774   1.000000   1.000000
   15        1.653043      1.652983   1.000000   1.000000
   16        1.713557      1.713497   1.000000   1.000000
   17        1.957156      1.957092   1.000000   1.000000
   18        2.035481      2.035412   1.000000   1.000000
   19        4.224268      4.224254   0.000000   0.000000
   20        6.339661      6.339602   0.000000   0.000000
   21        7.804658      7.804672   0.000000   0.000000
   22        8.079824      8.079859   0.000000   0.000000
   23       10.437813     10.437812   0.000000   0.000000
   24       10.710975     10.710969   0.000000   0.000000
   25       13.000363     13.000682   0.000000   0.000000
   26       13.270434     13.270510   0.000000   0.000000
 
  0.9090909E-01  0.8333333E-01  0.0000000E+00  0.3787879E-02
    1      -42.254985    -42.254824   1.000000   1.000000
    2      -42.251132    -42.250971   1.000000   1.000000
    3      -41.868922    -41.868790   1.000000   1.000000
    4      -41.865740    -41.865607   1.000000   1.000000
    5      -18.305913    -18.305958   1.000000   1.000000
    6      -18.139819    -18.139868   1.000000   1.000000
    7      -13.225950    -13.225998   1.000000   1.000000
    8      -12.590233    -12.590295   1.000000   1.000000
    9       -4.132815     -4.132824   1.000000   1.000000
   10       -2.547769     -2.547809   1.000000   1.000000
   11       -1.752060     -1.752098   1.000000   1.000000
   12       -1.579409     -1.579450   1.000000   1.000000
   13       -1.355784     -1.355829   1.000000   1.000000
   14       -1.222014     -1.222060   1.000000   1.000000
   15        1.323455      1.323401   1.000000   1.000000
   16        1.537263      1.537207   1.000000   1.000000
   17        1.788111      1.788050   1.000000   1.000000
   18        2.047770      2.047703   1.000000   1.000000
   19        4.353686      4.353666   0.000000   0.000000
   20        6.316185      6.316125   0.000000   0.000000
   21        8.160709      8.160716   0.000000   0.000000
   22        8.399137      8.399166   0.000000   0.000000
   23       10.680485     10.680482   0.000000   0.000000
   24       11.147175     11.147158   0.000000   0.000000
   25       12.564179     12.563983   0.000000   0.000000
   26       13.823212     13.734591   0.000000   0.000000
 
  0.1818182E+00  0.8333333E-01  0.0000000E+00  0.3787879E-02
    1      -42.252421    -42.252260   1.000000   1.000000
    2      -42.249471    -42.249310   1.000000   1.000000
    3      -41.866146    -41.866014   1.000000   1.000000
    4      -41.863843    -41.863711   1.000000   1.000000
    5      -18.270990    -18.271036   1.000000   1.000000
    6      -18.122673    -18.122722   1.000000   1.000000
    7      -13.131049    -13.131099   1.000000   1.000000
    8      -12.561771    -12.561833   1.000000   1.000000
    9       -4.070666     -4.070677   1.000000   1.000000
   10       -2.654357     -2.654392   1.000000   1.000000
   11       -2.142910     -2.142943   1.000000   1.000000
   12       -1.912614     -1.912649   1.000000   1.000000
   13       -1.517281     -1.517323   1.000000   1.000000
   14       -1.297215     -1.297261   1.000000   1.000000
   15        0.864410      0.864365   1.000000   1.000000
   16        1.168465      1.168417   1.000000   1.000000
   17        1.595262      1.595204   1.000000   1.000000
   18        2.030306      2.030238   1.000000   1.000000
   19        4.555571      4.555544   0.000000   0.000000
   20        6.252794      6.252735   0.000000   0.000000
   21        8.773226      8.773216   0.000000   0.000000
   22        8.957792      8.957813   0.000000   0.000000
   23       11.094595     11.094596   0.000000   0.000000
   24       11.894749     11.894666   0.000000   0.000000
   25       12.136919     12.138408   0.000000   0.000000
   26       13.874529     13.877543   0.000000   0.000000
 
  0.2727273E+00  0.8333333E-01  0.0000000E+00  0.3787879E-02
    1      -42.249629    -42.249468   1.000000   1.000000
    2      -42.247693    -42.247532   1.000000   1.000000
    3      -41.863181    -41.863049   1.000000   1.000000
    4      -41.861756    -41.861624   1.000000   1.000000
    5      -18.229754    -18.229802   1.000000   1.000000
    6      -18.106628    -18.106678   1.000000   1.000000
    7      -13.014311    -13.014363   1.000000   1.000000
    8      -12.541911    -12.541973   1.000000   1.000000
    9       -3.987827     -3.987839   1.000000   1.000000
   10       -2.912328     -2.912352   1.000000   1.000000
   11       -2.404212     -2.404245   1.000000   1.000000
   12       -2.247974     -2.248006   1.000000   1.000000
   13       -1.684382     -1.684422   1.000000   1.000000
   14       -1.383179     -1.383224   1.000000   1.000000
   15        0.449476      0.449439   1.000000   1.000000
   16        0.749758      0.749715   1.000000   1.000000
   17        1.418518      1.418464   1.000000   1.000000
   18        1.997599      1.997533   1.000000   1.000000
   19        4.773978      4.773944   0.000000   0.000000
   20        6.147291      6.147233   0.000000   0.000000
   21        9.369012      9.369003   0.000000   0.000000
   22        9.671020      9.671028   0.000000   0.000000
   23       11.545801     11.545889   0.000000   0.000000
   24       11.844041     11.843935   0.000000   0.000000
   25       12.749209     12.748132   0.000000   0.000000
   26       13.445455     13.446249   0.000000   0.000000
 
  0.3636364E+00  0.8333333E-01  0.0000000E+00  0.3787879E-02
    1      -42.247502    -42.247340   1.000000   1.000000
    2      -42.246341    -42.246179   1.000000   1.000000
    3      -41.860965    -41.860833   1.000000   1.000000
    4      -41.860114    -41.859982   1.000000   1.000000
    5      -18.194684    -18.194734   1.000000   1.000000
    6      -18.097708    -18.097759   1.000000   1.000000
    7      -12.908571    -12.908626   1.000000   1.000000
    8      -12.541475    -12.541536   1.000000   1.000000
    9       -3.900238     -3.900253   1.000000   1.000000
   10       -3.206702     -3.206718   1.000000   1.000000
   11       -2.542864     -2.542893   1.000000   1.000000
   12       -2.458247     -2.458281   1.000000   1.000000
   13       -1.805772     -1.805810   1.000000   1.000000
   14       -1.451062     -1.451105   1.000000   1.000000
   15        0.187444      0.187412   1.000000   1.000000
   16        0.415457      0.415417   1.000000   1.000000
   17        1.294978      1.294926   1.000000   1.000000
   18        1.963289      1.963223   1.000000   1.000000
   19        4.962082      4.962044   0.000000   0.000000
   20        6.028032      6.027977   0.000000   0.000000
   21        9.716596      9.716657   0.000000   0.000000
   22       10.364517     10.364526   0.000000   0.000000
   23       11.705498     11.705574   0.000000   0.000000
   24       11.903982     11.903964   0.000000   0.000000
   25       13.203144     13.202788   0.000000   0.000000
   26       13.378573     13.379449   0.000000   0.000000
 
  0.4545455E+00  0.8333333E-01  0.0000000E+00  0.3787879E-02
    1      -42.246728    -42.246566   1.000000   1.000000
    2      -42.245847    -42.245686   1.000000   1.000000
    3      -41.860181    -41.860049   1.000000   1.000000
    4      -41.859491    -41.859359   1.000000   1.000000
    5      -18.180057    -18.180107   1.000000   1.000000
    6      -18.096424    -18.096475   1.000000   1.000000
    7      -12.861330    -12.861386   1.000000   1.000000
    8      -12.549115    -12.549176   1.000000   1.000000
    9       -3.851519     -3.851536   1.000000   1.000000
   10       -3.337634     -3.337646   1.000000   1.000000
   11       -2.612143     -2.612171   1.000000   1.000000
   12       -2.510910     -2.510945   1.000000   1.000000
   13       -1.852642     -1.852679   1.000000   1.000000
   14       -1.477490     -1.477533   1.000000   1.000000
   15        0.110109      0.110080   1.000000   1.000000
   16        0.279157      0.279117   1.000000   1.000000
   17        1.244549      1.244499   1.000000   1.000000
   18        1.945332      1.945267   1.000000   1.000000
   19        5.047618      5.047577   0.000000   0.000000
   20        5.966233      5.966179   0.000000   0.000000
   21        9.820224      9.820355   0.000000   0.000000
   22       10.693980     10.693985   0.000000   0.000000
   23       11.682210     11.682082   0.000000   0.000000
   24       12.052338     12.052308   0.000000   0.000000
   25       13.139359     13.140365   0.000000   0.000000
   26       13.509044     13.509394   0.000000   0.000000
 
 -0.4545455E+00  0.8333333E-01  0.0000000E+00  0.3787879E-02
    1      -42.247512    -42.247350   1.000000   1.000000
    2      -42.246383    -42.246221   1.000000   1.000000
    3      -41.860997    -41.860865   1.000000   1.000000
    4      -41.860168    -41.860036   1.000000   1.000000
    5      -18.194566    -18.194616   1.000000   1.000000
    6      -18.099566    -18.099617   1.000000   1.000000
    7      -12.905668    -12.905723   1.000000   1.000000
    8      -12.545148    -12.545209   1.000000   1.000000
    9       -3.896670     -3.896685   1.000000   1.000000
   10       -3.212157     -3.212173   1.000000   1.000000
   11       -2.552475     -2.552506   1.000000   1.000000
   12       -2.457112     -2.457145   1.000000   1.000000
   13       -1.815059     -1.815097   1.000000   1.000000
   14       -1.453701     -1.453745   1.000000   1.000000
   15        0.192400      0.192369   1.000000   1.000000
   16        0.412578      0.412537   1.000000   1.000000
   17        1.275893      1.275842   1.000000   1.000000
   18        1.953192      1.953126   1.000000   1.000000
   19        4.973280      4.973240   0.000000   0.000000
   20        6.020372      6.020317   0.000000   0.000000
   21        9.739636      9.739726   0.000000   0.000000
   22       10.428563     10.428565   0.000000   0.000000
   23       11.754869     11.754761   0.000000   0.000000
   24       11.925116     11.925093   0.000000   0.000000
   25       13.199258     13.198776   0.000000   0.000000
   26       13.337827     13.337272   0.000000   0.000000
 
 -0.3636364E+00  0.8333333E-01  0.0000000E+00  0.3787879E-02
    1      -42.249649    -42.249487   1.000000   1.000000
    2      -42.247758    -42.247596   1.000000   1.000000
    3      -41.863236    -41.863104   1.000000   1.000000
    4      -41.861855    -41.861723   1.000000   1.000000
    5      -18.230160    -18.230208   1.000000   1.000000
    6      -18.109187    -18.109237   1.000000   1.000000
    7      -13.010854    -13.010907   1.000000   1.000000
    8      -12.546439    -12.546501   1.000000   1.000000
    9       -3.983998     -3.984011   1.000000   1.000000
   10       -2.924084     -2.924109   1.000000   1.000000
   11       -2.416037     -2.416071   1.000000   1.000000
   12       -2.250393     -2.250425   1.000000   1.000000
   13       -1.695969     -1.696008   1.000000   1.000000
   14       -1.387099     -1.387143   1.000000   1.000000
   15        0.450408      0.450370   1.000000   1.000000
   16        0.748429      0.748386   1.000000   1.000000
   17        1.386753      1.386700   1.000000   1.000000
   18        1.983371      1.983305   1.000000   1.000000
   19        4.790406      4.790372   0.000000   0.000000
   20        6.137927      6.137869   0.000000   0.000000
   21        9.427099      9.427110   0.000000   0.000000
   22        9.771771      9.771777   0.000000   0.000000
   23       11.578809     11.578856   0.000000   0.000000
   24       11.883484     11.884183   0.000000   0.000000
   25       12.753712     12.753338   0.000000   0.000000
   26       13.403528     13.408770   0.000000   0.000000
 
 -0.2727273E+00  0.8333333E-01  0.0000000E+00  0.3787879E-02
    1      -42.252480    -42.252319   1.000000   1.000000
    2      -42.249567    -42.249406   1.000000   1.000000
    3      -41.866235    -41.866103   1.000000   1.000000
    4      -41.864000    -41.863868   1.000000   1.000000
    5      -18.271783    -18.271830   1.000000   1.000000
    6      -18.125239    -18.125288   1.000000   1.000000
    7      -13.128501    -13.128551   1.000000   1.000000
    8      -12.565714    -12.565776   1.000000   1.000000
    9       -4.068306     -4.068317   1.000000   1.000000
   10       -2.670307     -2.670342   1.000000   1.000000
   11       -2.150106     -2.150139   1.000000   1.000000
   12       -1.933879     -1.933915   1.000000   1.000000
   13       -1.513603     -1.513644   1.000000   1.000000
   14       -1.299857     -1.299902   1.000000   1.000000
   15        0.854708      0.854662   1.000000   1.000000
   16        1.163789      1.163741   1.000000   1.000000
   17        1.566695      1.566639   1.000000   1.000000
   18        2.021453      2.021387   1.000000   1.000000
   19        4.572506      4.572477   0.000000   0.000000
   20        6.245579      6.245520   0.000000   0.000000
   21        8.859784      8.859777   0.000000   0.000000
   22        9.041098      9.041119   0.000000   0.000000
   23       11.129037     11.129100   0.000000   0.000000
   24       11.932095     11.932099   0.000000   0.000000
   25       12.121047     12.121559   0.000000   0.000000
   26       13.738257     13.738239   0.000000   0.000000
 
 -0.1818182E+00  0.8333333E-01  0.0000000E+00  0.3787879E-02
    1      -42.255012    -42.254852   1.000000   1.000000
    2      -42.251162    -42.251001   1.000000   1.000000
    3      -41.868950    -41.868818   1.000000   1.000000
    4      -41.865824    -41.865692   1.000000   1.000000
    5      -18.306613    -18.306658   1.000000   1.000000
    6      -18.141580    -18.141629   1.000000   1.000000
    7      -13.224347    -13.224395   1.000000   1.000000
    8      -12.592546    -12.592608   1.000000   1.000000
    9       -4.131905     -4.131914   1.000000   1.000000
   10       -2.558184     -2.558224   1.000000   1.000000
   11       -1.769120     -1.769158   1.000000   1.000000
   12       -1.617623     -1.617664   1.000000   1.000000
   13       -1.326023     -1.326067   1.000000   1.000000
   14       -1.217839     -1.217886   1.000000   1.000000
   15        1.296678      1.296624   1.000000   1.000000
   16        1.526718      1.526663   1.000000   1.000000
   17        1.777906      1.777845   1.000000   1.000000
   18        2.054829      2.054762   1.000000   1.000000
   19        4.366938      4.366917   0.000000   0.000000
   20        6.312315      6.312256   0.000000   0.000000
   21        8.228468      8.228472   0.000000   0.000000
   22        8.452158      8.452186   0.000000   0.000000
   23       10.707174     10.707162   0.000000   0.000000
   24       11.180641     11.180613   0.000000   0.000000
   25       12.448552     12.448816   0.000000   0.000000
   26       13.885504     13.996525   0.000000   0.000000
 
 -0.9090909E-01  0.8333333E-01  0.0000000E+00  0.3787879E-02
    1      -42.256515    -42.256354   1.000000   1.000000
    2      -42.252142    -42.251980   1.000000   1.000000
    3      -41.870586    -41.870454   1.000000   1.000000
    4      -41.866899    -41.866766   1.000000   1.000000
    5      -18.326187    -18.326232   1.000000   1.000000
    6      -18.151630    -18.151678   1.000000   1.000000
    7      -13.277618    -13.277665   1.000000   1.000000
    8      -12.611017    -12.611079   1.000000   1.000000
    9       -4.165605     -4.165613   1.000000   1.000000
   10       -2.517099     -2.517139   1.000000   1.000000
   11       -1.498823     -1.498866   1.000000   1.000000
   12       -1.385176     -1.385220   1.000000   1.000000
   13       -1.251553     -1.251599   1.000000   1.000000
   14       -1.153498     -1.153546   1.000000   1.000000
   15        1.607406      1.607346   1.000000   1.000000
   16        1.748680      1.748619   1.000000   1.000000
   17        1.919354      1.919289   1.000000   1.000000
   18        2.068589      2.068521   1.000000   1.000000
   19        4.229186      4.229172   0.000000   0.000000
   20        6.338561      6.338503   0.000000   0.000000
   21        7.828585      7.828599   0.000000   0.000000
   22        8.098054      8.098088   0.000000   0.000000
   23       10.448204     10.448200   0.000000   0.000000
   24       10.723072     10.723058   0.000000   0.000000
   25       12.790271     12.789218   0.000000   0.000000
   26       13.556136     13.559204   0.000000   0.000000
 
 -0.2665485E-17  0.1666667E+00  0.0000000E+00  0.3787879E-02
    1      -42.254173    -42.254012   1.000000   1.000000
    2      -42.250534    -42.250373   1.000000   1.000000
    3      -41.868007    -41.867875   1.000000   1.000000
    4      -41.864993    -41.864861   1.000000   1.000000
    5      -18.294064    -18.294110   1.000000   1.000000
    6      -18.131262    -18.131310   1.000000   1.000000
    7      -13.201436    -13.201485   1.000000   1.000000
    8      -12.577249    -12.577312   1.000000   1.000000
    9       -4.116530     -4.116540   1.000000   1.000000
   10       -2.548538     -2.548578   1.000000   1.000000
   11       -1.781487     -1.781522   1.000000   1.000000
   12       -1.611267     -1.611310   1.000000   1.000000
   13       -1.472873     -1.472913   1.000000   1.000000
   14       -1.314761     -1.314809   1.000000   1.000000
   15        1.277233      1.277182   1.000000   1.000000
   16        1.531635      1.531577   1.000000   1.000000
   17        1.620090      1.620035   1.000000   1.000000
   18        2.020543      2.020473   1.000000   1.000000
   19        4.394102      4.394080   0.000000   0.000000
   20        6.307043      6.306984   0.000000   0.000000
   21        8.209155      8.209161   0.000000   0.000000
   22        8.471776      8.471802   0.000000   0.000000
   23       10.746913     10.746905   0.000000   0.000000
   24       11.290226     11.290182   0.000000   0.000000
   25       12.684514     12.684632   0.000000   0.000000
   26       13.529049     13.529170   0.000000   0.000000
 
  0.9090909E-01  0.1666667E+00  0.0000000E+00  0.3787879E-02
    1      -42.252282    -42.252121   1.000000   1.000000
    2      -42.249281    -42.249120   1.000000   1.000000
    3      -41.865911    -41.865779   1.000000   1.000000
    4      -41.863577    -41.863445   1.000000   1.000000
    5      -18.267271    -18.267318   1.000000   1.000000
    6      -18.117888    -18.117937   1.000000   1.000000
    7      -13.129956    -13.130006   1.000000   1.000000
    8      -12.556086    -12.556149   1.000000   1.000000
    9       -4.068485     -4.068496   1.000000   1.000000
   10       -2.616336     -2.616373   1.000000   1.000000
   11       -2.049143     -2.049175   1.000000   1.000000
   12       -1.924256     -1.924292   1.000000   1.000000
   13       -1.508809     -1.508850   1.000000   1.000000
   14       -1.426867     -1.426913   1.000000   1.000000
   15        0.972551      0.972503   1.000000   1.000000
   16        1.199044      1.198997   1.000000   1.000000
   17        1.552909      1.552853   1.000000   1.000000
   18        1.956528      1.956460   1.000000   1.000000
   19        4.545860      4.545832   0.000000   0.000000
   20        6.258995      6.258936   0.000000   0.000000
   21        8.634647      8.634649   0.000000   0.000000
   22        8.891775      8.891796   0.000000   0.000000
   23       11.039508     11.039505   0.000000   0.000000
   24       11.833349     11.833134   0.000000   0.000000
   25       12.342221     12.342008   0.000000   0.000000