Automatically generated mesh
      56
Reciprocal lattice
    0.00000000000000    0.00000000000000    0.00000000000000             1
    0.16666666666666    0.00000000000000    0.00000000000000             2
    0.33333333333334    0.00000000000000    0.00000000000000             2
    0.50000000000000    0.00000000000000    0.00000000000000             1
    0.00000000000000    0.16666666666666    0.00000000000000             2
    0.16666666666666    0.16666666666666    0.00000000000000             4
    0.33333333333334    0.16666666666666    0.00000000000000             4
    0.50000000000000    0.16666666666666    0.00000000000000             2
    0.00000000000000    0.33333333333334    0.00000000000000             2
    0.16666666666666    0.33333333333334    0.00000000000000             4
    0.33333333333334    0.33333333333334    0.00000000000000             4
    0.50000000000000    0.33333333333334    0.00000000000000             2
    0.00000000000000    0.50000000000000    0.00000000000000             1
    0.16666666666666    0.50000000000000    0.00000000000000             2
    0.33333333333334    0.50000000000000    0.00000000000000             2
    0.50000000000000    0.50000000000000    0.00000000000000             1
    0.00000000000000    0.00000000000000    0.25000000000000             2
    0.16666666666666    0.00000000000000    0.25000000000000             4
    0.33333333333334    0.00000000000000    0.25000000000000             4
    0.50000000000000    0.00000000000000    0.25000000000000             2
    0.00000000000000    0.16666666666666    0.25000000000000             2
    0.16666666666666    0.16666666666666    0.25000000000000             4
    0.33333333333334    0.16666666666666    0.25000000000000             4
    0.50000000000000    0.16666666666666    0.25000000000000             2
    0.00000000000000    0.33333333333334    0.25000000000000             2
    0.16666666666666    0.33333333333334    0.25000000000000             4
    0.33333333333334    0.33333333333334    0.25000000000000             4
    0.50000000000000    0.33333333333334    0.25000000000000             2
    0.00000000000000    0.50000000000000    0.25000000000000             2
    0.16666666666666    0.50000000000000    0.25000000000000             4
    0.33333333333334    0.50000000000000    0.25000000000000             4
    0.50000000000000    0.50000000000000    0.25000000000000             2
    0.00000000000000   -0.33333333333334    0.25000000000000             2
    0.16666666666666   -0.33333333333334    0.25000000000000             4
    0.33333333333334   -0.33333333333334    0.25000000000000             4
    0.50000000000000   -0.33333333333334    0.25000000000000             2
    0.00000000000000   -0.16666666666666    0.25000000000000             2
    0.16666666666666   -0.16666666666666    0.25000000000000             4
    0.33333333333334   -0.16666666666666    0.25000000000000             4
    0.50000000000000   -0.16666666666666    0.25000000000000             2
    0.00000000000000    0.00000000000000    0.50000000000000             1
    0.16666666666666    0.00000000000000    0.50000000000000             2
    0.33333333333334    0.00000000000000    0.50000000000000             2
    0.50000000000000    0.00000000000000    0.50000000000000             1
    0.00000000000000    0.16666666666666    0.50000000000000             2
    0.16666666666666    0.16666666666666    0.50000000000000             4
    0.33333333333334    0.16666666666666    0.50000000000000             4
    0.50000000000000    0.16666666666666    0.50000000000000             2
    0.00000000000000    0.33333333333334    0.50000000000000             2
    0.16666666666666    0.33333333333334    0.50000000000000             4
    0.33333333333334    0.33333333333334    0.50000000000000             4
    0.50000000000000    0.33333333333334    0.50000000000000             2
    0.00000000000000    0.50000000000000    0.50000000000000             1
    0.16666666666666    0.50000000000000    0.50000000000000             2
    0.33333333333334    0.50000000000000    0.50000000000000             2
    0.50000000000000    0.50000000000000    0.50000000000000             1
Tetrahedra
       432    0.00115740740741
         2         2         5         6        21
         2         1         2         5        21
         2         1         2        17        21
         2         2         6        21        22
         2         2        18        21        22
         2         2        17        18        21
         2         3         6         7        22
         2         2         3         6        22
         2         2         3        18        22
         2         3         7        22        23
         2         3        19        22        23
         2         3        18        19        22
         2         4         7         8        23
         2         3         4         7        23
         2         3         4        19        23
         2         4         8        23        24
         2         4        20        23        24
         2         4        19        20        23
         2         3         7         8        24
         2         3         4         8        24
         2         3         4        20        24
         2         3         7        23        24
         2         3        19        23        24
         2         3        19        20        24
         2         2         6         7        23
         2         2         3         7        23
         2         2         3        19        23
         2         2         6        22        23
         2         2        18        22        23
         2         2        18        19        23
         2         1         5         6        22
         2         1         2         6        22
         2         1         2        18        22
         2         1         5        21        22
         2         1        17        21        22
         2         1        17        18        22
         2         6         9        10        25
         2         5         6         9        25
         2         5         6        21        25
         2         6        10        25        26
         2         6        22        25        26
         2         6        21        22        25
         2         7        10        11        26
         2         6         7        10        26
         2         6         7        22        26
         2         7        11        26        27
         2         7        23        26        27
         2         7        22        23        26
         2         8        11        12        27
         2         7         8        11        27
         2         7         8        23        27
         2         8        12        27        28
         2         8        24        27        28
         2         8        23        24        27
         2         7        11        12        28
         2         7         8        12        28
         2         7         8        24        28
         2         7        11        27        28
         2         7        23        27        28
         2         7        23        24        28
         2         6        10        11        27
         2         6         7        11        27
         2         6         7        23        27
         2         6        10        26        27
         2         6        22        26        27
         2         6        22        23        27
         2         5         9        10        26
         2         5         6        10        26
         2         5         6        22        26
         2         5         9        25        26
         2         5        21        25        26
         2         5        21        22        26
         2        10        13        14        29
         2         9        10        13        29
         2         9        10        25        29
         2        10        14        29        30
         2        10        26        29        30
         2        10        25        26        29
         2        11        14        15        30
         2        10        11        14        30
         2        10        11        26        30
         2        11        15        30        31
         2        11        27        30        31
         2        11        26        27        30
         2        12        15        16        31
         2        11        12        15        31
         2        11        12        27        31
         2        12        16        31        32
         2        12        28        31        32
         2        12        27        28        31
         2        11        15        16        32
         2        11        12        16        32
         2        11        12        28        32
         2        11        15        31        32
         2        11        27        31        32
         2        11        27        28        32
         2        10        14        15        31
         2        10        11        15        31
         2        10        11        27        31
         2        10        14        30        31
         2        10        26        30        31
         2        10        26        27        31
         2         9        13        14        30
         2         9        10        14        30
         2         9        10        26        30
         2         9        13        29        30
         2         9        25        29        30
         2         9        25        26        30
         2         9        10        14        33
         2         9        13        14        33
         2        13        14        29        33
         2        10        14        33        34
         2        14        30        33        34
         2        14        29        30        33
         2        10        11        15        34
         2        10        14        15        34
         2        14        15        30        34
         2        11        15        34        35
         2        15        31        34        35
         2        15        30        31        34
         2        11        12        16        35
         2        11        15        16        35
         2        15        16        31        35
         2        12        16        35        36
         2        16        32        35        36
         2        16        31        32        35
         2        11        12        15        36
         2        12        15        16        36
         2        15        16        32        36
         2        11        15        35        36
         2        15        31        35        36
         2        15        31        32        36
         2        10        11        14        35
         2        11        14        15        35
         2        14        15        31        35
         2        10        14        34        35
         2        14        30        34        35
         2        14        30        31        35
         2         9        10        13        34
         2        10        13        14        34
         2        13        14        30        34
         2         9        13        33        34
         2        13        29        33        34
         2        13        29        30        34
         2         5         6        10        37
         2         5         9        10        37
         2         9        10        33        37
         2         6        10        37        38
         2        10        34        37        38
         2        10        33        34        37
         2         6         7        11        38
         2         6        10        11        38
         2        10        11        34        38
         2         7        11        38        39
         2        11        35        38        39
         2        11        34        35        38
         2         7         8        12        39
         2         7        11        12        39
         2        11        12        35        39
         2         8        12        39        40
         2        12        36        39        40
         2        12        35        36        39
         2         7         8        11        40
         2         8        11        12        40
         2        11        12        36        40
         2         7        11        39        40
         2        11        35        39        40
         2        11        35        36        40
         2         6         7        10        39
         2         7        10        11        39
         2        10        11        35        39
         2         6        10        38        39
         2        10        34        38        39
         2        10        34        35        39
         2         5         6         9        38
         2         6         9        10        38
         2         9        10        34        38
         2         5         9        37        38
         2         9        33        37        38
         2         9        33        34        38
         2         1         2         6        17
         2         1         5         6        17
         2         5         6        17        37
         2         2         6        17        18
         2         6        17        18        38
         2         6        17        37        38
         2         2         3         7        18
         2         2         6         7        18
         2         6         7        18        38
         2         3         7        18        19
         2         7        18        19        39
         2         7        18        38        39
         2         3         4         8        19
         2         3         7         8        19
         2         7         8        19        39
         2         4         8        19        20
         2         8        19        20        40
         2         8        19        39        40
         2         3         4         7        20
         2         4         7         8        20
         2         7         8        20        40
         2         3         7        19        20
         2         7        19        20        39
         2         7        20        39        40
         2         2         3         6        19
         2         3         6         7        19
         2         6         7        19        39
         2         2         6        18        19
         2         6        18        19        38
         2         6        19        38        39
         2         1         2         5        18
         2         2         5         6        18
         2         5         6        18        38
         2         1         5        17        18
         2         5        17        18        37
         2         5        18        37        38
         2        18        21        22        45
         2        17        18        21        45
         2        17        18        41        45
         2        18        22        45        46
         2        18        42        45        46
         2        18        41        42        45
         2        19        22        23        46
         2        18        19        22        46
         2        18        19        42        46
         2        19        23        46        47
         2        19        43        46        47
         2        19        42        43        46
         2        20        23        24        47
         2        19        20        23        47
         2        19        20        43        47
         2        20        24        47        48
         2        20        44        47        48
         2        20        43        44        47
         2        19        23        24        48
         2        19        20        24        48
         2        19        20        44        48
         2        19        23        47        48
         2        19        43        47        48
         2        19        43        44        48
         2        18        22        23        47
         2        18        19        23        47
         2        18        19        43        47
         2        18        22        46        47
         2        18        42        46        47
         2        18        42        43        47
         2        17        21        22        46
         2        17        18        22        46
         2        17        18        42        46
         2        17        21        45        46
         2        17        41        45        46
         2        17        41        42        46
         2        22        25        26        49
         2        21        22        25        49
         2        21        22        45        49
         2        22        26        49        50
         2        22        46        49        50
         2        22        45        46        49
         2        23        26        27        50
         2        22        23        26        50
         2        22        23        46        50
         2        23        27        50        51
         2        23        47        50        51
         2        23        46        47        50
         2        24        27        28        51
         2        23        24        27        51
         2        23        24        47        51
         2        24        28        51        52
         2        24        48        51        52
         2        24        47        48        51
         2        23        27        28        52
         2        23        24        28        52
         2        23        24        48        52
         2        23        27        51        52
         2        23        47        51        52
         2        23        47        48        52
         2        22        26        27        51
         2        22        23        27        51
         2        22        23        47        51
         2        22        26        50        51
         2        22        46        50        51
         2        22        46        47        51
         2        21        25        26        50
         2        21        22        26        50
         2        21        22        46        50
         2        21        25        49        50
         2        21        45        49        50
         2        21        45        46        50
         2        26        29        30        53
         2        25        26        29        53
         2        25        26        49        53
         2        26        30        53        54
         2        26        50        53        54
         2        26        49        50        53
         2        27        30        31        54
         2        26        27        30        54
         2        26        27        50        54
         2        27        31        54        55
         2        27        51        54        55
         2        27        50        51        54
         2        28        31        32        55
         2        27        28        31        55
         2        27        28        51        55
         2        28        32        55        56
         2        28        52        55        56
         2        28        51        52        55
         2        27        31        32        56
         2        27        28        32        56
         2        27        28        52        56
         2        27        31        55        56
         2        27        51        55        56
         2        27        51        52        56
         2        26        30        31        55
         2        26        27        31        55
         2        26        27        51        55
         2        26        30        54        55
         2        26        50        54        55
         2        26        50        51        55
         2        25        29        30        54
         2        25        26        30        54
         2        25        26        50        54
         2        25        29        53        54
         2        25        49        53        54
         2        25        49        50        54
         2        30        33        34        49
         2        29        30        33        49
         2        29        30        49        53
         2        30        34        49        50
         2        30        49        50        54
         2        30        49        53        54
         2        31        34        35        50
         2        30        31        34        50
         2        30        31        50        54
         2        31        35        50        51
         2        31        50        51        55
         2        31        50        54        55
         2        32        35        36        51
         2        31        32        35        51
         2        31        32        51        55
         2        32        36        51        52
         2        32        51        52        56
         2        32        51        55        56
         2        31        35        36        52
         2        31        32        36        52
         2        31        32        52        56
         2        31        35        51        52
         2        31        51        52        55
         2        31        52        55        56
         2        30        34        35        51
         2        30        31        35        51
         2        30        31        51        55
         2        30        34        50        51
         2        30        50        51        54
         2        30        51        54        55
         2        29        33        34        50
         2        29        30        34        50
         2        29        30        50        54
         2        29        33        49        50
         2        29        49        50        53
         2        29        50        53        54
         2        34        37        38        45
         2        33        34        37        45
         2        33        34        45        49
         2        34        38        45        46
         2        34        45        46        50
         2        34        45        49        50
         2        35        38        39        46
         2        34        35        38        46
         2        34        35        46        50
         2        35        39        46        47
         2        35        46        47        51
         2        35        46        50        51
         2        36        39        40        47
         2        35        36        39        47
         2        35        36        47        51
         2        36        40        47        48
         2        36        47        48        52
         2        36        47        51        52
         2        35        39        40        48
         2        35        36        40        48
         2        35        36        48        52
         2        35        39        47        48
         2        35        47        48        51
         2        35        48        51        52
         2        34        38        39        47
         2        34        35        39        47
         2        34        35        47        51
         2        34        38        46        47
         2        34        46        47        50
         2        34        47        50        51
         2        33        37        38        46
         2        33        34        38        46
         2        33        34        46        50
         2        33        37        45        46
         2        33        45        46        49
         2        33        46        49        50
         2        17        18        38        41
         2        17        37        38        41
         2        37        38        41        45
         2        18        38        41        42
         2        38        41        42        46
         2        38        41        45        46
         2        18        19        39        42
         2        18        38        39        42
         2        38        39        42        46
         2        19        39        42        43
         2        39        42        43        47
         2        39        42        46        47
         2        19        20        40        43
         2        19        39        40        43
         2        39        40        43        47
         2        20        40        43        44
         2        40        43        44        48
         2        40        43        47        48
         2        19        20        39        44
         2        20        39        40        44
         2        39        40        44        48
         2        19        39        43        44
         2        39        43        44        47
         2        39        44        47        48
         2        18        19        38        43
         2        19        38        39        43
         2        38        39        43        47
         2        18        38        42        43
         2        38        42        43        46
         2        38        43        46        47
         2        17        18        37        42
         2        18        37        38        42
         2        37        38        42        46
         2        17        37        41        42
         2        37        41        42        45
         2        37        42        45        46
