 running on   12 total cores
 distrk:  each k-point on   12 cores,    1 groups
 distr:  one band on    6 cores,    2 groups
 using from now: INCAR     
 vasp.6.1.2 22Jul20 (build Mar 20 2021 11:25:07) complex                        
  
 POSCAR found type information on POSCAR LiP 
 POSCAR found :  2 types and      16 ions
 scaLAPACK will be used
 LDA part: xc-table for Pade appr. of Perdew
 generate k-points for:    6    6    4
 POSCAR, INCAR and KPOINTS ok, starting setup
 FFT: planning ...
 WAVECAR not read
 entering main loop
       N       E                     dE             d eps       ncg     rms          rms(c)
DAV:   1     0.392250242743E+03    0.39225E+03   -0.25645E+04 10304   0.135E+03
DAV:   2    -0.368014606128E+01   -0.39593E+03   -0.36545E+03 11814   0.319E+02
DAV:   3    -0.553520869258E+02   -0.51672E+02   -0.50979E+02 14728   0.894E+01
DAV:   4    -0.627516169572E+02   -0.73995E+01   -0.73323E+01 18816   0.339E+01
DAV:   5    -0.636578956953E+02   -0.90628E+00   -0.90598E+00 15170   0.795E+00    0.201E+01
DAV:   6    -0.650019330107E+02   -0.13440E+01   -0.28780E+00 13908   0.622E+00    0.105E+01
DAV:   7    -0.662371297812E+02   -0.12352E+01   -0.71323E-01 13018   0.396E+00    0.528E+00
DAV:   8    -0.664747075415E+02   -0.23758E+00   -0.62233E-01 12994   0.298E+00    0.119E+00
DAV:   9    -0.665021358171E+02   -0.27428E-01   -0.85481E-02 15488   0.113E+00    0.461E-01
DAV:  10    -0.665056344385E+02   -0.34986E-02   -0.71753E-03 13030   0.405E-01    0.194E-01
DAV:  11    -0.665070496842E+02   -0.14152E-02   -0.19100E-03 12920   0.214E-01    0.965E-02
DAV:  12    -0.665073622075E+02   -0.31252E-03   -0.67316E-04 13114   0.107E-01    0.423E-02
DAV:  13    -0.665074184694E+02   -0.56262E-04   -0.10872E-04 11648   0.559E-02    0.210E-02
DAV:  14    -0.665074355178E+02   -0.17048E-04   -0.41032E-05 10596   0.324E-02    0.552E-03
DAV:  15    -0.665074372755E+02   -0.17577E-05   -0.52150E-06  7208   0.145E-02
   1 F= -.66507437E+02 E0= -.66507437E+02  d E =0.000000E+00  mag=    -0.0003
