 running on    8 total cores
 distrk:  each k-point on    8 cores,    1 groups
 distr:  one band on    1 cores,    8 groups
 using from now: INCAR     
 vasp.6.1.2 22Jul20 (build Mar 20 2021 11:25:07) complex                        
  
 POSCAR found type information on POSCAR LiO 
 POSCAR found :  2 types and       9 ions
 scaLAPACK will be used
 -----------------------------------------------------------------------------
|                                                                             |
|           W    W    AA    RRRRR   N    N  II  N    N   GGGG   !!!           |
|           W    W   A  A   R    R  NN   N  II  NN   N  G    G  !!!           |
|           W    W  A    A  R    R  N N  N  II  N N  N  G       !!!           |
|           W WW W  AAAAAA  RRRRR   N  N N  II  N  N N  G  GGG   !            |
|           WW  WW  A    A  R   R   N   NN  II  N   NN  G    G                |
|           W    W  A    A  R    R  N    N  II  N    N   GGGG   !!!           |
|                                                                             |
|     The value NCORE = 6 specified in the INCAR file was overwritten,        |
|     because it was not compatible with the 8 processes available:           |
|     NCORE = 1                                                               |
|     was used instead, please check that this makes sense for your           |
|     machine.                                                                |
|                                                                             |
 -----------------------------------------------------------------------------

 -----------------------------------------------------------------------------
|                                                                             |
|           W    W    AA    RRRRR   N    N  II  N    N   GGGG   !!!           |
|           W    W   A  A   R    R  NN   N  II  NN   N  G    G  !!!           |
|           W    W  A    A  R    R  N N  N  II  N N  N  G       !!!           |
|           W WW W  AAAAAA  RRRRR   N  N N  II  N  N N  G  GGG   !            |
|           WW  WW  A    A  R   R   N   NN  II  N   NN  G    G                |
|           W    W  A    A  R    R  N    N  II  N    N   GGGG   !!!           |
|                                                                             |
|     For optimal performance we recommend to set                             |
|       NCORE = 4 - approx SQRT(number of cores).                             |
|     NCORE specifies how many cores store one orbital (NPAR=cpu/NCORE).      |
|     This setting can greatly improve the performance of VASP for DFT.       |
|     The default, NCORE=1 might be grossly inefficient on modern             |
|     multi-core architectures or massively parallel machines. Do your        |
|     own testing!!!!                                                         |
|     Unfortunately you need to use the default for GW and RPA                |
|     calculations (for HF NCORE is supported but not extensively tested      |
|     yet).                                                                   |
|                                                                             |
 -----------------------------------------------------------------------------

 LDA part: xc-table for Pade appr. of Perdew
 generate k-points for:    8    7    7
 POSCAR, INCAR and KPOINTS ok, starting setup
 FFT: planning ...
 WAVECAR not read
 entering main loop
       N       E                     dE             d eps       ncg     rms          rms(c)
DAV:   1     0.330974496277E+03    0.33097E+03   -0.27133E+04 18560   0.124E+03
DAV:   2    -0.198811529841E+02   -0.35086E+03   -0.33552E+03 23032   0.307E+02
DAV:   3    -0.436187843851E+02   -0.23738E+02   -0.23393E+02 27352   0.768E+01
DAV:   4    -0.443519221485E+02   -0.73314E+00   -0.72664E+00 29032   0.993E+00
DAV:   5    -0.443902141595E+02   -0.38292E-01   -0.38291E-01 24432   0.133E+00    0.145E+01
RMM:   6    -0.448406540994E+02   -0.45044E+00   -0.24392E+00 21382   0.712E+00    0.107E+01
RMM:   7    -0.442692403080E+02    0.57141E+00   -0.90762E-01 20138   0.446E+00    0.566E+00
RMM:   8    -0.439981372696E+02    0.27110E+00   -0.37352E-01 21005   0.317E+00    0.284E+00
RMM:   9    -0.440557580290E+02   -0.57621E-01   -0.12890E-01 22758   0.188E+00    0.285E+00
RMM:  10    -0.440040484369E+02    0.51710E-01   -0.41227E-02 23810   0.101E+00    0.885E-01
RMM:  11    -0.440041979884E+02   -0.14955E-03   -0.81996E-03 24380   0.506E-01    0.419E-01
RMM:  12    -0.440043681577E+02   -0.17017E-03   -0.27764E-03 24814   0.311E-01    0.142E-01
RMM:  13    -0.440047559525E+02   -0.38779E-03   -0.72657E-04 26072   0.162E-01    0.537E-02
RMM:  14    -0.440048730135E+02   -0.11706E-03   -0.26366E-04 28276   0.816E-02    0.329E-02
RMM:  15    -0.440049200575E+02   -0.47044E-04   -0.11830E-04 27876   0.553E-02    0.250E-02
WARNING in EDDRMM: call to ZHEGV failed, returncode =   6  3      3
WARNING in EDDRMM: call to ZHEGV failed, returncode =   8  4      2
RMM:  16    -0.440049423873E+02   -0.22330E-04   -0.59726E-05 24963   0.367E-02    0.220E-02
RMM:  17    -0.440049675248E+02   -0.25138E-04   -0.46744E-05 23731   0.345E-02    0.197E-02
RMM:  18    -0.440049813503E+02   -0.13825E-04   -0.26071E-05 19806   0.243E-02    0.202E-02
RMM:  19    -0.440049790783E+02    0.22719E-05   -0.57438E-06 15609   0.121E-02
   1 F= -.44004979E+02 E0= -.44004979E+02  d E =0.000000E+00  mag=     0.0260
 -----------------------------------------------------------------------------
|                                                                             |
|           W    W    AA    RRRRR   N    N  II  N    N   GGGG   !!!           |
|           W    W   A  A   R    R  NN   N  II  NN   N  G    G  !!!           |
|           W    W  A    A  R    R  N N  N  II  N N  N  G       !!!           |
|           W WW W  AAAAAA  RRRRR   N  N N  II  N  N N  G  GGG   !            |
|           WW  WW  A    A  R   R   N   NN  II  N   NN  G    G                |
|           W    W  A    A  R    R  N    N  II  N    N   GGGG   !!!           |
|                                                                             |
|     Tetrahedron method does not include variations of the Fermi             |
|     occupations, so forces and stress will be inaccurate. We suggest        |
|     using a different smearing scheme ISMEAR = 1 or 2 for metals in         |
|     relaxations.                                                            |
|                                                                             |
 -----------------------------------------------------------------------------

