   12   12    1    2
  0.1088315E+02  0.5863441E-09  0.5330402E-09  0.4748969E-09  0.5000000E-15
  1.000000000000000E-004
  CAR 
 unknown system                          
     56     88     40
 
  0.0000000E+00  0.0000000E+00  0.0000000E+00  0.3401361E-02
    1      -41.369367    -41.369299   1.000000   1.000000
    2      -41.363177    -41.363110   1.000000   1.000000
    3      -41.164443    -41.164378   1.000000   1.000000
    4      -41.155068    -41.155003   1.000000   1.000000
    5      -17.308132    -17.308156   1.000000   1.000000
    6      -16.755810    -16.755839   1.000000   1.000000
    7      -15.126737    -15.126768   1.000000   1.000000
    8      -15.059008    -15.059039   1.000000   1.000000
    9      -13.424991    -13.425013   1.000000   1.000000
   10      -11.824642    -11.824660   1.000000   1.000000
   11       -7.569041     -7.569060   1.000000   1.000000
   12       -4.354274     -4.354281   1.000000   1.000000
   13       -4.123198     -4.123202   1.000000   1.000000
   14       -3.446614     -3.446616   1.000000   1.000000
   15       -3.397256     -3.397257   1.000000   1.000000
   16       -2.263392     -2.263407   1.000000   1.000000
   17       -1.268954     -1.268951   1.000000   1.000000
   18       -1.244159     -1.244159   1.000000   1.000000
   19       -0.383444     -0.383444   1.000000   1.000000
   20       -0.286565     -0.286566   1.000000   1.000000
   21       -0.012938     -0.012936   1.000000   1.000000
   22        0.474409      0.474397   1.000000   1.000000
   23        0.526798      0.526789   1.000000   1.000000
   24        0.698010      0.698004   1.000000   1.000000
   25        0.887541      0.887536   1.000000   1.000000
   26        1.281508      1.281506   1.000000   1.000000
   27        1.372479      1.372482   1.000000   1.000000
   28        1.978682      1.978693   1.000000   1.000000
   29        6.596878      6.596922   0.000002   0.000001
   30        8.506012      8.506021   0.000000   0.000000
   31        8.704162      8.704181   0.000000   0.000000
   32        9.407403      9.407458   0.000000   0.000000
   33       10.506114     10.506030   0.000000   0.000000
   34       10.910434     10.910358   0.000000   0.000000
   35       10.940882     10.940834   0.000000   0.000000
   36       11.466163     11.465560   0.000000   0.000000
   37       11.961925     11.961945   0.000000   0.000000
   38       12.101161     12.098063   0.000000   0.000000
   39       12.298188     12.299170   0.000000   0.000000
   40       12.517704     12.511822   0.000000   0.000000
 
  0.1666667E+00  0.1438728E-16  0.0000000E+00  0.6802721E-02
    1      -41.369285    -41.369218   1.000000   1.000000
    2      -41.363231    -41.363163   1.000000   1.000000
    3      -41.164451    -41.164386   1.000000   1.000000
    4      -41.155057    -41.154992   1.000000   1.000000
    5      -17.292930    -17.292955   1.000000   1.000000
    6      -16.770853    -16.770882   1.000000   1.000000
    7      -15.126213    -15.126244   1.000000   1.000000
    8      -15.067830    -15.067862   1.000000   1.000000
    9      -13.423043    -13.423065   1.000000   1.000000
   10      -11.821336    -11.821354   1.000000   1.000000
   11       -7.576012     -7.576031   1.000000   1.000000
   12       -4.349749     -4.349756   1.000000   1.000000
   13       -4.080687     -4.080692   1.000000   1.000000
   14       -3.471132     -3.471134   1.000000   1.000000
   15       -3.333118     -3.333121   1.000000   1.000000
   16       -2.297214     -2.297228   1.000000   1.000000
   17       -1.346636     -1.346633   1.000000   1.000000
   18       -1.045180     -1.045181   1.000000   1.000000
   19       -0.347248     -0.347250   1.000000   1.000000
   20       -0.251372     -0.251374   1.000000   1.000000
   21       -0.018357     -0.018355   1.000000   1.000000
   22        0.271241      0.271235   1.000000   1.000000
   23        0.429216      0.429211   1.000000   1.000000
   24        0.685247      0.685241   1.000000   1.000000
   25        0.886516      0.886508   1.000000   1.000000
   26        1.211000      1.211000   1.000000   1.000000
   27        1.427084      1.427085   1.000000   1.000000
   28        1.975459      1.975470   1.000000   1.000000
   29        6.898057      6.898095  -0.000000  -0.000000
   30        8.496840      8.496850   0.000000   0.000000
   31        8.648670      8.648686   0.000000   0.000000
   32        9.551994      9.552037   0.000000   0.000000
   33       10.164534     10.164559   0.000000   0.000000
   34       10.738436     10.738405   0.000000   0.000000
   35       11.059701     11.060089   0.000000   0.000000
   36       11.118733     11.118724   0.000000   0.000000
   37       11.854772     11.854544   0.000000   0.000000
   38       12.050377     12.051661   0.000000   0.000000
   39       12.107610     12.107316   0.000000   0.000000
   40       12.826108     12.810132   0.000000   0.000000
 
  0.3333333E+00 -0.6490815E-17  0.0000000E+00  0.6802721E-02
    1      -41.369171    -41.369103   1.000000   1.000000
    2      -41.363363    -41.363296   1.000000   1.000000
    3      -41.164494    -41.164429   1.000000   1.000000
    4      -41.155080    -41.155015   1.000000   1.000000
    5      -17.259471    -17.259497   1.000000   1.000000
    6      -16.804400    -16.804428   1.000000   1.000000
    7      -15.121941    -15.121971   1.000000   1.000000
    8      -15.088673    -15.088704   1.000000   1.000000
    9      -13.419035    -13.419057   1.000000   1.000000
   10      -11.815036    -11.815054   1.000000   1.000000
   11       -7.589395     -7.589413   1.000000   1.000000
   12       -4.351825     -4.351832   1.000000   1.000000
   13       -3.966309     -3.966315   1.000000   1.000000
   14       -3.563920     -3.563921   1.000000   1.000000
   15       -3.147751     -3.147757   1.000000   1.000000
   16       -2.388603     -2.388615   1.000000   1.000000
   17       -1.245923     -1.245922   1.000000   1.000000
   18       -0.867628     -0.867631   1.000000   1.000000
   19       -0.364451     -0.364453   1.000000   1.000000
   20       -0.206192     -0.206195   1.000000   1.000000
   21       -0.094652     -0.094649   1.000000   1.000000
   22        0.082251      0.082251   1.000000   1.000000
   23        0.262708      0.262706   1.000000   1.000000
   24        0.641263      0.641261   1.000000   1.000000
   25        0.835258      0.835246   1.000000   1.000000
   26        1.062708      1.062711   1.000000   1.000000
   27        1.535402      1.535400   1.000000   1.000000
   28        1.961223      1.961235   1.000000   1.000000
   29        7.582388      7.582409   0.000000   0.000000
   30        8.392423      8.392443   0.000000   0.000000
   31        8.637394      8.637411   0.000000   0.000000
   32        9.685995      9.686019   0.000000   0.000000
   33        9.826659      9.826705   0.000000   0.000000
   34       10.321712     10.321714   0.000000   0.000000
   35       10.551686     10.551753   0.000000   0.000000
   36       11.250254     11.251297   0.000000   0.000000
   37       11.491608     11.491812   0.000000   0.000000
   38       11.864994     11.865638   0.000000   0.000000
   39       12.429844     12.433869   0.000000   0.000000
   40       13.515106     13.435260   0.000000   0.000000
 
  0.5000000E+00  0.5459878E-16  0.0000000E+00  0.3401361E-02
    1      -41.369099    -41.369031   1.000000   1.000000
    2      -41.363408    -41.363340   1.000000   1.000000
    3      -41.164474    -41.164409   1.000000   1.000000
    4      -41.155096    -41.155031   1.000000   1.000000
    5      -17.240498    -17.240524   1.000000   1.000000
    6      -16.823250    -16.823278   1.000000   1.000000
    7      -15.109872    -15.109902   1.000000   1.000000
    8      -15.108911    -15.108942   1.000000   1.000000
    9      -13.416918    -13.416941   1.000000   1.000000
   10      -11.811959    -11.811978   1.000000   1.000000
   11       -7.595784     -7.595801   1.000000   1.000000
   12       -4.356652     -4.356660   1.000000   1.000000
   13       -3.880505     -3.880512   1.000000   1.000000
   14       -3.636244     -3.636244   1.000000   1.000000
   15       -3.023155     -3.023163   1.000000   1.000000
   16       -2.458165     -2.458176   1.000000   1.000000
   17       -1.116518     -1.116521   1.000000   1.000000
   18       -0.842639     -0.842642   1.000000   1.000000
   19       -0.442123     -0.442120   1.000000   1.000000
   20       -0.255422     -0.255421   1.000000   1.000000
   21       -0.143228     -0.143226   1.000000   1.000000
   22        0.070473      0.070475   1.000000   1.000000
   23        0.268784      0.268780   1.000000   1.000000
   24        0.637548      0.637543   1.000000   1.000000
   25        0.783569      0.783558   1.000000   1.000000
   26        0.965735      0.965742   1.000000   1.000000
   27        1.592400      1.592397   1.000000   1.000000
   28        1.950066      1.950078   1.000000   1.000000
   29        7.919921      7.919924   0.000000   0.000000
   30        8.483164      8.483178   0.000000   0.000000
   31        8.758182      8.758220   0.000000   0.000000
   32        9.216513      9.216551   0.000000   0.000000
   33        9.890827      9.890887   0.000000   0.000000
   34       10.176340     10.176278   0.000000   0.000000
   35       10.337760     10.337828   0.000000   0.000000
   36       11.287981     11.288344   0.000000   0.000000
   37       11.312847     11.314159   0.000000   0.000000
   38       11.950127     11.950250   0.000000   0.000000
   39       12.731888     12.752495   0.000000   0.000000
   40       13.077971     13.051576   0.000000   0.000000
 
 -0.2134384E-16  0.1428571E+00  0.0000000E+00  0.6802721E-02
    1      -41.369323    -41.369255   1.000000   1.000000
    2      -41.363160    -41.363092   1.000000   1.000000
    3      -41.164434    -41.164369   1.000000   1.000000
    4      -41.155046    -41.154981   1.000000   1.000000
    5      -17.289882    -17.289906   1.000000   1.000000
    6      -16.770265    -16.770294   1.000000   1.000000
    7      -15.140510    -15.140540   1.000000   1.000000
    8      -15.057078    -15.057110   1.000000   1.000000
    9      -13.425761    -13.425783   1.000000   1.000000
   10      -11.821846    -11.821864   1.000000   1.000000
   11       -7.581025     -7.581043   1.000000   1.000000
   12       -4.343546     -4.343553   1.000000   1.000000
   13       -4.097773     -4.097777   1.000000   1.000000
   14       -3.473291     -3.473293   1.000000   1.000000
   15       -3.316384     -3.316387   1.000000   1.000000
   16       -2.288499     -2.288512   1.000000   1.000000
   17       -1.355233     -1.355230   1.000000   1.000000
   18       -1.033695     -1.033696   1.000000   1.000000
   19       -0.386918     -0.386920   1.000000   1.000000
   20       -0.257706     -0.257707   1.000000   1.000000
   21       -0.022177     -0.022175   1.000000   1.000000
   22        0.417031      0.417022   1.000000   1.000000
   23        0.467735      0.467730   1.000000   1.000000
   24        0.598687      0.598678   1.000000   1.000000
   25        0.843276      0.843272   1.000000   1.000000
   26        1.228564      1.228563   1.000000   1.000000
   27        1.434425      1.434426   1.000000   1.000000
   28        1.986422      1.986433   1.000000   1.000000
   29        6.788992      6.789033   0.000000   0.000000
   30        8.559886      8.559897   0.000000   0.000000
   31        8.722445      8.722468   0.000000   0.000000
   32        9.374705      9.374758   0.000000   0.000000
   33       10.312515     10.312560   0.000000   0.000000
   34       10.659138     10.659148   0.000000   0.000000
   35       11.060308     11.060453   0.000000   0.000000
   36       11.085360     11.085356   0.000000   0.000000
   37       12.021699     12.022902   0.000000   0.000000
   38       12.112309     12.112275   0.000000   0.000000
   39       12.231687     12.232662   0.000000   0.000000
   40       12.475549     12.475774   0.000000   0.000000
 
  0.1666667E+00  0.1428571E+00  0.0000000E+00  0.6802721E-02
    1      -41.369239    -41.369171   1.000000   1.000000
    2      -41.363254    -41.363186   1.000000   1.000000
    3      -41.164465    -41.164400   1.000000   1.000000
    4      -41.155062    -41.154997   1.000000   1.000000
    5      -17.261588    -17.261613   1.000000   1.000000
    6      -16.799756    -16.799785   1.000000   1.000000
    7      -15.152987    -15.153017   1.000000   1.000000
    8      -15.056864    -15.056896   1.000000   1.000000
    9      -13.420640    -13.420663   1.000000   1.000000
   10      -11.816987    -11.817005   1.000000   1.000000
   11       -7.590855     -7.590873   1.000000   1.000000
   12       -4.357317     -4.357324   1.000000   1.000000
   13       -4.008317     -4.008322   1.000000   1.000000
   14       -3.523184     -3.523186   1.000000   1.000000
   15       -3.226815     -3.226819   1.000000   1.000000
   16       -2.359336     -2.359348   1.000000   1.000000
   17       -1.306721     -1.306719   1.000000   1.000000
   18       -0.785154     -0.785158   1.000000   1.000000
   19       -0.319160     -0.319163   1.000000   1.000000
   20       -0.274284     -0.274286   1.000000   1.000000
   21       -0.039362     -0.039358   1.000000   1.000000
   22        0.158099      0.158099   1.000000   1.000000
   23        0.230433      0.230430   1.000000   1.000000
   24        0.686884      0.686876   1.000000   1.000000
   25        0.777644      0.777638   1.000000   1.000000
   26        1.108311      1.108312   1.000000   1.000000
   27        1.544447      1.544446   1.000000   1.000000
   28        1.997836      1.997847   1.000000   1.000000
   29        7.202427      7.202458   0.000000   0.000000
   30        8.518493      8.518508   0.000000   0.000000
   31        8.658548      8.658562   0.000000   0.000000
   32        9.480165      9.480186   0.000000   0.000000
   33       10.084426     10.084400   0.000000   0.000000
   34       10.422799     10.422837   0.000000   0.000000
   35       10.737726     10.737891   0.000000   0.000000
   36       11.050374     11.050352   0.000000   0.000000
   37       11.659716     11.659530   0.000000   0.000000
   38       11.783783     11.783194   0.000000   0.000000
   39       12.302462     12.302491   0.000000   0.000000
   40       12.982153     12.895925   0.000000   0.000000
 
  0.3333333E+00  0.1428571E+00  0.0000000E+00  0.6802721E-02
    1      -41.369141    -41.369073   1.000000   1.000000
    2      -41.363353    -41.363285   1.000000   1.000000
    3      -41.164490    -41.164425   1.000000   1.000000
    4      -41.155078    -41.155013   1.000000   1.000000
    5      -17.234382    -17.234408   1.000000   1.000000
    6      -16.825629    -16.825657   1.000000   1.000000
    7      -15.155068    -15.155098   1.000000   1.000000
    8      -15.068754    -15.068786   1.000000   1.000000
    9      -13.418824    -13.418846   1.000000   1.000000
   10      -11.812080    -11.812098   1.000000   1.000000
   11       -7.601822     -7.601840   1.000000   1.000000
   12       -4.356328     -4.356336   1.000000   1.000000
   13       -3.892511     -3.892518   1.000000   1.000000
   14       -3.602131     -3.602132   1.000000   1.000000
   15       -3.054610     -3.054616   1.000000   1.000000
   16       -2.437466     -2.437477   1.000000   1.000000
   17       -1.150390     -1.150392   1.000000   1.000000
   18       -0.750578     -0.750583   1.000000   1.000000
   19       -0.425763     -0.425761   1.000000   1.000000
   20       -0.386244     -0.386240   1.000000   1.000000
   21       -0.016415     -0.016416   1.000000   1.000000
   22        0.043598      0.043600   1.000000   1.000000
   23        0.218789      0.218785   1.000000   1.000000
   24        0.639940      0.639936   1.000000   1.000000
   25        0.792318      0.792306   1.000000   1.000000
   26        0.968461      0.968468   1.000000   1.000000
   27        1.615645      1.615642   1.000000   1.000000
   28        1.978391      1.978402   1.000000   1.000000
   29        7.756107      7.756121   0.000000   0.000000
   30        8.357813      8.357835   0.000000   0.000000
   31        8.784987      8.785010   0.000000   0.000000
   32        9.391141      9.391160   0.000000   0.000000
   33        9.914489      9.914529   0.000000   0.000000
   34        9.985937      9.985995   0.000000   0.000000
   35       10.677851     10.677894   0.000000   0.000000
   36       11.074565     11.074428   0.000000   0.000000
   37       11.483216     11.483200   0.000000   0.000000
   38       11.692481     11.692552   0.000000   0.000000
   39       12.485176     12.483944   0.000000   0.000000
   40       13.236472     13.223448   0.000000   0.000000
 
  0.5000000E+00  0.1428571E+00  0.0000000E+00  0.6802721E-02
    1      -41.369125    -41.369057   1.000000   1.000000
    2      -41.363393    -41.363325   1.000000   1.000000
    3      -41.164490    -41.164425   1.000000   1.000000
    4      -41.155104    -41.155039   1.000000   1.000000
    5      -17.239585    -17.239610   1.000000   1.000000
    6      -16.817998    -16.818026   1.000000   1.000000
    7      -15.142075    -15.142105   1.000000   1.000000
    8      -15.083675    -15.083707   1.000000   1.000000
    9      -13.422268    -13.422290   1.000000   1.000000
   10      -11.811830    -11.811848   1.000000   1.000000
   11       -7.603534     -7.603552   1.000000   1.000000
   12       -4.340130     -4.340138   1.000000   1.000000
   13       -3.885803     -3.885810   1.000000   1.000000
   14       -3.603208     -3.603208   1.000000   1.000000
   15       -3.003223     -3.003231   1.000000   1.000000
   16       -2.430554     -2.430565   1.000000   1.000000
   17       -1.128346     -1.128348   1.000000   1.000000
   18       -0.941154     -0.941154   1.000000   1.000000
   19       -0.430260     -0.430259   1.000000   1.000000
   20       -0.405843     -0.405841   1.000000   1.000000
   21       -0.053040     -0.053043   1.000000   1.000000
   22        0.073219      0.073223   1.000000   1.000000
   23        0.330778      0.330774   1.000000   1.000000
   24        0.609494      0.609491   1.000000   1.000000
   25        0.823960      0.823949   1.000000   1.000000
   26        1.002930      1.002935   1.000000   1.000000
   27        1.571567      1.571564   1.000000   1.000000
   28        1.954732      1.954744   1.000000   1.000000
   29        7.900007      7.900012   0.000000   0.000000
   30        8.424256      8.424267   0.000000   0.000000
   31        8.683967      8.684000   0.000000   0.000000
   32        9.206701      9.206755   0.000000   0.000000
   33        9.907029      9.907069   0.000000   0.000000
   34       10.208574     10.208622   0.000000   0.000000
   35       10.618814     10.618963   0.000000   0.000000
   36       11.021369     11.021811   0.000000   0.000000
   37       11.510719     11.510434   0.000000   0.000000
   38       11.976893     11.974205   0.000000   0.000000
   39       12.591381     12.615464   0.000000   0.000000
   40       13.020994     12.982880   0.000000   0.000000
 
 -0.3333333E+00  0.1428571E+00  0.0000000E+00  0.6802721E-02
    1      -41.369214    -41.369146   1.000000   1.000000
    2      -41.363321    -41.363253   1.000000   1.000000
    3      -41.164484    -41.164419   1.000000   1.000000
    4      -41.155087    -41.155022   1.000000   1.000000
    5      -17.270474    -17.270499   1.000000   1.000000
    6      -16.785950    -16.785979   1.000000   1.000000
    7      -15.122564    -15.122594   1.000000   1.000000
    8      -15.091071    -15.091102   1.000000   1.000000
    9      -13.427627    -13.427649   1.000000   1.000000
   10      -11.816478    -11.816496   1.000000   1.000000
   11       -7.593931     -7.593950   1.000000   1.000000
   12       -4.318930     -4.318938   1.000000   1.000000
   13       -4.016078     -4.016083   1.000000   1.000000
   14       -3.507049     -3.507051   1.000000   1.000000
   15       -3.149519     -3.149525   1.000000   1.000000
   16       -2.327433     -2.327445   1.000000   1.000000
   17       -1.263708     -1.263707   1.000000   1.000000
   18       -1.081205     -1.081204   1.000000   1.000000
   19       -0.435396     -0.435397   1.000000   1.000000
   20       -0.203721     -0.203726   1.000000   1.000000
   21       -0.114833     -0.114833   1.000000   1.000000
   22        0.124669      0.124672   1.000000   1.000000
   23        0.425372      0.425367   1.000000   1.000000
   24        0.660175      0.660172   1.000000   1.000000
   25        0.893134      0.893123   1.000000   1.000000
   26        1.138026      1.138027   1.000000   1.000000
   27        1.450799      1.450799   1.000000   1.000000
   28        1.946428      1.946441   1.000000   1.000000
   29        7.421150      7.421176   0.000000   0.000000
   30        8.441084      8.441099   0.000000   0.000000
   31        8.676934      8.676955   0.000000   0.000000
   32        9.518480      9.518640   0.000000   0.000000
   33        9.806484      9.806475   0.000000   0.000000
   34       10.476814     10.476754   0.000000   0.000000
   35       10.887637     10.887779   0.000000   0.000000
   36       11.165899     11.166096   0.000000   0.000000
   37       11.757142     11.757730   0.000000   0.000000
   38       12.088351     12.090509   0.000000   0.000000
   39       12.211784     12.212919   0.000000   0.000000
   40       13.515204     13.414497   0.000000   0.000000
 
 -0.1666667E+00  0.1428571E+00  0.0000000E+00  0.6802721E-02
    1      -41.369328    -41.369260   1.000000   1.000000
    2      -41.363196    -41.363128   1.000000   1.000000
    3      -41.164453    -41.164388   1.000000   1.000000
    4      -41.155068    -41.155003   1.000000   1.000000
    5      -17.293828    -17.293853   1.000000   1.000000
    6      -16.763935    -16.763964   1.000000   1.000000
    7      -15.126077    -15.126108   1.000000   1.000000
    8      -15.073416    -15.073447   1.000000   1.000000
    9      -13.429293    -13.429315   1.000000   1.000000
   10      -11.821628    -11.821646   1.000000   1.000000
   11       -7.582404     -7.582422   1.000000   1.000000
   12       -4.319842     -4.319850   1.000000   1.000000
   13       -4.109603     -4.109606   1.000000   1.000000
   14       -3.455285     -3.455287   1.000000   1.000000
   15       -3.290115     -3.290118   1.000000   1.000000
   16       -2.267639     -2.267653   1.000000   1.000000
   17       -1.251505     -1.251502   1.000000   1.000000
   18       -1.239438     -1.239437   1.000000   1.000000
   19       -0.444915     -0.444916   1.000000   1.000000
   20       -0.253597     -0.253598   1.000000   1.000000
   21        0.034252      0.034252   1.000000   1.000000
   22        0.267718      0.267713   1.000000   1.000000
   23        0.536187      0.536180   1.000000   1.000000
   24        0.694078      0.694071   1.000000   1.000000
   25        0.874583      0.874577   1.000000   1.000000
   26        1.240813      1.240812   1.000000   1.000000
   27        1.381461      1.381463   1.000000   1.000000
   28        1.959495      1.959507   1.000000   1.000000
   29        6.876170      6.876209  -0.000000  -0.000000
   30        8.494302      8.494311   0.000000   0.000000
   31        8.765279      8.765299   0.000000   0.000000
   32        9.517031      9.517133   0.000000   0.000000
   33        9.987730      9.987618   0.000000   0.000000
   34       10.727808     10.727767   0.000000   0.000000
   35       10.933542     10.933571   0.000000   0.000000
   36       11.537066     11.536946   0.000000   0.000000
   37       11.834004     11.833910   0.000000   0.000000
   38       12.194927     12.199172   0.000000   0.000000
   39       12.301495     12.300310   0.000000   0.000000
   40       12.788820     12.780767   0.000000   0.000000
 
 -0.1958139E-16  0.2857143E+00  0.0000000E+00  0.6802721E-02
    1      -41.369272    -41.369204   1.000000   1.000000
    2      -41.363190    -41.363122   1.000000   1.000000
    3      -41.164479    -41.164414   1.000000   1.000000
    4      -41.155051    -41.154986   1.000000   1.000000
    5      -17.244058    -17.244083   1.000000   1.000000
    6      -16.807939    -16.807967   1.000000   1.000000
    7      -15.168666    -15.168695   1.000000   1.000000
    8      -15.056116    -15.056148   1.000000   1.000000
    9      -13.427156    -13.427178   1.000000   1.000000
   10      -11.815909    -11.815927   1.000000   1.000000
   11       -7.607567     -7.607585   1.000000   1.000000
   12       -4.336917     -4.336925   1.000000   1.000000
   13       -3.998709     -3.998714   1.000000   1.000000
   14       -3.551108     -3.551110   1.000000   1.000000
   15       -3.115658     -3.115663   1.000000   1.000000
   16       -2.360030     -2.360041   1.000000   1.000000
   17       -1.284590     -1.284589   1.000000   1.000000
   18       -0.792169     -0.792171   1.000000   1.000000
   19       -0.439554     -0.439555   1.000000   1.000000
   20       -0.177292     -0.177297   1.000000   1.000000
   21       -0.041270     -0.041266   1.000000   1.000000
   22        0.055942      0.055944   1.000000   1.000000
   23        0.389891      0.389885   1.000000   1.000000
   24        0.577630      0.577622   1.000000   1.000000
   25        0.735656      0.735653   1.000000   1.000000
   26        1.114224      1.114224   1.000000   1.000000
   27        1.574765      1.574763   1.000000   1.000000
   28        2.001840      2.001852   1.000000   1.000000
   29        7.213142      7.213172   0.000000   0.000000
   30        8.650689      8.650692   0.000000   0.000000
   31        8.697761      8.697785   0.000000   0.000000
   32        9.351264      9.351294   0.000000   0.000000
   33        9.961448      9.961461   0.000000   0.000000
   34       10.348225     10.348186   0.000000   0.000000
   35       10.585932     10.586081   0.000000   0.000000
   36       11.024401     11.024266   0.000000   0.000000
   37       11.739452     11.739338   0.000000   0.000000
   38       12.126297     12.128702   0.000000   0.000000
   39       12.290778     12.296924   0.000000   0.000000
   40       12.729503     12.726065   0.000000   0.000000
 
  0.1666667E+00  0.2857143E+00  0.0000000E+00  0.6802721E-02
    1      -41.369210    -41.369142   1.000000   1.000000
    2      -41.363262    -41.363194   1.000000   1.000000
    3      -41.164500    -41.164435   1.000000   1.000000
    4      -41.155068    -41.155003   1.000000   1.000000
    5      -17.217627    -17.217653   1.000000   1.000000
    6      -16.834492    -16.834520   1.000000   1.000000
    7      -15.181898    -15.181927   1.000000   1.000000
    8      -15.053604    -15.053635   1.000000   1.000000
    9      -13.423397    -13.423419   1.000000   1.000000
   10      -11.812076    -11.812094   1.000000   1.000000
   11       -7.615683     -7.615701   1.000000   1.000000
   12       -4.351521     -4.351528   1.000000   1.000000
   13       -3.895647     -3.895653   1.000000   1.000000
   14       -3.596400     -3.596403   1.000000   1.000000
   15       -3.030469     -3.030474   1.000000   1.000000
   16       -2.423963     -2.423974   1.000000   1.000000
   17       -1.172109     -1.172111   1.000000   1.000000
   18       -0.610502     -0.610509   1.000000   1.000000
   19       -0.497188     -0.497185   1.000000   1.000000
   20       -0.345096     -0.345093   1.000000   1.000000
   21       -0.106702     -0.106703   1.000000   1.000000
   22        0.026768      0.026768   1.000000   1.000000
   23        0.278540      0.278537   1.000000   1.000000
   24        0.650267      0.650265   1.000000   1.000000
   25        0.705381      0.705369   1.000000   1.000000
   26        0.995451      0.995456   1.000000   1.000000
   27        1.663740      1.663736   1.000000   1.000000
   28        2.011306      2.011317   1.000000   1.000000
   29        7.519753      7.519774   0.000000   0.000000
   30        8.480055      8.480069   0.000000   0.000000
   31        8.802368      8.802386   0.000000   0.000000
   32        9.250306      9.250329   0.000000   0.000000
   33        9.940559      9.940555   0.000000   0.000000
   34       10.228250     10.228255   0.000000   0.000000
   35       10.447063     10.447078   0.000000   0.000000
   36       10.977741     10.977787   0.000000   0.000000
   37       11.433137     11.433196   0.000000   0.000000
   38       11.870536     11.872360   0.000000   0.000000
   39       12.390421     12.390503   0.000000   0.000000
   40       13.013907     13.065883   0.000000   0.000000
 
  0.3333333E+00  0.2857143E+00  0.0000000E+00  0.6802721E-02
    1      -41.369134    -41.369066   1.000000   1.000000
    2      -41.363329    -41.363262   1.000000   1.000000
    3      -41.164511    -41.164446   1.000000   1.000000
    4      -41.155064    -41.154999   1.000000   1.000000
    5      -17.213779    -17.213805   1.000000   1.000000
    6      -16.834093    -16.834121   1.000000   1.000000
    7      -15.183536    -15.183566   1.000000   1.000000
    8      -15.059978    -15.060009   1.000000   1.000000
    9      -13.427018    -13.427040   1.000000   1.000000
   10      -11.809883    -11.809902   1.000000   1.000000
   11       -7.621874     -7.621892   1.000000   1.000000
   12       -4.337982     -4.337990   1.000000   1.000000
   13       -3.822840     -3.822849   1.000000   1.000000
   14       -3.615395     -3.615396   1.000000   1.000000
   15       -2.925975     -2.925982   1.000000   1.000000
   16       -2.437138     -2.437148   1.000000   1.000000
   17       -1.087693     -1.087696   1.000000   1.000000
   18       -0.888395     -0.888393   1.000000   1.000000
   19       -0.575824     -0.575818   1.000000   1.000000