       N       E                     dE             d eps       ncg     rms          rms(c)
DAV:   1     0.412336976756E+03    0.41234E+03   -0.26753E+04 14080   0.143E+03
DAV:   2    -0.401236318833E+02   -0.45246E+03   -0.43274E+03 16408   0.359E+02
DAV:   3    -0.798307297752E+02   -0.39707E+02   -0.39488E+02 20552   0.101E+02
DAV:   4    -0.833811751976E+02   -0.35504E+01   -0.35356E+01 23992   0.233E+01
DAV:   5    -0.836382852301E+02   -0.25711E+00   -0.25709E+00 19664   0.472E+00    0.300E+01
RMM:   6    -0.757614493691E+02    0.78768E+01   -0.31078E+01 15212   0.225E+01    0.121E+01
RMM:   7    -0.763332414531E+02   -0.57179E+00   -0.41187E+00 21065   0.951E+00    0.634E+00
RMM:   8    -0.764783596042E+02   -0.14512E+00   -0.89855E-01 23197   0.461E+00    0.338E+00
RMM:   9    -0.765133383035E+02   -0.34979E-01   -0.24867E-01 22934   0.296E+00    0.942E-01
RMM:  10    -0.765382605882E+02   -0.24922E-01   -0.17140E-01 26081   0.177E+00    0.357E-01
RMM:  11    -0.765475029413E+02   -0.92424E-02   -0.76547E-02 26797   0.107E+00    0.248E-01
RMM:  12    -0.765523432142E+02   -0.48403E-02   -0.33490E-02 27293   0.685E-01    0.138E-01
RMM:  13    -0.765543169541E+02   -0.19737E-02   -0.14590E-02 27175   0.451E-01    0.621E-02
RMM:  14    -0.765550548553E+02   -0.73790E-03   -0.59782E-03 27055   0.318E-01    0.372E-02
RMM:  15    -0.765553801950E+02   -0.32534E-03   -0.30775E-03 26507   0.205E-01    0.217E-02
RMM:  16    -0.765555144670E+02   -0.13427E-03   -0.12632E-03 26210   0.138E-01    0.140E-02
RMM:  17    -0.765555759717E+02   -0.61505E-04   -0.63115E-04 25496   0.972E-02    0.100E-02
RMM:  18    -0.765556115714E+02   -0.35600E-04   -0.30147E-04 25349   0.694E-02    0.567E-03
RMM:  19    -0.765556245681E+02   -0.12997E-04   -0.12959E-04 22373   0.480E-02    0.503E-03
RMM:  20    -0.765556265250E+02   -0.19569E-05   -0.33878E-05 18566   0.378E-02
   1 F= -.76555627E+02 E0= -.76555627E+02  d E =0.000000E+00  mag=    -0.0000
