 running on   12 total cores
 distrk:  each k-point on   12 cores,    1 groups
 distr:  one band on    6 cores,    2 groups
 using from now: INCAR     
 vasp.6.1.2 22Jul20 (build Mar 20 2021 11:25:07) complex                        
  
 POSCAR found type information on POSCAR LiP O 
 POSCAR found :  3 types and      26 ions
 scaLAPACK will be used
 LDA part: xc-table for Pade appr. of Perdew
 generate k-points for:    6    5    4
 POSCAR, INCAR and KPOINTS ok, starting setup
 FFT: planning ...
 WAVECAR not read
 entering main loop
       N       E                     dE             d eps       ncg     rms          rms(c)
DAV:   1     0.111350371835E+04    0.11135E+04   -0.61512E+04 21328   0.151E+03
DAV:   2    -0.609990246673E+02   -0.11745E+04   -0.11037E+04 25712   0.391E+02
DAV:   3    -0.173851057302E+03   -0.11285E+03   -0.11211E+03 27560   0.124E+02
DAV:   4    -0.183424862747E+03   -0.95738E+01   -0.95324E+01 39784   0.296E+01
DAV:   5    -0.185073606308E+03   -0.16487E+01   -0.16482E+01 30696   0.706E+00    0.487E+01
DAV:   6    -0.165526629516E+03    0.19547E+02   -0.90140E+01 26664   0.320E+01    0.239E+01
DAV:   7    -0.167516984525E+03   -0.19904E+01   -0.73179E+00 27864   0.914E+00    0.861E+00
DAV:   8    -0.167807148637E+03   -0.29016E+00   -0.77783E-01 28280   0.349E+00    0.433E+00
DAV:   9    -0.167942620794E+03   -0.13547E+00   -0.13555E-01 29376   0.158E+00    0.165E+00
DAV:  10    -0.167969891338E+03   -0.27271E-01   -0.53042E-02 26824   0.110E+00    0.492E-01
DAV:  11    -0.167980548080E+03   -0.10657E-01   -0.11436E-02 26768   0.437E-01    0.291E-01
DAV:  12    -0.167983339927E+03   -0.27918E-02   -0.21066E-03 28272   0.204E-01    0.150E-01
DAV:  13    -0.167984770038E+03   -0.14301E-02   -0.11962E-03 24840   0.131E-01    0.483E-02
DAV:  14    -0.167984957273E+03   -0.18724E-03   -0.13817E-04 27464   0.588E-02    0.223E-02
DAV:  15    -0.167985020853E+03   -0.63579E-04   -0.69090E-05 22184   0.361E-02    0.136E-02
DAV:  16    -0.167985028408E+03   -0.75552E-05   -0.80033E-06 18304   0.142E-02
   1 F= -.16798503E+03 E0= -.16798503E+03  d E =0.000000E+00  mag=    -0.0012
