   12   12    1    2
  0.9596959E+01  0.5170490E-09  0.5330402E-09  0.4748969E-09  0.5000000E-15
  1.000000000000000E-004
  CAR 
 unknown system                          
     56    100     40
 
  0.0000000E+00  0.0000000E+00  0.0000000E+00  0.2915452E-02
    1      -40.043251    -40.043043   1.000000   1.000000
    2      -40.030431    -40.030222   1.000000   1.000000
    3      -39.976564    -39.976358   1.000000   1.000000
    4      -39.967441    -39.967234   1.000000   1.000000
    5      -17.152452    -17.152495   1.000000   1.000000
    6      -16.486595    -16.486650   1.000000   1.000000
    7      -14.949439    -14.949503   1.000000   1.000000
    8      -14.931574    -14.931638   1.000000   1.000000
    9      -12.711361    -12.711402   1.000000   1.000000
   10      -11.147239    -11.147277   1.000000   1.000000
   11       -6.813086     -6.813110   1.000000   1.000000
   12       -3.683838     -3.683861   1.000000   1.000000
   13       -3.419404     -3.419424   1.000000   1.000000
   14       -2.883977     -2.884003   1.000000   1.000000
   15       -2.810677     -2.810697   1.000000   1.000000
   16       -1.666543     -1.666586   1.000000   1.000000
   17       -0.812008     -0.812030   1.000000   1.000000
   18       -0.763212     -0.763225   1.000000   1.000000
   19        0.098220      0.098194   1.000000   1.000000
   20        0.262114      0.262095   1.000000   1.000000
   21        0.507456      0.507432   1.000000   1.000000
   22        1.263037      1.262989   1.000000   1.000000
   23        1.267421      1.267377   1.000000   1.000000
   24        1.383467      1.383424   1.000000   1.000000
   25        1.553053      1.553017   1.000000   1.000000
   26        2.248254      2.248234   1.000000   1.000000
   27        2.263743      2.263715   1.000000   1.000000
   28        2.931057      2.931042   1.000000   1.000000
   29        8.822029      8.822052   0.000000   0.000000
   30        9.897673      9.897681   0.000000   0.000000
   31       10.344225     10.344236   0.000000   0.000000
   32       11.861914     11.861898   0.000000   0.000000
   33       11.976309     11.976409   0.000000   0.000000
   34       12.641419     12.641276   0.000000   0.000000
   35       12.752912     12.752968   0.000000   0.000000
   36       13.693257     13.686600   0.000000   0.000000
   37       13.743556     13.744378   0.000000   0.000000
   38       14.080922     14.084128   0.000000   0.000000
   39       14.444103     14.462453   0.000000   0.000000
   40       14.884274     14.927418   0.000000   0.000000
 
  0.1428571E+00  0.7291411E-17  0.0000000E+00  0.5830904E-02
    1      -40.042945    -40.042738   1.000000   1.000000
    2      -40.030539    -40.030331   1.000000   1.000000
    3      -39.977007    -39.976801   1.000000   1.000000
    4      -39.967272    -39.967066   1.000000   1.000000
    5      -17.131016    -17.131060   1.000000   1.000000
    6      -16.505563    -16.505618   1.000000   1.000000
    7      -14.960205    -14.960268   1.000000   1.000000
    8      -14.932527    -14.932592   1.000000   1.000000
    9      -12.715645    -12.715686   1.000000   1.000000
   10      -11.145881    -11.145919   1.000000   1.000000
   11       -6.816371     -6.816394   1.000000   1.000000
   12       -3.687811     -3.687832   1.000000   1.000000
   13       -3.387652     -3.387674   1.000000   1.000000
   14       -2.863192     -2.863216   1.000000   1.000000
   15       -2.765446     -2.765470   1.000000   1.000000
   16       -1.686102     -1.686143   1.000000   1.000000
   17       -0.903079     -0.903096   1.000000   1.000000
   18       -0.535792     -0.535813   1.000000   1.000000
   19        0.126985      0.126959   1.000000   1.000000
   20        0.306545      0.306524   1.000000   1.000000
   21        0.493942      0.493919   1.000000   1.000000
   22        1.093638      1.093595   1.000000   1.000000
   23        1.223330      1.223294   1.000000   1.000000
   24        1.330405      1.330359   1.000000   1.000000
   25        1.503769      1.503734   1.000000   1.000000
   26        2.205761      2.205736   1.000000   1.000000
   27        2.306858      2.306834   1.000000   1.000000
   28        2.927826      2.927811   1.000000   1.000000
   29        9.031008      9.031024   0.000000   0.000000
   30        9.928301      9.928290   0.000000   0.000000
   31       10.454083     10.454057   0.000000   0.000000
   32       11.674004     11.674003   0.000000   0.000000
   33       12.001978     12.002089   0.000000   0.000000
   34       12.396187     12.396135   0.000000   0.000000
   35       12.803557     12.803337   0.000000   0.000000
   36       13.305527     13.305508   0.000000   0.000000
   37       13.614961     13.612567   0.000000   0.000000
   38       13.927061     13.933679   0.000000   0.000000
   39       14.083155     14.081811   0.000000   0.000000
   40       14.627354     14.621318   0.000000   0.000000
 
  0.2857143E+00 -0.2510433E-16  0.0000000E+00  0.5830904E-02
    1      -40.042220    -40.042012   1.000000   1.000000
    2      -40.030685    -40.030477   1.000000   1.000000
    3      -39.977847    -39.977641   1.000000   1.000000
    4      -39.966958    -39.966752   1.000000   1.000000
    5      -17.076434    -17.076479   1.000000   1.000000
    6      -16.554504    -16.554558   1.000000   1.000000
    7      -14.980981    -14.981044   1.000000   1.000000
    8      -14.937752    -14.937817   1.000000   1.000000
    9      -12.724483    -12.724524   1.000000   1.000000
   10      -11.143390    -11.143428   1.000000   1.000000
   11       -6.822426     -6.822448   1.000000   1.000000
   12       -3.710544     -3.710563   1.000000   1.000000
   13       -3.287654     -3.287679   1.000000   1.000000
   14       -2.926903     -2.926930   1.000000   1.000000
   15       -2.538728     -2.538757   1.000000   1.000000
   16       -1.745979     -1.746017   1.000000   1.000000
   17       -0.806115     -0.806135   1.000000   1.000000
   18       -0.274474     -0.274500   1.000000   1.000000
   19        0.111866      0.111841   1.000000   1.000000
   20        0.391913      0.391887   1.000000   1.000000
   21        0.497345      0.497323   1.000000   1.000000
   22        0.732950      0.732919   1.000000   1.000000
   23        1.065050      1.065016   1.000000   1.000000
   24        1.268656      1.268620   1.000000   1.000000
   25        1.398595      1.398557   1.000000   1.000000
   26        2.079866      2.079845   1.000000   1.000000
   27        2.439074      2.439039   1.000000   1.000000
   28        2.918100      2.918084   1.000000   1.000000
   29        9.456387      9.456389   0.000000   0.000000
   30       10.034487     10.034488   0.000000   0.000000
   31       10.754523     10.754504   0.000000   0.000000
   32       11.482140     11.482123   0.000000   0.000000
   33       11.712900     11.713014   0.000000   0.000000
   34       11.951986     11.951897   0.000000   0.000000
   35       12.584967     12.584807   0.000000   0.000000
   36       12.918515     12.918063   0.000000   0.000000
   37       13.171372     13.171331   0.000000   0.000000
   38       13.933595     13.931746   0.000000   0.000000
   39       14.052311     14.052643   0.000000   0.000000
   40       14.681825     14.665991   0.000000   0.000000
 
  0.4285714E+00  0.2382044E-16  0.0000000E+00  0.5830904E-02
    1      -40.041629    -40.041421   1.000000   1.000000
    2      -40.030818    -40.030610   1.000000   1.000000
    3      -39.978487    -39.978281   1.000000   1.000000
    4      -39.966725    -39.966519   1.000000   1.000000
    5      -17.022674    -17.022721   1.000000   1.000000
    6      -16.603957    -16.604010   1.000000   1.000000
    7      -14.996383    -14.996445   1.000000   1.000000
    8      -14.943081    -14.943146   1.000000   1.000000
    9      -12.730863    -12.730904   1.000000   1.000000
   10      -11.142041    -11.142079   1.000000   1.000000
   11       -6.825925     -6.825947   1.000000   1.000000
   12       -3.739991     -3.740008   1.000000   1.000000
   13       -3.167246     -3.167269   1.000000   1.000000
   14       -3.006618     -3.006652   1.000000   1.000000
   15       -2.292220     -2.292253   1.000000   1.000000
   16       -1.825984     -1.826019   1.000000   1.000000
   17       -0.611605     -0.611631   1.000000   1.000000
   18       -0.134656     -0.134690   1.000000   1.000000
   19        0.071805      0.071789   1.000000   1.000000
   20        0.263488      0.263469   1.000000   1.000000
   21        0.376291      0.376270   1.000000   1.000000
   22        0.681648      0.681617   1.000000   1.000000
   23        1.056239      1.056212   1.000000   1.000000
   24        1.164523      1.164495   1.000000   1.000000
   25        1.316983      1.316940   1.000000   1.000000
   26        1.968317      1.968301   1.000000   1.000000
   27        2.552772      2.552729   1.000000   1.000000
   28        2.905622      2.905604   1.000000   1.000000
   29        9.561823      9.561801   0.000000   0.000000
   30       10.501235     10.501236   0.000000   0.000000
   31       11.021070     11.020993   0.000000   0.000000
   32       11.257519     11.257459   0.000000   0.000000
   33       11.490709     11.490518   0.000000   0.000000
   34       11.675480     11.675572   0.000000   0.000000
   35       12.145404     12.145251   0.000000   0.000000
   36       12.596287     12.596092   0.000000   0.000000
   37       12.872481     12.872824   0.000000   0.000000
   38       14.124648     14.125653   0.000000   0.000000
   39       14.320704     14.326612   0.000000   0.000000
   40       14.928943     14.946755   0.000000   0.000000
 
  0.2150403E-16  0.1428571E+00  0.0000000E+00  0.5830904E-02
    1      -40.042834    -40.042626   1.000000   1.000000
    2      -40.030715    -40.030507   1.000000   1.000000
    3      -39.976770    -39.976564   1.000000   1.000000
    4      -39.967399    -39.967193   1.000000   1.000000
    5      -17.133913    -17.133957   1.000000   1.000000
    6      -16.504848    -16.504903   1.000000   1.000000
    7      -14.952539    -14.952603   1.000000   1.000000
    8      -14.936503    -14.936567   1.000000   1.000000
    9      -12.714686    -12.714727   1.000000   1.000000
   10      -11.145801    -11.145840   1.000000   1.000000
   11       -6.813695     -6.813718   1.000000   1.000000
   12       -3.689184     -3.689206   1.000000   1.000000
   13       -3.383025     -3.383047   1.000000   1.000000
   14       -2.841351     -2.841373   1.000000   1.000000
   15       -2.800713     -2.800739   1.000000   1.000000
   16       -1.685015     -1.685057   1.000000   1.000000
   17       -0.902771     -0.902788   1.000000   1.000000
   18       -0.552707     -0.552728   1.000000   1.000000
   19        0.131700      0.131674   1.000000   1.000000
   20        0.307898      0.307877   1.000000   1.000000
   21        0.501919      0.501896   1.000000   1.000000
   22        1.056475      1.056433   1.000000   1.000000
   23        1.204999      1.204961   1.000000   1.000000
   24        1.380997      1.380954   1.000000   1.000000
   25        1.515730      1.515693   1.000000   1.000000
   26        2.206397      2.206372   1.000000   1.000000
   27        2.299772      2.299747   1.000000   1.000000
   28        2.923522      2.923507   1.000000   1.000000
   29        9.054704      9.054721   0.000000   0.000000
   30        9.915685      9.915688   0.000000   0.000000
   31       10.440560     10.440546   0.000000   0.000000
   32       11.675718     11.675706   0.000000   0.000000
   33       11.989103     11.989388   0.000000   0.000000
   34       12.391410     12.391557   0.000000   0.000000
   35       12.801093     12.801073   0.000000   0.000000
   36       13.312303     13.312078   0.000000   0.000000
   37       13.663905     13.663600   0.000000   0.000000
   38       13.878415     13.878287   0.000000   0.000000
   39       14.066456     14.061049   0.000000   0.000000
   40       15.233733     15.255302   0.000000   0.000000
 
  0.1428571E+00  0.1428571E+00  0.0000000E+00  0.5830904E-02
    1      -40.042232    -40.042025   1.000000   1.000000
    2      -40.030946    -40.030738   1.000000   1.000000
    3      -39.977368    -39.977162   1.000000   1.000000
    4      -39.967136    -39.966930   1.000000   1.000000
    5      -17.094011    -17.094055   1.000000   1.000000
    6      -16.545470    -16.545524   1.000000   1.000000
    7      -14.970511    -14.970574   1.000000   1.000000
    8      -14.932269    -14.932334   1.000000   1.000000
    9      -12.717114    -12.717156   1.000000   1.000000
   10      -11.144440    -11.144478   1.000000   1.000000
   11       -6.811839     -6.811862   1.000000   1.000000
   12       -3.721515     -3.721535   1.000000   1.000000
   13       -3.314247     -3.314270   1.000000   1.000000
   14       -2.878177     -2.878204   1.000000   1.000000
   15       -2.693817     -2.693843   1.000000   1.000000
   16       -1.738285     -1.738324   1.000000   1.000000
   17       -0.856547     -0.856567   1.000000   1.000000
   18       -0.251579     -0.251607   1.000000   1.000000
   19        0.240997      0.240975   1.000000   1.000000
   20        0.259685      0.259656   1.000000   1.000000
   21        0.504244      0.504225   1.000000   1.000000
   22        0.879411      0.879373   1.000000   1.000000
   23        0.958264      0.958237   1.000000   1.000000
   24        1.386862      1.386829   1.000000   1.000000
   25        1.399798      1.399752   1.000000   1.000000
   26        2.100994      2.100973   1.000000   1.000000
   27        2.416006      2.415973   1.000000   1.000000
   28        2.929800      2.929783   1.000000   1.000000
   29        9.386046      9.386053   0.000000   0.000000
   30        9.927261      9.927259   0.000000   0.000000
   31       10.576271     10.576265   0.000000   0.000000
   32       11.605620     11.605664   0.000000   0.000000
   33       11.725189     11.725818   0.000000   0.000000
   34       12.316110     12.316031   0.000000   0.000000
   35       12.526738     12.526686   0.000000   0.000000
   36       13.119380     13.120013   0.000000   0.000000
   37       13.203523     13.203585   0.000000   0.000000
   38       13.587044     13.586941   0.000000   0.000000
   39       13.897027     13.897096   0.000000   0.000000
   40       15.085674     15.226632   0.000000   0.000000
 
  0.2857143E+00  0.1428571E+00  0.0000000E+00  0.5830904E-02
    1      -40.041575    -40.041367   1.000000   1.000000
    2      -40.031087    -40.030879   1.000000   1.000000
    3      -39.978125    -39.977919   1.000000   1.000000
    4      -39.966873    -39.966667   1.000000   1.000000
    5      -17.038515    -17.038561   1.000000   1.000000
    6      -16.593646    -16.593699   1.000000   1.000000
    7      -15.004848    -15.004910   1.000000   1.000000
    8      -14.923783    -14.923848   1.000000   1.000000
    9      -12.726065    -12.726107   1.000000   1.000000
   10      -11.142530    -11.142568   1.000000   1.000000
   11       -6.818389     -6.818411   1.000000   1.000000
   12       -3.742925     -3.742942   1.000000   1.000000
   13       -3.216630     -3.216654   1.000000   1.000000
   14       -2.924750     -2.924783   1.000000   1.000000
   15       -2.462664     -2.462693   1.000000   1.000000
   16       -1.794144     -1.794180   1.000000   1.000000
   17       -0.666546     -0.666571   1.000000   1.000000
   18       -0.070402     -0.070442   1.000000   1.000000
   19        0.062606      0.062588   1.000000   1.000000
   20        0.231695      0.231679   1.000000   1.000000
   21        0.572533      0.572507   1.000000   1.000000
   22        0.623020      0.622992   1.000000   1.000000
   23        0.913814      0.913789   1.000000   1.000000
   24        1.251172      1.251143   1.000000   1.000000
   25        1.374771      1.374725   1.000000   1.000000
   26        1.977602      1.977586   1.000000   1.000000
   27        2.532195      2.532154   1.000000   1.000000
   28        2.922765      2.922746   1.000000   1.000000
   29        9.631694      9.631687   0.000000   0.000000
   30       10.136483     10.136490   0.000000   0.000000
   31       10.779120     10.779094   0.000000   0.000000
   32       11.349191     11.349260   0.000000   0.000000
   33       11.780679     11.780843   0.000000   0.000000
   34       11.835980     11.835981   0.000000   0.000000
   35       12.187256     12.187115   0.000000   0.000000
   36       12.680096     12.680467   0.000000   0.000000
   37       13.054243     13.054266   0.000000   0.000000
   38       13.691634     13.691176   0.000000   0.000000
   39       14.009518     14.009048   0.000000   0.000000
   40       15.187413     15.119579   0.000000   0.000000
 
  0.4285714E+00  0.1428571E+00  0.0000000E+00  0.5830904E-02
    1      -40.041379    -40.041171   1.000000   1.000000
    2      -40.030993    -40.030785   1.000000   1.000000
    3      -39.978503    -39.978297   1.000000   1.000000
    4      -39.966763    -39.966557   1.000000   1.000000
    5      -17.013676    -17.013723   1.000000   1.000000
    6      -16.608608    -16.608661   1.000000   1.000000
    7      -15.026948    -15.027009   1.000000   1.000000
    8      -14.920116    -14.920181   1.000000   1.000000
    9      -12.735043    -12.735084   1.000000   1.000000
   10      -11.141165    -11.141203   1.000000   1.000000
   11       -6.829295     -6.829316   1.000000   1.000000
   12       -3.740277     -3.740294   1.000000   1.000000
   13       -3.115648     -3.115669   1.000000   1.000000
   14       -2.993433     -2.993473   1.000000   1.000000
   15       -2.251555     -2.251588   1.000000   1.000000
   16       -1.833387     -1.833421   1.000000   1.000000
   17       -0.552417     -0.552444   1.000000   1.000000
   18       -0.241250     -0.241275   1.000000   1.000000
   19       -0.009107     -0.009125   1.000000   1.000000
   20        0.212349      0.212330   1.000000   1.000000
   21        0.485474      0.485440   1.000000   1.000000
   22        0.665349      0.665326   1.000000   1.000000
   23        1.027351      1.027327   1.000000   1.000000
   24        1.144922      1.144892   1.000000   1.000000
   25        1.362155      1.362111   1.000000   1.000000
   26        1.946884      1.946869   1.000000   1.000000
   27        2.553078      2.553035   1.000000   1.000000
   28        2.912748      2.912728   1.000000   1.000000
   29        9.625029      9.625006   0.000000   0.000000
   30       10.425130     10.425120   0.000000   0.000000
   31       10.944585     10.944590   0.000000   0.000000
   32       11.139530     11.139525   0.000000   0.000000
   33       11.479724     11.479687   0.000000   0.000000
   34       11.894356     11.894306   0.000000   0.000000
   35       12.230065     12.230145   0.000000   0.000000
   36       12.487846     12.487800   0.000000   0.000000
   37       12.900883     12.900876   0.000000   0.000000
   38       13.929900     13.930538   0.000000   0.000000
   39       14.288064     14.287640   0.000000   0.000000
   40       15.075591     15.072004   0.000000   0.000000
 
 -0.4285714E+00  0.1428571E+00  0.0000000E+00  0.5830904E-02
    1      -40.041805    -40.041597   1.000000   1.000000
    2      -40.030733    -40.030525   1.000000   1.000000
    3      -39.978249    -39.978043   1.000000   1.000000
    4      -39.966878    -39.966672   1.000000   1.000000
    5      -17.046829    -17.046875   1.000000   1.000000
    6      -16.570195    -16.570249   1.000000   1.000000
    7      -15.027456    -15.027517   1.000000   1.000000
    8      -14.916921    -14.916986   1.000000   1.000000
    9      -12.737934    -12.737975   1.000000   1.000000
   10      -11.140926    -11.140964   1.000000   1.000000
   11       -6.836779     -6.836801   1.000000   1.000000
   12       -3.705824     -3.705840   1.000000   1.000000
   13       -3.166982     -3.167011   1.000000   1.000000
   14       -2.969533     -2.969562   1.000000   1.000000
   15       -2.297742     -2.297774   1.000000   1.000000
   16       -1.789728     -1.789763   1.000000   1.000000
   17       -0.686274     -0.686297   1.000000   1.000000
   18       -0.355175     -0.355195   1.000000   1.000000
   19       -0.021198     -0.021219   1.000000   1.000000
   20        0.306359      0.306332   1.000000   1.000000
   21        0.502761      0.502731   1.000000   1.000000
   22        0.692909      0.692885   1.000000   1.000000
   23        1.063933      1.063904   1.000000   1.000000
   24        1.209551      1.209520   1.000000   1.000000
   25        1.395824      1.395781   1.000000   1.000000
   26        2.026700      2.026679   1.000000   1.000000
   27        2.459865      2.459827   1.000000   1.000000
   28        2.905586      2.905569   1.000000   1.000000
   29        9.643660      9.643650   0.000000   0.000000
   30       10.274879     10.274887   0.000000   0.000000
   31       10.965395     10.965411   0.000000   0.000000
   32       11.020883     11.020905   0.000000   0.000000
   33       11.578208     11.578053   0.000000   0.000000
   34       11.851244     11.851360   0.000000   0.000000
   35       12.599516     12.599607   0.000000   0.000000
   36       12.801184     12.801702   0.000000   0.000000
   37       12.996432     12.996376   0.000000   0.000000
   38       14.026536     14.033040   0.000000   0.000000
   39       14.440657     14.482041   0.000000   0.000000
   40       14.736899     14.778391   0.000000   0.000000
 
 -0.2857143E+00  0.1428571E+00  0.0000000E+00  0.5830904E-02
    1      -40.042498    -40.042290   1.000000   1.000000
    2      -40.030567    -40.030359   1.000000   1.000000
    3      -39.977546    -39.977340   1.000000   1.000000
    4      -39.967158    -39.966952   1.000000   1.000000
    5      -17.101301    -17.101346   1.000000   1.000000
    6      -16.519247    -16.519302   1.000000   1.000000
    7      -15.008187    -15.008249   1.000000   1.000000
    8      -14.914533    -14.914597   1.000000   1.000000
    9      -12.732052    -12.732093   1.000000   1.000000
   10      -11.142576    -11.142614   1.000000   1.000000
   11       -6.833996     -6.834019   1.000000   1.000000
   12       -3.666791     -3.666809   1.000000   1.000000
   13       -3.314253     -3.314281   1.000000   1.000000
   14       -2.882341     -2.882365   1.000000   1.000000
   15       -2.528912     -2.528941   1.000000   1.000000
   16       -1.699683     -1.699722   1.000000   1.000000
   17       -0.827524     -0.827543   1.000000   1.000000
   18       -0.551944     -0.551961   1.000000   1.000000
   19        0.000081      0.000058   1.000000   1.000000
   20        0.384207      0.384182   1.000000   1.000000
   21        0.548424      0.548392   1.000000   1.000000
   22        0.801411      0.801382   1.000000   1.000000
   23        1.183006      1.182970   1.000000   1.000000
   24        1.322173      1.322129   1.000000   1.000000
   25        1.466497      1.466460   1.000000   1.000000
   26        2.139607      2.139583   1.000000   1.000000
   27        2.329754      2.329726   1.000000   1.000000
   28        2.901818      2.901804   1.000000   1.000000
   29        9.393677      9.393688   0.000000   0.000000
   30       10.064671     10.064675   0.000000   0.000000
   31       10.681346     10.681370   0.000000   0.000000
   32       11.296001     11.295978   0.000000   0.000000
   33       11.912469     11.912176   0.000000   0.000000
   34       12.116311     12.116483   0.000000   0.000000
   35       12.613863     12.613923   0.000000   0.000000
   36       13.209489     13.208844   0.000000   0.000000
   37       13.381991     13.381958   0.000000   0.000000
   38       14.099004     14.098196   0.000000   0.000000
   39       14.430014     14.417383   0.000000   0.000000
   40       14.652327     14.636444   0.000000   0.000000
 
 -0.1428571E+00  0.1428571E+00  0.0000000E+00  0.5830904E-02
    1      -40.042948    -40.042740   1.000000   1.000000
    2      -40.030564    -40.030356   1.000000   1.000000
    3      -39.976856    -39.976650   1.000000   1.000000
    4      -39.967409    -39.967202   1.000000   1.000000
    5      -17.136513    -17.136556   1.000000   1.000000
    6      -16.493793    -16.493848   1.000000   1.000000
    7      -14.979029    -14.979092   1.000000   1.000000
    8      -14.918975    -14.919040   1.000000   1.000000
    9      -12.721337    -12.721378   1.000000   1.000000
   10      -11.145038    -11.145076   1.000000   1.000000
   11       -6.823264     -6.823288   1.000000   1.000000
   12       -3.658516     -3.658537   1.000000   1.000000
   13       -3.399123     -3.399147   1.000000   1.000000
   14       -2.833070     -2.833092   1.000000   1.000000
   15       -2.735609     -2.735635   1.000000   1.000000
   16       -1.660393     -1.660435   1.000000   1.000000
   17       -0.807842     -0.807863   1.000000   1.000000
   18       -0.746915     -0.746927   1.000000   1.000000
   19        0.027080      0.027056   1.000000   1.000000
   20        0.307750      0.307729   1.000000   1.000000
   21        0.569524      0.569497   1.000000   1.000000
   22        1.036115      1.036075   1.000000   1.000000
   23        1.283339      1.283297   1.000000   1.000000
   24        1.363945      1.363900   1.000000   1.000000
   25        1.530993      1.530957   1.000000   1.000000
   26        2.222823      2.222796   1.000000   1.000000
   27        2.257792      2.257770   1.000000   1.000000
   28        2.909377      2.909364   1.000000   1.000000
   29        9.059742      9.059760   0.000000   0.000000
   30        9.970916      9.970937   0.000000   0.000000
   31       10.465316     10.465296   0.000000   0.000000
   32       11.656967     11.656875   0.000000   0.000000
   33       12.080038     12.078841   0.000000   0.000000
   34       12.270952     12.270905   0.000000   0.000000
   35       12.658322     12.657708   0.000000   0.000000
   36       13.365382     13.364150   0.000000   0.000000
   37       13.784892     13.769590   0.000000   0.000000
   38       14.232350     14.221670   0.000000   0.000000
   39       14.448100     14.428886   0.000000   0.000000
   40       15.349921     14.908433   0.000000   0.000000
 
  0.5732699E-16  0.2857143E+00  0.0000000E+00  0.5830904E-02
    1      -40.041824    -40.041617   1.000000   1.000000
    2      -40.031387    -40.031179   1.000000   1.000000
    3      -39.977206    -39.977000   1.000000   1.000000
    4      -39.967310    -39.967103   1.000000   1.000000
    5      -17.087216    -17.087261   1.000000   1.000000
    6      -16.550808    -16.550862   1.000000   1.000000
    7      -14.959190    -14.959253   1.000000   1.000000
    8      -14.948076    -14.948140   1.000000   1.000000
    9      -12.721465    -12.721506   1.000000   1.000000
   10      -11.143214    -11.143253   1.000000   1.000000
   11       -6.813791     -6.813813   1.000000   1.000000
   12       -3.712527     -3.712546   1.000000   1.000000
   13       -3.280300     -3.280325   1.000000   1.000000
   14       -2.919938     -2.919963   1.000000   1.000000
   15       -2.587256     -2.587285   1.000000   1.000000
   16       -1.743332     -1.743372   1.000000   1.000000
   17       -0.818204     -0.818224   1.000000   1.000000
   18       -0.319087     -0.319113   1.000000   1.000000
   19        0.129779      0.129753   1.000000   1.000000
   20        0.384244      0.384219   1.000000   1.000000
   21        0.520295      0.520274   1.000000   1.000000
   22        0.739838      0.739806   1.000000   1.000000
   23        1.018884      1.018851   1.000000   1.000000
   24        1.313731      1.313699   1.000000   1.000000
   25        1.435295      1.435251   1.000000   1.000000
   26        2.078654      2.078633   1.000000   1.000000
   27        2.413233      2.413199   1.000000   1.000000
   28        2.902338      2.902322   1.000000   1.000000
   29        9.635421      9.635428   0.000000   0.000000
   30        9.909260      9.909243   0.000000   0.000000
   31       10.682027     10.682023   0.000000   0.000000
   32       11.426679     11.426699   0.000000   0.000000
   33       11.751903     11.752205   0.000000   0.000000
   34       11.957926     11.957832   0.000000   0.000000
   35       12.617092     12.616802   0.000000   0.000000
   36       13.026825     13.025922   0.000000   0.000000
   37       13.177696     13.177874   0.000000   0.000000
   38       13.883934     13.883621   0.000000   0.000000
   39       14.041981     14.042973   0.000000   0.000000
   40       15.242568     15.127325   0.000000   0.000000
 
  0.1428571E+00  0.2857143E+00  0.0000000E+00  0.5830904E-02
    1      -40.041259    -40.041051   1.000000   1.000000
    2      -40.031629    -40.031421   1.000000   1.000000
    3      -39.977691    -39.977485   1.000000   1.000000
    4      -39.967095    -39.966889   1.000000   1.000000
    5      -17.047045    -17.047091   1.000000   1.000000
    6      -16.590085    -16.590138   1.000000   1.000000
    7      -14.996516    -14.996578   1.000000   1.000000
    8      -14.924153    -14.924218   1.000000   1.000000
    9      -12.724048    -12.724090   1.000000   1.000000
   10      -11.142412    -11.142451   1.000000   1.000000
   11       -6.812385     -6.812407   1.000000   1.000000
   12       -3.743738     -3.743755   1.000000   1.000000
   13       -3.211291     -3.211316   1.000000   1.000000
   14       -2.927447     -2.927478   1.000000   1.000000
   15       -2.490494     -2.490524   1.000000   1.000000
   16       -1.795363     -1.795400   1.000000   1.000000
   17       -0.672058     -0.672083   1.000000   1.000000
   18       -0.123350     -0.123387   1.000000   1.000000
   19        0.122894      0.122874   1.000000   1.000000