       N       E                     dE             d eps       ncg     rms          rms(c)
DAV:   1     0.415920887323E+03    0.41592E+03   -0.27425E+04 16016   0.146E+03
DAV:   2    -0.438244078633E+02   -0.45975E+03   -0.44033E+03 18568   0.371E+02
DAV:   3    -0.814007706094E+02   -0.37576E+02   -0.37392E+02 23464   0.995E+01
DAV:   4    -0.847070554923E+02   -0.33063E+01   -0.32931E+01 26144   0.234E+01
DAV:   5    -0.849294309390E+02   -0.22238E+00   -0.22236E+00 22368   0.460E+00    0.338E+01
RMM:   6    -0.768297096683E+02    0.80997E+01   -0.30118E+01 17094   0.230E+01    0.142E+01
RMM:   7    -0.773086210315E+02   -0.47891E+00   -0.47051E+00 23735   0.995E+00    0.723E+00
RMM:   8    -0.774875573349E+02   -0.17894E+00   -0.83777E-01 26004   0.474E+00    0.371E+00
RMM:   9    -0.775227875335E+02   -0.35230E-01   -0.27932E-01 25974   0.307E+00    0.105E+00
RMM:  10    -0.775500470413E+02   -0.27260E-01   -0.19580E-01 29692   0.187E+00    0.355E-01
RMM:  11    -0.775603497865E+02   -0.10303E-01   -0.85372E-02 30713   0.110E+00    0.271E-01
RMM:  12    -0.775647520555E+02   -0.44023E-02   -0.33561E-02 31145   0.691E-01    0.183E-01
RMM:  13    -0.775665221004E+02   -0.17700E-02   -0.13293E-02 30806   0.445E-01    0.676E-02
RMM:  14    -0.775672611203E+02   -0.73902E-03   -0.56998E-03 30688   0.306E-01    0.337E-02
RMM:  15    -0.775675430223E+02   -0.28190E-03   -0.25111E-03 30133   0.191E-01    0.279E-02
RMM:  16    -0.775676516288E+02   -0.10861E-03   -0.10444E-03 29718   0.123E-01    0.148E-02
RMM:  17    -0.775676923874E+02   -0.40759E-04   -0.42537E-04 29239   0.815E-02    0.557E-03
RMM:  18    -0.775677153690E+02   -0.22982E-04   -0.18271E-04 27430   0.558E-02    0.552E-03
RMM:  19    -0.775677197311E+02   -0.43621E-05   -0.46154E-05 21369   0.396E-02
   1 F= -.77567720E+02 E0= -.77567720E+02  d E =0.000000E+00  mag=     0.0000
