    9    9    1    2
  0.1189678E+02  0.5125646E-09  0.5208239E-09  0.5208239E-09  0.5000000E-15
  1.000000000000000E-004
  CAR 
 unknown system                          
     51    116     40
 
  0.0000000E+00  0.0000000E+00  0.0000000E+00  0.2551020E-02
    1      -44.735510    -44.734729   1.000000   1.000000
    2      -25.814283    -25.817773   1.000000   1.000000
    3      -24.829385    -24.822159   1.000000   1.000000
    4      -24.813437    -24.818647   1.000000   1.000000
    5      -24.273828    -24.255824   1.000000   1.000000
    6      -14.817716    -14.818052   1.000000   1.000000
    7      -14.190595    -14.198058   1.000000   1.000000
    8      -14.160270    -14.132395   1.000000   1.000000
    9      -13.367076    -13.364802   1.000000   1.000000
   10       -8.248511     -8.248847   1.000000   1.000000
   11       -7.773387     -7.771519   1.000000   1.000000
   12       -7.763169     -7.762422   1.000000   1.000000
   13       -7.235792     -7.235004   1.000000   1.000000
   14       -6.753402     -6.745262   1.000000   1.000000
   15       -6.517692     -6.512883   1.000000   1.000000
   16       -6.409057     -6.401426   1.000000   1.000000
   17       -6.297014     -6.292593   1.000000   1.000000
   18       -4.445326     -4.446595   1.000000   1.000000
   19       -4.442415     -4.422716   1.000000   1.000000
   20       -4.293464     -4.284681   1.000000   1.000000
   21       -4.159203     -4.155714   1.000000   1.000000
   22       -1.819720     -1.818839   1.000000   1.000000
   23       -1.686874     -1.679257   1.000000   1.000000
   24       -1.141320     -1.142017   1.000000   1.000000
   25       -0.459557     -0.441911   1.000000   1.000000
   26        1.033461      1.061361   0.000000   0.000000
   27        1.110118      1.120767   0.000000   0.000000
   28        1.149604      1.143664   0.000000   0.000000
   29        1.395758      1.395470   0.000000   0.000000
   30        6.887570      6.884003   0.000000   0.000000
   31        7.045961      7.061167   0.000000   0.000000
   32        8.196301      8.198853   0.000000   0.000000
   33        8.532120      8.528173   0.000000   0.000000
   34        8.778999      8.782270   0.000000   0.000000
   35       11.470595     11.471585   0.000000   0.000000
   36       12.001072     12.002741   0.000000   0.000000
   37       12.088628     12.093347   0.000000   0.000000
   38       12.319668     12.319922   0.000000   0.000000
   39       12.561765     12.566479   0.000000   0.000000
   40       13.133119     13.134770   0.000000   0.000000
 
  0.1250000E+00 -0.1140139E-16 -0.5967104E-14  0.5102041E-02
    1      -44.735507    -44.734726   1.000000   1.000000
    2      -25.811891    -25.815398   1.000000   1.000000
    3      -24.829884    -24.822589   1.000000   1.000000
    4      -24.815932    -24.821143   1.000000   1.000000
    5      -24.273944    -24.255994   1.000000   1.000000
    6      -14.871826    -14.871680   1.000000   1.000000
    7      -14.159333    -14.166819   1.000000   1.000000
    8      -14.135297    -14.107922   1.000000   1.000000
    9      -13.368249    -13.365920   1.000000   1.000000
   10       -8.202283     -8.202881   1.000000   1.000000
   11       -7.793527     -7.791616   1.000000   1.000000
   12       -7.689809     -7.688936   1.000000   1.000000
   13       -7.246281     -7.245121   1.000000   1.000000
   14       -6.795814     -6.789277   1.000000   1.000000
   15       -6.620020     -6.613744   1.000000   1.000000
   16       -6.344357     -6.338526   1.000000   1.000000
   17       -6.308315     -6.302215   1.000000   1.000000
   18       -4.445324     -4.444896   1.000000   1.000000
   19       -4.440723     -4.422905   1.000000   1.000000
   20       -4.290249     -4.281407   1.000000   1.000000
   21       -4.156481     -4.152926   1.000000   1.000000
   22       -1.812805     -1.811897   1.000000   1.000000
   23       -1.658847     -1.651466   1.000000   1.000000
   24       -1.146274     -1.146781   1.000000   1.000000
   25       -0.497078     -0.479627   1.000000   1.000000
   26        1.030613      1.059055   0.000000   0.000000
   27        1.098641      1.106584   0.000000   0.000000
   28        1.155539      1.152004   0.000000   0.000000
   29        1.391913      1.391610   0.000000   0.000000
   30        7.113867      7.110335   0.000000   0.000000
   31        7.139679      7.156644   0.000000   0.000000
   32        7.464683      7.463855   0.000000   0.000000
   33        8.678275      8.675932   0.000000   0.000000
   34        9.099007      9.102507   0.000000   0.000000
   35       11.192502     11.193114   0.000000   0.000000
   36       11.737702     11.742378   0.000000   0.000000
   37       11.823697     11.825891   0.000000   0.000000
   38       12.434499     12.438338   0.000000   0.000000
   39       12.893457     12.891853   0.000000   0.000000
   40       13.214247     13.221758   0.000000   0.000000
 
  0.2500000E+00 -0.3819673E-16  0.2621742E-14  0.5102041E-02
    1      -44.735475    -44.734694   1.000000   1.000000
    2      -25.805995    -25.809545   1.000000   1.000000
    3      -24.831050    -24.827082   1.000000   1.000000
    4      -24.821871    -24.823590   1.000000   1.000000
    5      -24.274338    -24.256511   1.000000   1.000000
    6      -14.997229    -14.996284   1.000000   1.000000
    7      -14.081990    -14.089534   1.000000   1.000000
    8      -14.069611    -14.042886   1.000000   1.000000
    9      -13.376659    -13.374375   1.000000   1.000000
   10       -8.145621     -8.146512   1.000000   1.000000
   11       -7.835582     -7.833665   1.000000   1.000000
   12       -7.466606     -7.466462   1.000000   1.000000
   13       -7.243128     -7.240392   1.000000   1.000000
   14       -6.920889     -6.917129   1.000000   1.000000
   15       -6.767804     -6.760960   1.000000   1.000000
   16       -6.323944     -6.314784   1.000000   1.000000
   17       -6.309368     -6.304928   1.000000   1.000000
   18       -4.444879     -4.439547   1.000000   1.000000
   19       -4.435346     -4.422892   1.000000   1.000000
   20       -4.283027     -4.273989   1.000000   1.000000
   21       -4.150182     -4.146481   1.000000   1.000000
   22       -1.787950     -1.786917   1.000000   1.000000
   23       -1.577502     -1.570863   1.000000   1.000000
   24       -1.154964     -1.155063   1.000000   1.000000
   25       -0.586272     -0.569049   1.000000   1.000000
   26        1.025204      1.055024   0.000000   0.000000
   27        1.082600      1.089817   0.000000   0.000000
   28        1.158534      1.154997   0.000000   0.000000
   29        1.381701      1.381236   0.000000   0.000000
   30        6.332824      6.336847   0.000000   0.000000
   31        7.553999      7.564762   0.000000   0.000000
   32        7.668768      7.665318   0.000000   0.000000
   33        8.903450      8.902759   0.000000   0.000000
   34        9.146131      9.149530   0.000000   0.000000
   35       11.165634     11.166528   0.000000   0.000000
   36       11.216890     11.221026   0.000000   0.000000
   37       11.581953     11.584845   0.000000   0.000000
   38       12.173836     12.178867   0.000000   0.000000
   39       13.024224     13.024767   0.000000   0.000000
   40       13.198960     13.279636   0.000000   0.000000
 
  0.3750000E+00  0.2510032E-16 -0.3336403E-14  0.5102041E-02
    1      -44.735440    -44.734659   1.000000   1.000000
    2      -25.800189    -25.803781   1.000000   1.000000
    3      -24.832306    -24.832964   1.000000   1.000000
    4      -24.827752    -24.824687   1.000000   1.000000
    5      -24.274694    -24.256984   1.000000   1.000000
    6      -15.116325    -15.114886   1.000000   1.000000
    7      -14.002085    -14.009693   1.000000   1.000000
    8      -13.994150    -13.967309   1.000000   1.000000
    9      -13.395473    -13.393687   1.000000   1.000000
   10       -8.121975     -8.122960   1.000000   1.000000
   11       -7.865642     -7.863883   1.000000   1.000000
   12       -7.330282     -7.330407   1.000000   1.000000
   13       -7.088570     -7.084903   1.000000   1.000000
   14       -7.076575     -7.074181   1.000000   1.000000
   15       -6.893106     -6.886141   1.000000   1.000000
   16       -6.328009     -6.324558   1.000000   1.000000
   17       -6.325896     -6.314925   1.000000   1.000000
   18       -4.443878     -4.432578   1.000000   1.000000
   19       -4.428288     -4.422278   1.000000   1.000000
   20       -4.276499     -4.267192   1.000000   1.000000
   21       -4.144283     -4.140448   1.000000   1.000000
   22       -1.752794     -1.751552   1.000000   1.000000
   23       -1.479744     -1.474189   1.000000   1.000000
   24       -1.159712     -1.159468   1.000000   1.000000
   25       -0.673192     -0.655809   1.000000   1.000000
   26        1.021976      1.053374   0.000000   0.000000
   27        1.074288      1.082107   0.000000   0.000000
   28        1.154018      1.149140   0.000000   0.000000
   29        1.369724      1.368877   0.000000   0.000000
   30        5.516892      5.519953   0.000000   0.000000
   31        7.975373      7.986360   0.000000   0.000000
   32        8.210595      8.207347   0.000000   0.000000
   33        8.888430      8.889526   0.000000   0.000000
   34        9.133575      9.136186   0.000000   0.000000
   35       11.031899     11.035150   0.000000   0.000000
   36       11.189692     11.192171   0.000000   0.000000
   37       11.598027     11.600994   0.000000   0.000000
   38       11.932645     11.935946   0.000000   0.000000
   39       12.486822     12.488984   0.000000   0.000000
   40       13.077984     13.064331   0.000000   0.000000
 
  0.5000000E+00 -0.7639346E-16  0.5243485E-14  0.2551020E-02
    1      -44.735426    -44.734645   1.000000   1.000000
    2      -25.797776    -25.801385   1.000000   1.000000
    3      -24.832721    -24.835361   1.000000   1.000000
    4      -24.830148    -24.825039   1.000000   1.000000
    5      -24.274887    -24.257223   1.000000   1.000000
    6      -15.163982    -15.162390   1.000000   1.000000
    7      -13.968194    -13.975830   1.000000   1.000000
    8      -13.958682    -13.931476   1.000000   1.000000
    9      -13.407607    -13.406288   1.000000   1.000000
   10       -8.114017     -8.115047   1.000000   1.000000
   11       -7.873130     -7.871505   1.000000   1.000000
   12       -7.315864     -7.315202   1.000000   1.000000
   13       -7.150212     -7.148056   1.000000   1.000000
   14       -6.970243     -6.968118   1.000000   1.000000
   15       -6.943720     -6.935714   1.000000   1.000000
   16       -6.346136     -6.343058   1.000000   1.000000
   17       -6.323695     -6.312236   1.000000   1.000000
   18       -4.443311     -4.429280   1.000000   1.000000
   19       -4.424933     -4.421858   1.000000   1.000000
   20       -4.273982     -4.264541   1.000000   1.000000
   21       -4.141956     -4.138068   1.000000   1.000000
   22       -1.735351     -1.733998   1.000000   1.000000
   23       -1.435279     -1.430323   1.000000   1.000000
   24       -1.160974     -1.160604   1.000000   1.000000
   25       -0.708244     -0.690645   1.000000   1.000000
   26        1.021383      1.053530   0.000000   0.000000
   27        1.072468      1.080838   0.000000   0.000000
   28        1.150625      1.144882   0.000000   0.000000
   29        1.364140      1.363051   0.000000   0.000000
   30        5.210025      5.212892   0.000000   0.000000
   31        8.268123      8.282540   0.000000   0.000000
   32        8.407617      8.404594   0.000000   0.000000
   33        8.663300      8.660365   0.000000   0.000000
   34        9.203172      9.206843   0.000000   0.000000
   35       11.174297     11.177435   0.000000   0.000000
   36       11.178444     11.180856   0.000000   0.000000
   37       11.575924     11.579237   0.000000   0.000000
   38       11.993963     11.996758   0.000000   0.000000
   39       12.068555     12.071185   0.000000   0.000000
   40       12.912668     12.929261   0.000000   0.000000
 
 -0.1229823E-17  0.1428571E+00 -0.3743145E-14  0.1020408E-01
    1      -44.735526    -44.734745   1.000000   1.000000
    2      -25.803206    -25.806780   1.000000   1.000000
    3      -24.859942    -24.859669   1.000000   1.000000
    4      -24.789393    -24.787534   1.000000   1.000000
    5      -24.283064    -24.265097   1.000000   1.000000
    6      -14.810643    -14.811316   1.000000   1.000000
    7      -14.211298    -14.211090   1.000000   1.000000
    8      -14.144421    -14.123596   1.000000   1.000000
    9      -13.377200    -13.375228   1.000000   1.000000
   10       -8.212463     -8.212842   1.000000   1.000000
   11       -7.759336     -7.757891   1.000000   1.000000
   12       -7.689565     -7.688834   1.000000   1.000000
   13       -7.181907     -7.180863   1.000000   1.000000
   14       -6.778245     -6.769729   1.000000   1.000000
   15       -6.541347     -6.536776   1.000000   1.000000
   16       -6.392766     -6.387570   1.000000   1.000000
   17       -6.309626     -6.303237   1.000000   1.000000
   18       -4.564819     -4.548640   1.000000   1.000000
   19       -4.470169     -4.466913   1.000000   1.000000
   20       -4.321807     -4.314656   1.000000   1.000000
   21       -4.182352     -4.177778   1.000000   1.000000
   22       -1.778279     -1.776930   1.000000   1.000000
   23       -1.612840     -1.606432   1.000000   1.000000
   24       -1.083944     -1.084423   1.000000   1.000000
   25       -0.500704     -0.483657   1.000000   1.000000
   26        0.929047      0.953764   0.000000   0.000000
   27        1.073525      1.082900   0.000000   0.000000
   28        1.151957      1.151245   0.000000   0.000000
   29        1.364104      1.364256   0.000000   0.000000
   30        6.935874      6.932461   0.000000   0.000000
   31        7.031587      7.046812   0.000000   0.000000
   32        8.102593      8.103780   0.000000   0.000000
   33        8.520455      8.517810   0.000000   0.000000
   34        8.944447      8.947648   0.000000   0.000000
   35       11.451191     11.452428   0.000000   0.000000
   36       11.830982     11.835761   0.000000   0.000000
   37       12.053470     12.055433   0.000000   0.000000
   38       12.422954     12.424214   0.000000   0.000000
   39       12.653878     12.656260   0.000000   0.000000
   40       13.244559     13.245596   0.000000   0.000000
 
  0.1250000E+00  0.1428571E+00  0.4831033E-14  0.1020408E-01
    1      -44.735512    -44.734732   1.000000   1.000000
    2      -25.802670    -25.806248   1.000000   1.000000
    3      -24.859747    -24.859373   1.000000   1.000000
    4      -24.789787    -24.788013   1.000000   1.000000
    5      -24.283550    -24.265596   1.000000   1.000000
    6      -14.820372    -14.820805   1.000000   1.000000
    7      -14.223080    -14.223102   1.000000   1.000000
    8      -14.126639    -14.105816   1.000000   1.000000
    9      -13.372818    -13.370823   1.000000   1.000000
   10       -8.201566     -8.202066   1.000000   1.000000
   11       -7.757045     -7.755643   1.000000   1.000000
   12       -7.674325     -7.673522   1.000000   1.000000
   13       -7.215247     -7.213930   1.000000   1.000000
   14       -6.775909     -6.766985   1.000000   1.000000
   15       -6.549145     -6.544928   1.000000   1.000000
   16       -6.377474     -6.372649   1.000000   1.000000
   17       -6.311847     -6.305423   1.000000   1.000000
   18       -4.572613     -4.556572   1.000000   1.000000
   19       -4.461281     -4.458316   1.000000   1.000000
   20       -4.321393     -4.313624   1.000000   1.000000
   21       -4.184416     -4.179946   1.000000   1.000000
   22       -1.765135     -1.763687   1.000000   1.000000
   23       -1.606993     -1.600551   1.000000   1.000000
   24       -1.091834     -1.092296   1.000000   1.000000
   25       -0.508970     -0.491537   1.000000   1.000000
   26        0.938760      0.963334   0.000000   0.000000
   27        1.051911      1.060156   0.000000   0.000000
   28        1.158507      1.158017   0.000000   0.000000
   29        1.364909      1.365322   0.000000   0.000000
   30        6.829537      6.829770   0.000000   0.000000
   31        7.145812      7.157544   0.000000   0.000000
   32        7.888812      7.889976   0.000000   0.000000
   33        8.671593      8.669140   0.000000   0.000000
   34        9.017295      9.020602   0.000000   0.000000
   35       11.407241     11.407984   0.000000   0.000000
   36       11.856681     11.859659   0.000000   0.000000
   37       12.010770     12.015242   0.000000   0.000000
   38       12.519435     12.522099   0.000000   0.000000
   39       12.624211     12.624914   0.000000   0.000000
   40       13.149326     13.148564   0.000000   0.000000
 
  0.2500000E+00  0.1428571E+00 -0.1135566E-14  0.1020408E-01
    1      -44.735489    -44.734708   1.000000   1.000000
    2      -25.798199    -25.801811   1.000000   1.000000
    3      -24.861397    -24.861225   1.000000   1.000000
    4      -24.793299    -24.791190   1.000000   1.000000
    5      -24.284045    -24.266192   1.000000   1.000000
    6      -14.918477    -14.918001   1.000000   1.000000
    7      -14.183744    -14.182905   1.000000   1.000000
    8      -14.060793    -14.041630   1.000000   1.000000
    9      -13.376342    -13.374405   1.000000   1.000000
   10       -8.128689     -8.129658   1.000000   1.000000
   11       -7.771377     -7.769998   1.000000   1.000000
   12       -7.531975     -7.531128   1.000000   1.000000
   13       -7.255623     -7.253080   1.000000   1.000000
   14       -6.851601     -6.845409   1.000000   1.000000
   15       -6.667411     -6.662089   1.000000   1.000000
   16       -6.349422     -6.344975   1.000000   1.000000
   17       -6.312413     -6.304804   1.000000   1.000000
   18       -4.577840     -4.561945   1.000000   1.000000
   19       -4.450724     -4.448093   1.000000   1.000000
   20       -4.316136     -4.307941   1.000000   1.000000
   21       -4.181249     -4.176757   1.000000   1.000000
   22       -1.733426     -1.732105   1.000000   1.000000
   23       -1.555211     -1.549072   1.000000   1.000000
   24       -1.104735     -1.104819   1.000000   1.000000
   25       -0.578723     -0.561216   1.000000   1.000000
   26        0.938886      0.963463   0.000000   0.000000
   27        1.029076      1.037254   0.000000   0.000000
   28        1.161149      1.160461   0.000000   0.000000
   29        1.359017      1.359531   0.000000   0.000000
   30        6.806756      6.811990   0.000000   0.000000
   31        7.108818      7.110447   0.000000   0.000000
   32        7.588211      7.593727   0.000000   0.000000
   33        8.862025      8.860759   0.000000   0.000000
   34        9.304386      9.307924   0.000000   0.000000
   35       11.157405     11.158191   0.000000   0.000000
   36       11.476019     11.480157   0.000000   0.000000
   37       11.669689     11.672785   0.000000   0.000000
   38       12.452700     12.457423   0.000000   0.000000
   39       12.990523     12.998671   0.000000   0.000000
   40       13.154841     13.168941   0.000000   0.000000
 
  0.3750000E+00  0.1428571E+00  0.3485561E-16  0.1020408E-01
    1      -44.735453    -44.734673   1.000000   1.000000
    2      -25.792311    -25.795966   1.000000   1.000000
    3      -24.863949    -24.864185   1.000000   1.000000
    4      -24.797816    -24.795129   1.000000   1.000000
    5      -24.284313    -24.266587   1.000000   1.000000
    6      -15.043865    -15.042705   1.000000   1.000000
    7      -14.106182    -14.105024   1.000000   1.000000
    8      -13.982570    -13.963866   1.000000   1.000000
    9      -13.393872    -13.392431   1.000000   1.000000
   10       -8.090511     -8.091636   1.000000   1.000000
   11       -7.805325     -7.804057   1.000000   1.000000
   12       -7.349405     -7.349335   1.000000   1.000000
   13       -7.169681     -7.165178   1.000000   1.000000
   14       -6.993191     -6.989668   1.000000   1.000000
   15       -6.801917     -6.796409   1.000000   1.000000
   16       -6.354950     -6.345819   1.000000   1.000000
   17       -6.320340     -6.315846   1.000000   1.000000
   18       -4.576855     -4.560983   1.000000   1.000000
   19       -4.443907     -4.441493   1.000000   1.000000
   20       -4.309291     -4.301090   1.000000   1.000000
   21       -4.175084     -4.170446   1.000000   1.000000
   22       -1.693663     -1.692339   1.000000   1.000000
   23       -1.469785     -1.464629   1.000000   1.000000
   24       -1.109976     -1.109645   1.000000   1.000000
   25       -0.667645     -0.649972   1.000000   1.000000
   26        0.930912      0.955691   0.000000   0.000000
   27        1.018628      1.027448   0.000000   0.000000
   28        1.157394      1.156602   0.000000   0.000000
   29        1.347990      1.348235   0.000000   0.000000
   30        5.879604      5.882865   0.000000   0.000000
   31        7.592792      7.596891   0.000000   0.000000
   32        8.092306      8.096709   0.000000   0.000000
   33        8.958838      8.959172   0.000000   0.000000
   34        9.257603      9.260558   0.000000   0.000000
   35       11.029220     11.032161   0.000000   0.000000
   36       11.252682     11.255493   0.000000   0.000000
   37       11.628099     11.630593   0.000000   0.000000
   38       12.185726     12.188477   0.000000   0.000000
   39       12.681719     12.684512   0.000000   0.000000
   40       13.138659     13.145456   0.000000   0.000000
 
  0.5000000E+00  0.1428571E+00  0.1495136E-14  0.1020408E-01
    1      -44.735444    -44.734664   1.000000   1.000000
    2      -25.788634    -25.792316   1.000000   1.000000
    3      -24.866172    -24.866768   1.000000   1.000000
    4      -24.800584    -24.797434   1.000000   1.000000
    5      -24.284256    -24.266607   1.000000   1.000000
    6      -15.124417    -15.122979   1.000000   1.000000
    7      -14.034485    -14.033708   1.000000   1.000000
    8      -13.940656    -13.921174   1.000000   1.000000
    9      -13.412492    -13.411711   1.000000   1.000000
   10       -8.079633     -8.080776   1.000000   1.000000
   11       -7.837088     -7.835859   1.000000   1.000000
   12       -7.301611     -7.300396   1.000000   1.000000
   13       -7.116504     -7.113952   1.000000   1.000000
   14       -6.976504     -6.971929   1.000000   1.000000
   15       -6.896438     -6.891781   1.000000   1.000000
   16       -6.362860     -6.353158   1.000000   1.000000
   17       -6.327951     -6.323318   1.000000   1.000000
   18       -4.570498     -4.554521   1.000000   1.000000
   19       -4.444853     -4.442455   1.000000   1.000000
   20       -4.305250     -4.297404   1.000000   1.000000
   21       -4.169652     -4.164844   1.000000   1.000000
   22       -1.671213     -1.669873   1.000000   1.000000
   23       -1.406342     -1.402230   1.000000   1.000000
   24       -1.104497     -1.103835   1.000000   1.000000
   25       -0.722858     -0.705026   1.000000   1.000000
   26        0.920246      0.945714   0.000000   0.000000
   27        1.025558      1.034793   0.000000   0.000000
   28        1.150655      1.150024   0.000000   0.000000
   29        1.337969      1.337689   0.000000   0.000000
   30        5.343951      5.346922   0.000000   0.000000
   31        8.116237      8.122254   0.000000   0.000000
   32        8.350966      8.356490   0.000000   0.000000
   33        8.728822      8.726197   0.000000   0.000000
   34        9.321831      9.325274   0.000000   0.000000
   35       11.039641     11.043169   0.000000   0.000000
   36       11.239342     11.241622   0.000000   0.000000
   37       11.699770     11.702524   0.000000   0.000000
   38       11.842476     11.844260   0.000000   0.000000
   39       12.436933     12.441898   0.000000   0.000000
   40       13.055898     13.080444   0.000000   0.000000
 
 -0.3750000E+00  0.1428571E+00 -0.2443059E-14  0.1020408E-01
    1      -44.735452    -44.734671   1.000000   1.000000
    2      -25.789082    -25.792760   1.000000   1.000000
    3      -24.866515    -24.867182   1.000000   1.000000
    4      -24.800193    -24.796991   1.000000   1.000000
    5      -24.283830    -24.266164   1.000000   1.000000
    6      -15.117038    -15.115668   1.000000   1.000000
    7      -14.024682    -14.022192   1.000000   1.000000
    8      -13.959994    -13.942500   1.000000   1.000000
    9      -13.410277    -13.409183   1.000000   1.000000
   10       -8.087919     -8.088936   1.000000   1.000000
   11       -7.856268     -7.854907   1.000000   1.000000
   12       -7.271190     -7.270584   1.000000   1.000000
   13       -7.110496     -7.108233   1.000000   1.000000
   14       -6.989564     -6.985240   1.000000   1.000000
   15       -6.904817     -6.899464   1.000000   1.000000
   16       -6.360393     -6.349677   1.000000   1.000000
   17       -6.319303     -6.315392   1.000000   1.000000
   18       -4.562966     -4.546820   1.000000   1.000000
   19       -4.453699     -4.451120   1.000000   1.000000
   20       -4.306257     -4.298930   1.000000   1.000000
   21       -4.167737     -4.162847   1.000000   1.000000
   22       -1.687252     -1.686078   1.000000   1.000000
   23       -1.415149     -1.410953   1.000000   1.000000
   24       -1.095917     -1.095099   1.000000   1.000000
   25       -0.714804     -0.697463   1.000000   1.000000
   26        0.911982      0.937853   0.000000   0.000000
   27        1.045216      1.054963   0.000000   0.000000
   28        1.145990      1.145349   0.000000   0.000000
   29        1.336994      1.336425   0.000000   0.000000
   30        5.387570      5.390615   0.000000   0.000000
   31        8.001874      8.011602   0.000000   0.000000
   32        8.421908      8.420292   0.000000   0.000000
   33        8.827343      8.827660   0.000000   0.000000
   34        9.327128      9.330352   0.000000   0.000000
   35       10.715227     10.718295   0.000000   0.000000
   36       11.336639     11.339488   0.000000   0.000000
   37       11.642216     11.645229   0.000000   0.000000
   38       11.923296     11.925594   0.000000   0.000000
   39       12.496205     12.500360   0.000000   0.000000
   40       13.215007     13.261127   0.000000   0.000000
 
 -0.2500000E+00  0.1428571E+00 -0.9400028E-15  0.1020408E-01
    1      -44.735483    -44.734702   1.000000   1.000000
    2      -25.793522    -25.797167   1.000000   1.000000
    3      -24.864667    -24.865097   1.000000   1.000000
    4      -24.796788    -24.793955   1.000000   1.000000
    5      -24.283273    -24.265509   1.000000   1.000000
    6      -15.024932    -15.023998   1.000000   1.000000
    7      -14.085656    -14.079716   1.000000   1.000000
    8      -14.021575    -14.007856   1.000000   1.000000
    9      -13.394897    -13.393106   1.000000   1.000000
   10       -8.107767     -8.108621   1.000000   1.000000
   11       -7.841401     -7.839876   1.000000   1.000000
   12       -7.327504     -7.328120   1.000000   1.000000
   13       -7.147921     -7.143862   1.000000   1.000000
   14       -6.991328     -6.988525   1.000000   1.000000
   15       -6.819553     -6.813117   1.000000   1.000000
   16       -6.355406     -6.345768   1.000000   1.000000
   17       -6.297691     -6.293076   1.000000   1.000000
   18       -4.558600     -4.542353   1.000000   1.000000
   19       -4.465361     -4.462424   1.000000   1.000000
   20       -4.311187     -4.304303   1.000000   1.000000
   21       -4.170383     -4.165533   1.000000   1.000000
   22       -1.730029     -1.729038   1.000000   1.000000
   23       -1.489551     -1.484308   1.000000   1.000000
   24       -1.090309     -1.089771   1.000000   1.000000
   25       -0.647860     -0.631236   1.000000   1.000000
   26        0.909904      0.935513   0.000000   0.000000
   27        1.066974      1.077610   0.000000   0.000000
   28        1.144797      1.143633   0.000000   0.000000
   29        1.345928      1.345509   0.000000   0.000000
   30        6.000998      6.004665   0.000000   0.000000
   31        7.559191      7.567615   0.000000   0.000000
   32        8.129831      8.127869   0.000000   0.000000
   33        8.937687      8.938306   0.000000   0.000000
   34        9.255979      9.258962   0.000000   0.000000
   35       10.682908     10.686797   0.000000   0.000000
   36       11.328794     11.330415   0.000000   0.000000
   37       11.649742     11.652911   0.000000   0.000000
   38       12.091498     12.095336   0.000000   0.000000
   39       12.968537     12.969416   0.000000   0.000000
   40       13.446530     13.466589   0.000000   0.000000
 
 -0.1250000E+00  0.1428571E+00  0.1807042E-15  0.1020408E-01
    1      -44.735502    -44.734721   1.000000   1.000000
    2      -25.799354    -25.802955   1.000000   1.000000
    3      -24.861999    -24.862036   1.000000   1.000000
    4      -24.792375    -24.790100   1.000000   1.000000
    5      -24.282992    -24.265102   1.000000   1.000000
    6      -14.897211    -14.897110   1.000000   1.000000
    7      -14.159693    -14.155776   1.000000   1.000000
    8      -14.100048    -14.083734   1.000000   1.000000
    9      -13.383673    -13.381668   1.000000   1.000000
   10       -8.147950     -8.148636   1.000000   1.000000
   11       -7.794139     -7.792586   1.000000   1.000000
   12       -7.564317     -7.563538   1.000000   1.000000
   13       -7.176967     -7.175288   1.000000   1.000000
   14       -6.857488     -6.852212   1.000000   1.000000
   15       -6.676721     -6.670336   1.000000   1.000000
   16       -6.355527     -6.350225   1.000000   1.000000
   17       -6.299838     -6.292519   1.000000   1.000000
   18       -4.559313     -4.543081   1.000000   1.000000
   19       -4.472207     -4.468938   1.000000   1.000000