    8    8    1    2
  0.1013485E+02  0.4977154E-09  0.4977154E-09  0.4977154E-09  0.5000000E-15
  1.000000000000000E-004
  CAR 
 unknown system                          
     36    169     32
 
  0.0000000E+00  0.0000000E+00  0.0000000E+00  0.1562500E-02
    1      -39.248384    -39.248142   1.000000   1.000000
    2      -39.230503    -39.230261   1.000000   1.000000
    3      -14.069147    -14.069168   1.000000   1.000000
    4       -9.846608     -9.846638   1.000000   1.000000
    5       -9.846607     -9.846638   1.000000   1.000000
    6       -9.603661     -9.603691   1.000000   1.000000
    7       -7.647709     -7.647732   1.000000   1.000000
    8       -2.598511     -2.598532   1.000000   1.000000
    9       -2.598511     -2.598532   1.000000   1.000000
   10       -1.912718     -1.912740   1.000000   1.000000
   11        0.628585      0.628565   1.000000   1.000000
   12        1.272169      1.272148   1.000000   1.000000
   13        1.997039      1.997027   1.000000   1.000000
   14        2.998999      2.998973   1.000000   1.000000
   15        2.998999      2.998973   1.000000   1.000000
   16        3.259414      3.259387   1.000000   1.000000
   17        3.259414      3.259387   1.000000   1.000000
   18        3.425684      3.425655   1.000000   1.000000
   19        7.996890      7.996879   0.000000   0.000000
   20        9.586245      9.586235   0.000000   0.000000
   21       12.078893     12.078874   0.000000   0.000000
   22       12.078893     12.078875   0.000000   0.000000
   23       12.756882     12.756868   0.000000   0.000000
   24       12.756882     12.756868   0.000000   0.000000
   25       13.100770     13.100755   0.000000   0.000000
   26       13.810156     13.810146   0.000000   0.000000
   27       13.840739     13.840731   0.000000   0.000000
   28       14.719031     14.719004   0.000000   0.000000
   29       16.208373     16.208348   0.000000   0.000000
   30       17.030577     17.030559   0.000000   0.000000
   31       17.030581     17.030567   0.000000   0.000000
   32       17.273905     17.274949   0.000000   0.000000
 
  0.1250000E+00  0.3027613E-17 -0.3027613E-17  0.6250000E-02
    1      -39.247876    -39.247635   1.000000   1.000000
    2      -39.230904    -39.230662   1.000000   1.000000
    3      -13.996469    -13.996490   1.000000   1.000000
    4      -10.135070    -10.135098   1.000000   1.000000
    5       -9.865300     -9.865330   1.000000   1.000000
    6       -9.678553     -9.678583   1.000000   1.000000
    7       -7.291434     -7.291458   1.000000   1.000000
    8       -2.637311     -2.637333   1.000000   1.000000
    9       -2.577965     -2.577987   1.000000   1.000000
   10       -1.852019     -1.852042   1.000000   1.000000
   11        0.571716      0.571696   1.000000   1.000000
   12        1.406232      1.406210   1.000000   1.000000
   13        1.985975      1.985961   1.000000   1.000000
   14        2.796193      2.796167   1.000000   1.000000
   15        2.997097      2.997070   1.000000   1.000000
   16        3.250265      3.250241   1.000000   1.000000
   17        3.272330      3.272303   1.000000   1.000000
   18        3.414588      3.414561   1.000000   1.000000
   19        8.299397      8.299385   0.000000  -0.000000
   20        9.853785      9.853773   0.000000   0.000000
   21       11.495924     11.495909   0.000000   0.000000
   22       11.783117     11.783101   0.000000   0.000000
   23       12.431219     12.431203   0.000000   0.000000
   24       12.908003     12.907989   0.000000   0.000000
   25       13.383275     13.383262   0.000000   0.000000
   26       13.974944     13.974930   0.000000   0.000000
   27       14.392357     14.392343   0.000000   0.000000
   28       14.713513     14.713488   0.000000   0.000000
   29       16.013378     16.013357   0.000000   0.000000
   30       16.520979     16.520975   0.000000   0.000000
   31       16.765817     16.765810   0.000000   0.000000
   32       17.524984     17.526044   0.000000   0.000000
 
  0.2500000E+00  0.6055226E-17 -0.6055226E-17  0.6250000E-02
    1      -39.246455    -39.246213   1.000000   1.000000
    2      -39.232232    -39.231991   1.000000   1.000000
    3      -13.792551    -13.792572   1.000000   1.000000
    4      -10.786331    -10.786358   1.000000   1.000000
    5       -9.899080     -9.899110   1.000000   1.000000
    6       -9.733916     -9.733946   1.000000   1.000000
    7       -6.627125     -6.627150   1.000000   1.000000
    8       -2.755262     -2.755285   1.000000   1.000000
    9       -2.461053     -2.461076   1.000000   1.000000
   10       -1.730114     -1.730138   1.000000   1.000000
   11        0.515781      0.515762   1.000000   1.000000
   12        1.571643      1.571617   1.000000   1.000000
   13        1.985407      1.985390   1.000000   1.000000
   14        2.162199      2.162179   1.000000   1.000000
   15        2.862027      2.862001   1.000000   1.000000
   16        3.195928      3.195902   1.000000   1.000000
   17        3.388670      3.388647   1.000000   1.000000
   18        3.756086      3.756058   1.000000   1.000000
   19        9.103893      9.103880   0.000000   0.000000
   20       10.348109     10.348093   0.000000   0.000000
   21       10.667492     10.667479   0.000000   0.000000
   22       11.320427     11.320414   0.000000   0.000000
   23       11.956984     11.956969   0.000000   0.000000
   24       13.310282     13.310267   0.000000   0.000000
   25       13.590543     13.590525   0.000000   0.000000
   26       14.192104     14.192081   0.000000   0.000000
   27       14.465984     14.465964   0.000000   0.000000
   28       15.077828     15.077808   0.000000   0.000000
   29       15.543007     15.543000   0.000000   0.000000
   30       15.985369     15.985360   0.000000   0.000000
   31       16.484397     16.484441   0.000000   0.000000
   32       17.706265     17.706256   0.000000   0.000000
 
  0.3750000E+00  0.2201676E-16 -0.2201676E-16  0.6250000E-02
    1      -39.244692    -39.244451   1.000000   1.000000
    2      -39.233919    -39.233678   1.000000   1.000000
    3      -13.519484    -13.519506   1.000000   1.000000
    4      -11.393709    -11.393734   1.000000   1.000000
    5       -9.916789     -9.916819   1.000000   1.000000
    6       -9.790440     -9.790469   1.000000   1.000000
    7       -6.065593     -6.065617   1.000000   1.000000
    8       -2.855721     -2.855746   1.000000   1.000000
    9       -2.259574     -2.259598   1.000000   1.000000
   10       -1.693166     -1.693191   1.000000   1.000000
   11        0.594164      0.594145   1.000000   1.000000
   12        1.158971      1.158950   1.000000   1.000000
   13        1.773917      1.773898   1.000000   1.000000
   14        2.212788      2.212765   1.000000   1.000000
   15        2.718058      2.718034   1.000000   1.000000
   16        3.077862      3.077839   1.000000   1.000000
   17        3.642079      3.642054   1.000000   1.000000
   18        4.091060      4.091031   1.000000   1.000000
   19        9.898026      9.898015   0.000000   0.000000
   20       10.221609     10.221597   0.000000   0.000000
   21       10.766792     10.766775   0.000000   0.000000
   22       11.191685     11.191673   0.000000   0.000000
   23       11.592424     11.592409   0.000000   0.000000
   24       13.370587     13.370564   0.000000   0.000000
   25       13.686726     13.686709   0.000000   0.000000
   26       13.861614     13.861593   0.000000   0.000000
   27       14.325372     14.325352   0.000000   0.000000
   28       14.717835     14.717828   0.000000   0.000000
   29       15.337578     15.337571   0.000000   0.000000
   30       16.237251     16.237262   0.000000   0.000000
   31       16.472978     16.473038   0.000000   0.000000
   32       17.539337     17.538946   0.000000   0.000000
 
  0.5000000E+00  0.1211045E-16 -0.1211045E-16  0.6250000E-02
    1      -39.243806    -39.243564   1.000000   1.000000
    2      -39.234848    -39.234607   1.000000   1.000000
    3      -13.365022    -13.365044   1.000000   1.000000
    4      -11.667052    -11.667076   1.000000   1.000000
    5       -9.916700     -9.916730   1.000000   1.000000
    6       -9.820564     -9.820593   1.000000   1.000000
    7       -5.845115     -5.845140   1.000000   1.000000
    8       -2.886642     -2.886669   1.000000   1.000000
    9       -2.123763     -2.123789   1.000000   1.000000
   10       -1.735958     -1.735982   1.000000   1.000000
   11        0.656569      0.656553   1.000000   1.000000
   12        0.941803      0.941780   1.000000   1.000000
   13        1.583839      1.583822   1.000000   1.000000
   14        2.389213      2.389187   1.000000   1.000000
   15        2.660183      2.660159   1.000000   1.000000
   16        2.991318      2.991299   1.000000   1.000000
   17        3.779696      3.779670   1.000000   1.000000
   18        4.211122      4.211092   1.000000   1.000000
   19        9.709319      9.709307   0.000000   0.000000
   20       10.692427     10.692418   0.000000   0.000000
   21       10.968245     10.968228   0.000000   0.000000
   22       11.128578     11.128570   0.000000   0.000000
   23       11.715276     11.715258   0.000000   0.000000
   24       13.020524     13.020491   0.000000   0.000000
   25       13.303439     13.303442   0.000000   0.000000
   26       13.697086     13.697067   0.000000   0.000000
   27       14.476410     14.476405   0.000000   0.000000
   28       14.486119     14.486098   0.000000   0.000000
   29       15.720838     15.720835   0.000000   0.000000
   30       15.929457     15.929376   0.000000   0.000000
   31       16.650675     16.650698   0.000000   0.000000
   32       17.279162     17.278346   0.000000   0.000000
 
  0.1250000E+00  0.1250000E+00  0.1981262E-16  0.3125000E-02
    1      -39.247031    -39.246789   1.000000   1.000000
    2      -39.231704    -39.231462   1.000000   1.000000
    3      -13.880135    -13.880156   1.000000   1.000000
    4      -10.513979    -10.514006   1.000000   1.000000
    5       -9.899364     -9.899393   1.000000   1.000000
    6       -9.753219     -9.753249   1.000000   1.000000
    7       -6.833042     -6.833067   1.000000   1.000000
    8       -2.758430     -2.758452   1.000000   1.000000
    9       -2.377163     -2.377186   1.000000   1.000000
   10       -1.860389     -1.860413   1.000000   1.000000
   11        0.582643      0.582624   1.000000   1.000000
   12        1.545945      1.545921   1.000000   1.000000
   13        1.922773      1.922758   1.000000   1.000000
   14        2.394730      2.394706   1.000000   1.000000
   15        2.879202      2.879175   1.000000   1.000000
   16        3.252206      3.252180   1.000000   1.000000
   17        3.426745      3.426719   1.000000   1.000000
   18        3.481254      3.481229   1.000000   1.000000
   19        8.754305      8.754293   0.000000  -0.000000
   20       10.097862     10.097850   0.000000   0.000000
   21       11.186384     11.186368   0.000000   0.000000
   22       11.203838     11.203823   0.000000   0.000000
   23       12.251938     12.251923   0.000000   0.000000
   24       13.032923     13.032908   0.000000   0.000000
   25       13.474046     13.474034   0.000000   0.000000
   26       13.944621     13.944601   0.000000   0.000000
   27       14.825120     14.825096   0.000000   0.000000
   28       14.975808     14.975789   0.000000   0.000000
   29       15.941705     15.941690   0.000000   0.000000
   30       16.083740     16.083741   0.000000   0.000000
   31       16.709685     16.709670   0.000000   0.000000
   32       17.358835     17.358315   0.000000   0.000000
 
  0.2500000E+00  0.1250000E+00 -0.8130337E-16  0.6250000E-02
    1      -39.245443    -39.245202   1.000000   1.000000
    2      -39.233211    -39.232970   1.000000   1.000000
    3      -13.643141    -13.643163   1.000000   1.000000
    4      -11.117828    -11.117854   1.000000   1.000000
    5       -9.939727     -9.939756   1.000000   1.000000
    6       -9.797122     -9.797151   1.000000   1.000000
    7       -6.223352     -6.223378   1.000000   1.000000
    8       -2.921129     -2.921152   1.000000   1.000000
    9       -2.193655     -2.193679   1.000000   1.000000
   10       -1.768937     -1.768962   1.000000   1.000000
   11        0.626186      0.626166   1.000000   1.000000
   12        1.340864      1.340842   1.000000   1.000000
   13        1.863064      1.863046   1.000000   1.000000
   14        2.102813      2.102791   1.000000   1.000000
   15        2.749943      2.749919   1.000000   1.000000
   16        3.243024      3.242998   1.000000   1.000000
   17        3.565238      3.565213   1.000000   1.000000
   18        3.816620      3.816593   1.000000   1.000000
   19        9.563567      9.563556   0.000000   0.000000
   20       10.158458     10.158447   0.000000   0.000000
   21       10.578450     10.578436   0.000000   0.000000
   22       11.140702     11.140685   0.000000   0.000000
   23       12.005571     12.005556   0.000000   0.000000
   24       13.053764     13.053746   0.000000   0.000000
   25       13.674687     13.674675   0.000000   0.000000
   26       14.076196     14.076174   0.000000   0.000000
   27       14.698768     14.698744   0.000000   0.000000
   28       15.134507     15.134488   0.000000   0.000000
   29       15.325353     15.325347   0.000000   0.000000
   30       16.089644     16.089643   0.000000   0.000000
   31       16.455038     16.455034   0.000000   0.000000
   32       17.486753     17.496459   0.000000   0.000000
 
  0.3750000E+00  0.1250000E+00 -0.1211045E-16  0.1250000E-01
    1      -39.243783    -39.243542   1.000000   1.000000
    2      -39.234816    -39.234574   1.000000   1.000000
    3      -13.373546    -13.373568   1.000000   1.000000
    4      -11.625430    -11.625455   1.000000   1.000000
    5       -9.955172     -9.955201   1.000000   1.000000
    6       -9.838223     -9.838252   1.000000   1.000000
    7       -5.774352     -5.774378   1.000000   1.000000
    8       -3.064400     -3.064426   1.000000   1.000000
    9       -2.033566     -2.033592   1.000000   1.000000
   10       -1.721991     -1.722015   1.000000   1.000000
   11        0.684541      0.684524   1.000000   1.000000
   12        0.938665      0.938644   1.000000   1.000000
   13        1.656771      1.656752   1.000000   1.000000
   14        2.281209      2.281185   1.000000   1.000000
   15        2.712099      2.712076   1.000000   1.000000
   16        3.190574      3.190550   1.000000   1.000000
   17        3.723863      3.723837   1.000000   1.000000
   18        4.078580      4.078551   1.000000   1.000000
   19        9.791808      9.791796   0.000000   0.000000
   20       10.411330     10.411319   0.000000   0.000000
   21       10.611244     10.611234   0.000000   0.000000
   22       11.069668     11.069653   0.000000   0.000000
   23       12.067488     12.067470   0.000000   0.000000
   24       13.080772     13.080749   0.000000   0.000000
   25       13.622796     13.622782   0.000000   0.000000
   26       13.732517     13.732499   0.000000   0.000000
   27       14.464749     14.464730   0.000000   0.000000
   28       14.607225     14.607206   0.000000   0.000000
   29       15.387039     15.387026   0.000000   0.000000
   30       15.854672     15.854663   0.000000   0.000000
   31       16.664409     16.664576   0.000000   0.000000
   32       17.609502     17.611216   0.000000   0.000000
 
  0.5000000E+00  0.1250000E+00  0.4953156E-16  0.1250000E-01
    1      -39.243436    -39.243195   1.000000   1.000000
    2      -39.235180    -39.234938   1.000000   1.000000
    3      -13.310015    -13.310037   1.000000   1.000000
    4      -11.725143    -11.725167   1.000000   1.000000
    5       -9.959904     -9.959932   1.000000   1.000000
    6       -9.834032     -9.834061   1.000000   1.000000
    7       -5.715598     -5.715623   1.000000   1.000000
    8       -3.141662     -3.141689   1.000000   1.000000
    9       -2.052960     -2.052985   1.000000   1.000000
   10       -1.626343     -1.626368   1.000000   1.000000
   11        0.520013      0.519996   1.000000   1.000000
   12        0.966240      0.966219   1.000000   1.000000
   13        1.685891      1.685872   1.000000   1.000000
   14        2.434582      2.434555   1.000000   1.000000
   15        2.722556      2.722533   1.000000   1.000000
   16        3.113043      3.113023   1.000000   1.000000
   17        3.738103      3.738077   1.000000   1.000000
   18        4.131944      4.131915   1.000000   1.000000
   19        9.670842      9.670831   0.000000   0.000000
   20       10.539290     10.539278   0.000000   0.000000
   21       10.753142     10.753128   0.000000   0.000000
   22       11.324884     11.324875   0.000000   0.000000
   23       12.068422     12.068399   0.000000   0.000000
   24       12.956242     12.956217   0.000000   0.000000
   25       13.420232     13.420219   0.000000   0.000000
   26       13.586487     13.586474   0.000000   0.000000
   27       14.205586     14.205564   0.000000   0.000000
   28       14.772970     14.772944   0.000000   0.000000
   29       15.379524     15.379487   0.000000   0.000000
   30       15.909030     15.909034   0.000000   0.000000
   31       16.692431     16.692512   0.000000   0.000000
   32       17.432292     17.433681   0.000000   0.000000
 
 -0.3750000E+00  0.1250000E+00  0.3192308E-16  0.6250000E-02
    1      -39.244806    -39.244564   1.000000   1.000000
    2      -39.233818    -39.233576   1.000000   1.000000
    3      -13.537897    -13.537919   1.000000   1.000000
    4      -11.325871    -11.325897   1.000000   1.000000
    5       -9.951587     -9.951616   1.000000   1.000000
    6       -9.779572     -9.779601   1.000000   1.000000
    7       -6.088101     -6.088127   1.000000   1.000000
    8       -3.121166     -3.121191   1.000000   1.000000
    9       -2.208672     -2.208696   1.000000   1.000000
   10       -1.539572     -1.539597   1.000000   1.000000
   11        0.373965      0.373947   1.000000   1.000000
   12        1.276776      1.276754   1.000000   1.000000
   13        1.988931      1.988910   1.000000   1.000000
   14        2.302879      2.302855   1.000000   1.000000
   15        2.829691      2.829666   1.000000   1.000000
   16        3.088506      3.088484   1.000000   1.000000
   17        3.568701      3.568678   1.000000   1.000000
   18        3.973713      3.973684   1.000000   1.000000
   19        9.716930      9.716920   0.000000   0.000000
   20       10.176442     10.176426   0.000000   0.000000
   21       10.753578     10.753560   0.000000   0.000000
   22       11.427239     11.427227   0.000000   0.000000
   23       11.866706     11.866694   0.000000   0.000000
   24       13.062165     13.062147   0.000000   0.000000
   25       13.494288     13.494270   0.000000   0.000000
   26       13.910251     13.910234   0.000000   0.000000
   27       14.547244     14.547226   0.000000   0.000000
   28       14.880862     14.880843   0.000000   0.000000
   29       15.210401     15.210382   0.000000   0.000000
   30       16.117563     16.117569   0.000000   0.000000
   31       16.522837     16.522798   0.000000   0.000000
   32       17.496119     17.498218   0.000000   0.000000
 
 -0.2500000E+00  0.1250000E+00  0.3027613E-17  0.6250000E-02
    1      -39.246522    -39.246280   1.000000   1.000000
    2      -39.232151    -39.231909   1.000000   1.000000
    3      -13.802964    -13.802985   1.000000   1.000000
    4      -10.734866    -10.734893   1.000000   1.000000
    5       -9.915656     -9.915685   1.000000   1.000000
    6       -9.710953     -9.710982   1.000000   1.000000
    7       -6.691966     -6.691991   1.000000   1.000000
    8       -3.009562     -3.009584   1.000000   1.000000
    9       -2.361060     -2.361083   1.000000   1.000000
   10       -1.597070     -1.597095   1.000000   1.000000
   11        0.341145      0.341127   1.000000   1.000000
   12        1.621479      1.621453   1.000000   1.000000
   13        2.130575      2.130557   1.000000   1.000000
   14        2.321602      2.321582   1.000000   1.000000
   15        2.958217      2.958190   1.000000   1.000000
   16        3.119249      3.119224   1.000000   1.000000
   17        3.405988      3.405965   1.000000   1.000000
   18        3.653385      3.653359   1.000000   1.000000
   19        8.963086      8.963074   0.000000   0.000000
   20       10.283863     10.283846   0.000000   0.000000
   21       10.936926     10.936911   0.000000   0.000000
   22       11.582546     11.582531   0.000000   0.000000
   23       12.107419     12.107408   0.000000   0.000000
   24       12.719360     12.719346   0.000000   0.000000
   25       13.658374     13.658354   0.000000   0.000000
   26       14.005611     14.005595   0.000000   0.000000
   27       14.841144     14.841123   0.000000   0.000000
   28       15.015880     15.015858   0.000000   0.000000
   29       15.598807     15.598799   0.000000   0.000000
   30       15.706540     15.706533   0.000000   0.000000
   31       16.646993     16.646975   0.000000   0.000000
   32       17.621505     17.621850   0.000000   0.000000
 
 -0.1250000E+00  0.1250000E+00 -0.2021002E-16  0.3125000E-02
    1      -39.247690    -39.247448   1.000000   1.000000
    2      -39.231081    -39.230840   1.000000   1.000000
    3      -13.969063    -13.969084   1.000000   1.000000
    4      -10.245827    -10.245855   1.000000   1.000000
    5       -9.875767     -9.875797   1.000000   1.000000
    6       -9.646529     -9.646558   1.000000   1.000000
    7       -7.223206     -7.223230   1.000000   1.000000
    8       -2.835078     -2.835100   1.000000   1.000000
    9       -2.480834     -2.480856   1.000000   1.000000
   10       -1.738307     -1.738331   1.000000   1.000000
   11        0.461891      0.461872   1.000000   1.000000
   12        1.462436      1.462412   1.000000   1.000000
   13        2.070718      2.070703   1.000000   1.000000
   14        2.762944      2.762919   1.000000   1.000000
   15        3.013804      3.013776   1.000000   1.000000
   16        3.206704      3.206678   1.000000   1.000000
   17        3.334554      3.334529   1.000000   1.000000
   18        3.397382      3.397358   1.000000   1.000000
   19        8.376117      8.376105   0.000000   0.000000
   20        9.947227      9.947214   0.000000   0.000000
   21       11.572988     11.572973   0.000000   0.000000
   22       11.790872     11.790853   0.000000   0.000000
   23       12.312114     12.312101   0.000000   0.000000
   24       12.638867     12.638855   0.000000   0.000000
   25       13.668139     13.668121   0.000000   0.000000
   26       13.981429     13.981411   0.000000   0.000000
   27       14.418195     14.418185   0.000000   0.000000
   28       14.729372     14.729352   0.000000   0.000000
   29       15.825435     15.825416   0.000000   0.000000
   30       16.257093     16.257089   0.000000   0.000000
   31       16.935747     16.935733   0.000000   0.000000
   32       17.450433     17.449298   0.000000   0.000000
 
  0.2500000E+00  0.2500000E+00  0.3962525E-16  0.6250000E-02
    1      -39.243782    -39.243540   1.000000   1.000000
    2      -39.234825    -39.234583   1.000000   1.000000
    3      -13.381886    -13.381908   1.000000   1.000000
    4      -11.581852    -11.581876   1.000000   1.000000
    5      -10.003710    -10.003738   1.000000   1.000000
    6       -9.847684     -9.847712   1.000000   1.000000
    7       -5.699555     -5.699581   1.000000   1.000000
    8       -3.222478     -3.222503   1.000000   1.000000
    9       -1.967884     -1.967908   1.000000   1.000000
   10       -1.703925     -1.703950   1.000000   1.000000
   11        0.786216      0.786196   1.000000   1.000000
   12        0.834757      0.834741   1.000000   1.000000
   13        1.704376      1.704356   1.000000   1.000000
   14        2.274059      2.274032   1.000000   1.000000
   15        2.826210      2.826188   1.000000   1.000000
   16        3.289885      3.289859   1.000000   1.000000
   17        3.706190      3.706164   1.000000   1.000000
   18        3.893319      3.893293   1.000000   1.000000
   19        9.864358      9.864350   0.000000   0.000000
   20       10.089908     10.089899   0.000000   0.000000
   21       10.521545     10.521532   0.000000   0.000000
   22       10.993826     10.993808   0.000000   0.000000
   23       12.531698     12.531684   0.000000   0.000000
   24       12.672867     12.672846   0.000000   0.000000
   25       13.615450     13.615439   0.000000   0.000000
   26       14.155913     14.155890   0.000000   0.000000
   27       14.545256     14.545239   0.000000   0.000000
   28       14.881006     14.880992   0.000000   0.000000
   29       15.248344     15.248320   0.000000   0.000000
   30       15.615093     15.615075   0.000000   0.000000
   31       16.709012     16.708992   0.000000   0.000000
   32       17.399025     17.417206   0.000000   0.000000
 
  0.3750000E+00  0.2500000E+00 -0.5979593E-17  0.6250000E-02
    1      -39.242260    -39.242019   1.000000   1.000000
    2      -39.236319    -39.236077   1.000000   1.000000
    3      -13.117011    -13.117034   1.000000   1.000000
    4      -11.964353    -11.964377   1.000000   1.000000
    5      -10.021737    -10.021765   1.000000   1.000000
    6       -9.890374     -9.890403   1.000000   1.000000
    7       -5.324182     -5.324207   1.000000   1.000000
    8       -3.545371     -3.545398   1.000000   1.000000
    9       -1.834120     -1.834144   1.000000   1.000000
   10       -1.626200     -1.626225   1.000000   1.000000
   11        0.519438      0.519423   1.000000   1.000000
   12        1.002495      1.002473   1.000000   1.000000
   13        1.521404      1.521385   1.000000   1.000000
   14        2.341428      2.341401   1.000000   1.000000
   15        3.002316      3.002292   1.000000   1.000000
   16        3.348958      3.348933   1.000000   1.000000
   17        3.712939      3.712914   1.000000   1.000000
   18        3.983812      3.983784   1.000000   1.000000
   19        9.681401      9.681391   0.000000   0.000000
   20       10.377898     10.377884   0.000000   0.000000
   21       10.696064     10.696051   0.000000   0.000000
   22       10.986883     10.986876   0.000000   0.000000
   23       12.669397     12.669375   0.000000   0.000000
   24       13.030359     13.030344   0.000000   0.000000
   25       13.258632     13.258617   0.000000   0.000000
   26       13.827174     13.827156   0.000000   0.000000
   27       14.290980     14.290948   0.000000   0.000000
   28       14.666040     14.666014   0.000000   0.000000
   29       15.001463     15.001448   0.000000   0.000000
   30       15.544302     15.544285   0.000000   0.000000
   31       16.855236     16.854771   0.000000   0.000000
   32       17.498514     17.502606   0.000000   0.000000
 
  0.5000000E+00  0.2500000E+00 -0.1626067E-15  0.1250000E-01
    1      -39.242445    -39.242204   1.000000   1.000000
    2      -39.236110    -39.235868   1.000000   1.000000
    3      -13.148257    -13.148279   1.000000   1.000000
    4      -11.911907    -11.911931   1.000000   1.000000
    5      -10.008545    -10.008573   1.000000   1.000000
    6       -9.886927     -9.886955   1.000000   1.000000
    7       -5.395394     -5.395420   1.000000   1.000000
    8       -3.673536     -3.673562   1.000000   1.000000
    9       -1.854660     -1.854684   1.000000   1.000000
   10       -1.470048     -1.470074   1.000000   1.000000
   11        0.376174      0.376158   1.000000   1.000000
   12        0.996041      0.996022   1.000000   1.000000
   13        1.781503      1.781482   1.000000   1.000000
   14        2.328750      2.328723   1.000000   1.000000
   15        3.015904      3.015879   1.000000   1.000000
   16        3.345111      3.345087   1.000000   1.000000
   17        3.688002      3.687977   1.000000   1.000000
   18        3.976946      3.976917   1.000000   1.000000
   19        9.687348      9.687337   0.000000   0.000000
   20       10.296247     10.296230   0.000000   0.000000
   21       10.803655     10.803643   0.000000   0.000000
   22       11.458829     11.458821   0.000000   0.000000
   23       12.341786     12.341765   0.000000   0.000000
   24       12.951751     12.951738   0.000000   0.000000
   25       13.180363     13.180352   0.000000   0.000000
   26       13.483248     13.483232   0.000000   0.000000
   27       14.304320     14.304311   0.000000   0.000000
   28       14.695261     14.695236   0.000000   0.000000
   29       15.143369     15.143345   0.000000   0.000000
   30       15.878101     15.878058   0.000000   0.000000
   31       16.771696     16.771458   0.000000   0.000000
   32       17.491745     17.521834   0.000000   0.000000
 
 -0.3750000E+00  0.2500000E+00  0.2290043E-16  0.6250000E-02
    1      -39.244079    -39.243838   1.000000   1.000000
    2      -39.234516    -39.234274   1.000000   1.000000
    3      -13.426298    -13.426319   1.000000   1.000000
    4      -11.478408    -11.478433   1.000000   1.000000
    5       -9.979930     -9.979959   1.000000   1.000000
    6       -9.834862     -9.834891   1.000000   1.000000
    7       -5.861151     -5.861177   1.000000   1.000000
    8       -3.554406     -3.554429   1.000000   1.000000
    9       -1.974295     -1.974319   1.000000   1.000000
   10       -1.376824     -1.376851   1.000000   1.000000
   11        0.184887      0.184870   1.000000   1.000000
   12        1.343940      1.343919   1.000000   1.000000
   13        2.109048      2.109025   1.000000   1.000000
   14        2.278521      2.278496   1.000000   1.000000
   15        2.920370      2.920347   1.000000   1.000000
   16        3.151519      3.151496   1.000000   1.000000